 DBCSR| CPU Multiplication driver                                           XSMM
 DBCSR| Multrec recursion limit                                              512
 DBCSR| Multiplication stack size                                           1000
 DBCSR| Maximum elements for images                                    UNLIMITED
 DBCSR| Multiplicative factor virtual images                                   1
 DBCSR| Use multiplication densification                                       T
 DBCSR| Multiplication size stacks                                             3
 DBCSR| Use memory pool for CPU allocation                                     F
 DBCSR| Number of 3D layers                                               SINGLE
 DBCSR| Use MPI memory allocation                                              F
 DBCSR| Use RMA algorithm                                                      F
 DBCSR| Use Communication thread                                               T
 DBCSR| Communication thread load                                             87
 DBCSR| MPI: My node id                                                        0
 DBCSR| MPI: Number of nodes                                                  48
 DBCSR| OMP: Current number of threads                                         1
 DBCSR| OMP: Max number of threads                                             1
 DBCSR| Split modifier for TAS multiplication algorithm                  1.0E+00


  **** **** ******  **  PROGRAM STARTED AT               2022-06-07 18:47:52.361
 ***** ** ***  *** **   PROGRAM STARTED ON                               tcopt10
 **    ****   ******    PROGRAM STARTED BY                                hutter
 ***** **    ** ** **   PROGRAM PROCESS ID                                 91914
  **** **  *******  **  PROGRAM STARTED IN /data/hutter/GITHUB/BASIS/scMOLOPT/PB
                                           E/At

 CP2K| version string:                   CP2K version 10.0 (Development Version)
 CP2K| source code revision number:                                  git:d19b00a
 CP2K| cp2kflags: omp libint fftw3 libxc elpa parallel mpi3 scalapack cosma xsmm
 CP2K|             spglib sirius libvori libbqb
 CP2K| is freely available from                            https://www.cp2k.org/
 CP2K| Program compiled at                      Wed 18 May 2022 12:15:59 PM CEST
 CP2K| Program compiled on                                               tcopt10
 CP2K| Program compiled for                                                local
 CP2K| Data directory path                   /data/hutter/GITHUB/TDLRI/cp2k/data
 CP2K| Input file name                                              AtCl-ref.inp

 GLOBAL| Force Environment number                                              1
 GLOBAL| Basis set file name                                        ../def2QZVPP
 GLOBAL| Potential file name                                        ../POTENTIAL
 GLOBAL| MM Potential file name                                     MM_POTENTIAL
 GLOBAL| Coordinate file name                                      __STD_INPUT__
 GLOBAL| Method name                                                        CP2K
 GLOBAL| Project name                                                    refAtCl
 GLOBAL| Run type                                                         ENERGY
 GLOBAL| FFT library                                                       FFTW3
 GLOBAL| Diagonalization library                                            ELPA
 GLOBAL| Minimum number of eigenvectors for ELPA usage                        16
 GLOBAL| Orthonormality check for eigenvectors                          DISABLED
 GLOBAL| Matrix multiplication library                                     COSMA
 GLOBAL| All-to-all communication in single precision                          F
 GLOBAL| FFTs using library dependent lengths                                  F
 GLOBAL| Grid backend                                                       AUTO
 GLOBAL| Global print level                                                  LOW
 GLOBAL| MPI I/O enabled                                                       T
 GLOBAL| Total number of message passing processes                            48
 GLOBAL| Number of threads for this process                                    1
 GLOBAL| This output is from process                                           0
 GLOBAL| Stack size for threads created by OpenMP (OMP_STACKSIZE)        default
 GLOBAL| CPU model name                          AMD EPYC 7401 24-Core Processor
 GLOBAL| CPUID                                                              1002

 MEMORY| system memory details [Kb]
 MEMORY|                        rank 0           min           max       average
 MEMORY| MemTotal            263969132     263969132     263969132     263969132
 MEMORY| MemFree             236065444     236065444     236065444     236065444
 MEMORY| Buffers                  2836          2836          2836          2836
 MEMORY| Cached               20352340      20352340      20352340      20352340
 MEMORY| Slab                  1477392       1477392       1477392       1477392
 MEMORY| SReclaimable           873756        873756        873756        873756
 MEMORY| MemLikelyFree       257294376     257294376     257294376     257294376


 GENERATE|  Preliminary Number of Bonds generated:                             0
 GENERATE|  Achieved consistency in connectivity generation.

 *******************************************************************************
 *******************************************************************************
 **                                                                           **
 **     #####                         ##              ##                      **
 **    ##   ##            ##          ##              ##                      **
 **   ##     ##                       ##            ######                    **
 **   ##     ##  ##   ##  ##   #####  ##  ##   ####   ##    #####    #####    **
 **   ##     ##  ##   ##  ##  ##      ## ##   ##      ##   ##   ##  ##   ##   **
 **   ##  ## ##  ##   ##  ##  ##      ####     ###    ##   ######   ######    **
 **    ##  ###   ##   ##  ##  ##      ## ##      ##   ##   ##       ##        **
 **     #######   #####   ##   #####  ##  ##  ####    ##    #####   ##        **
 **           ##                                                    ##        **
 **                                                                           **
 **                                                ... make the atoms dance   **
 **                                                                           **
 **            Copyright (C) by CP2K developers group (2000-2022)             **
 **                      J. Chem. Phys. 152, 194103 (2020)                    **
 **                                                                           **
 *******************************************************************************


 TOTAL NUMBERS AND MAXIMUM NUMBERS

  Total number of            - Atomic kinds:                                   2
                             - Atoms:                                          2
                             - Shell sets:                                    44
                             - Shells:                                        44
                             - Primitive Cartesian functions:                 87
                             - Cartesian basis functions:                    190
                             - Spherical basis functions:                    152

  Maximum angular momentum of- Orbital basis functions:                        4
                             - Local part of the GTH pseudopotential:          2
                             - Non-local part of the GTH pseudopotential:      5


 SCF PARAMETERS         Density guess:                                    ATOMIC
                        --------------------------------------------------------
                        max_scf:                                              20
                        max_scf_history:                                       0
                        max_diis:                                              4
                        --------------------------------------------------------
                        eps_scf:                                        1.00E-07
                        eps_scf_history:                                0.00E+00
                        eps_diis:                                       1.00E-01
                        eps_eigval:                                     1.00E-05
                        --------------------------------------------------------
                        level_shift [a.u.]:                             0.000000
                        --------------------------------------------------------
                        Outer loop SCF in use 
                        No variables optimised in outer loop
                        eps_scf                                         1.00E-07
                        max_scf                                                5
                        No outer loop optimization
                        step_size                                       5.00E-01

 Number of electrons:                                                         42
 Number of occupied orbitals:                                                 21
 Number of molecular orbitals:                                                21

 Number of orbital functions:                                                152
 Number of independent orbital functions:                                    152

 Extrapolation method: initial_guess


 SCF WAVEFUNCTION OPTIMIZATION

  ----------------------------------- OT ---------------------------------------
  Minimizer      : DIIS                : direct inversion
                                         in the iterative subspace
                                         using   7 DIIS vectors
                                         safer DIIS on
  Preconditioner : FULL_ALL            : diagonalization, state selective
  Precond_solver : DEFAULT
  stepsize       :    0.10000000                  energy_gap     :    0.08000000
  eps_taylor     :   0.10000E-15                  max_taylor     :             4
  ----------------------------------- OT ---------------------------------------

  Step     Update method      Time    Convergence         Total energy    Change
  ------------------------------------------------------------------------------
     1 OT DIIS     0.10E+00    0.9     0.14781905      -712.7441585949 -7.13E+02
     2 OT DIIS     0.10E+00    1.0     0.09911681      -718.5829230163 -5.84E+00
     3 OT DIIS     0.10E+00    1.0     0.03336823      -721.9179567309 -3.34E+00
     4 OT DIIS     0.10E+00    1.0     0.03027243      -722.0529891205 -1.35E-01
     5 OT DIIS     0.10E+00    1.0     0.02085638      -722.3612471653 -3.08E-01
     6 OT SD       0.10E+00    1.0     0.01254640      -722.7105387115 -3.49E-01
     7 OT DIIS     0.10E+00    1.0     0.01075587      -722.7565457494 -4.60E-02
     8 OT DIIS     0.10E+00    1.0     0.00677579      -722.9393722859 -1.83E-01
     9 OT DIIS     0.10E+00    1.0     0.00783223      -722.9475169999 -8.14E-03
    10 OT DIIS     0.10E+00    1.0     0.00502012      -722.9509503726 -3.43E-03
    11 OT DIIS     0.10E+00    1.0     0.00348354      -722.9828163649 -3.19E-02
    12 OT DIIS     0.10E+00    1.0     0.00601605      -722.9790928859  3.72E-03
    13 OT DIIS     0.10E+00    1.0     0.00315568      -722.9983983754 -1.93E-02
    14 OT DIIS     0.10E+00    1.0     0.00276832      -723.0127469974 -1.43E-02
    15 OT DIIS     0.10E+00    1.0     0.00274960      -723.0156629709 -2.92E-03
    16 OT DIIS     0.10E+00    1.0     0.00217733      -723.0480490673 -3.24E-02
    17 OT DIIS     0.10E+00    1.0     0.00354491      -723.0448020418  3.25E-03
    18 OT SD       0.10E+00    1.0     0.00224494      -723.0524413576 -7.64E-03
    19 OT DIIS     0.10E+00    1.0     0.00213713      -723.0540001831 -1.56E-03
    20 OT DIIS     0.10E+00    1.0     0.00234877      -723.0705138983 -1.65E-02

  Leaving inner SCF loop after reaching    20 steps.


  Electronic density on regular grids:        -35.4989911097        6.5010088903
  Core density on regular grids:               42.0000000000        0.0000000000
  Hard and soft densities (Lebedev):          -42.6561811741      -36.1551724306
  Total Rho_soft + Rho1_hard - Rho1_soft      -41.9999998532
  Total charge density (r-space):               0.0000001468
  Total Rho_soft + Rho0_soft (g-space):        -0.0000003584

  Overlap energy of the core charge distribution:               0.00000000000021
  Self energy of the core charge distribution:               -593.90123699620904
  Core Hamiltonian energy:                                   -181.98955099848914
  Hartree energy:                                             296.78569566103386
  Exchange-correlation energy:                                -26.53575691566580

  GAPW| Exc from hard and soft atomic rho1:                   -20.62608675477093
  GAPW| local Eh = 1 center integrals:                       -196.80357789420623

  Total energy:                                              -723.07051389830701

  outer SCF iter =    1 RMS gradient =   0.23E-02 energy =       -723.0705138983

  ----------------------------------- OT ---------------------------------------
  Minimizer      : DIIS                : direct inversion
                                         in the iterative subspace
                                         using   7 DIIS vectors
                                         safer DIIS on
  Preconditioner : FULL_ALL            : diagonalization, state selective
  Precond_solver : DEFAULT
  stepsize       :    0.10000000                  energy_gap     :    0.08000000
  eps_taylor     :   0.10000E-15                  max_taylor     :             4
  ----------------------------------- OT ---------------------------------------

  Step     Update method      Time    Convergence         Total energy    Change
  ------------------------------------------------------------------------------
     1 OT DIIS     0.10E+00    2.1     0.01508702      -723.0756223304 -5.11E-03
     2 OT DIIS     0.10E+00    1.0     0.00871523      -723.1297735725 -5.42E-02
     3 OT DIIS     0.10E+00    1.0     0.00441870      -723.1458932612 -1.61E-02
     4 OT DIIS     0.10E+00    1.0     0.00325694      -723.1484159674 -2.52E-03
     5 OT DIIS     0.10E+00    1.0     0.00130808      -723.1493529861 -9.37E-04
     6 OT DIIS     0.10E+00    1.0     0.00027353      -723.1498043832 -4.51E-04
     7 OT DIIS     0.10E+00    1.0     0.00021272      -723.1498274481 -2.31E-05
     8 OT DIIS     0.10E+00    1.0     0.00003181      -723.1498368785 -9.43E-06
     9 OT DIIS     0.10E+00    1.0     0.00000732      -723.1498371284 -2.50E-07
    10 OT DIIS     0.10E+00    1.0     0.00000225      -723.1498371401 -1.18E-08
    11 OT DIIS     0.10E+00    1.0     0.00000042      -723.1498371415 -1.38E-09
    12 OT DIIS     0.10E+00    1.0     0.00000017      -723.1498371416 -4.58E-11
    13 OT DIIS     0.10E+00    1.0     0.00000004      -723.1498371415  1.31E-11

  *** SCF run converged in    13 steps ***


  Electronic density on regular grids:        -35.4931324309        6.5068675691
  Core density on regular grids:               42.0000000000        0.0000000000
  Hard and soft densities (Lebedev):          -42.6790493862      -36.1721819801
  Total Rho_soft + Rho1_hard - Rho1_soft      -41.9999998370
  Total charge density (r-space):               0.0000001630
  Total Rho_soft + Rho0_soft (g-space):        -0.0000003421

  Overlap energy of the core charge distribution:               0.00000000000021
  Self energy of the core charge distribution:               -593.90123699620904
  Core Hamiltonian energy:                                   -182.16539621430366
  Hartree energy:                                             296.91118803122015
  Exchange-correlation energy:                                -26.50662059097245

  GAPW| Exc from hard and soft atomic rho1:                   -20.63727731461047
  GAPW| local Eh = 1 center integrals:                       -196.85049405666479

  Total energy:                                              -723.14983714154016

  outer SCF iter =    2 RMS gradient =   0.42E-07 energy =       -723.1498371415
  outer SCF loop converged in   2 iterations or   33 steps


 ENERGY| Total FORCE_EVAL ( QS ) energy [a.u.]:             -723.149837141540161

 -------------------------------------------------------------------------------
 -                                                                             -
 -                                DBCSR STATISTICS                             -
 -                                                                             -
 -------------------------------------------------------------------------------
 COUNTER                                    TOTAL       BLAS       SMM       ACC
 flops    21 x    21 x    21              5278770       0.0%    100.0%      0.0%
 flops    70 x    70 x    21              6997200       0.0%    100.0%      0.0%
 flops    70 x    82 x    21              8196720       0.0%    100.0%      0.0%
 flops    21 x    21 x    70              8273160       0.0%    100.0%      0.0%
 flops    82 x    82 x    21              9601872       0.0%    100.0%      0.0%
 flops    21 x    21 x    82              9691416       0.0%    100.0%      0.0%
 flops    70 x    21 x    70             16464000       0.0%    100.0%      0.0%
 flops    70 x    21 x    82             19286400       0.0%    100.0%      0.0%
 flops    82 x    21 x    70             19286400       0.0%    100.0%      0.0%
 flops   152 x    21 x    21             22388688       0.0%    100.0%      0.0%
 flops    82 x    21 x    82             22592640       0.0%    100.0%      0.0%
 flops   152 x    21 x    70             31281600       0.0%    100.0%      0.0%
 flops   152 x    21 x    82             36644160       0.0%    100.0%      0.0%
 flops inhomo. stacks                           0       0.0%      0.0%      0.0%
 flops total                       215.983026E+06       0.0%    100.0%      0.0%
 flops max/rank                    208.985826E+06       0.0%    100.0%      0.0%
 matmuls inhomo. stacks                         0       0.0%      0.0%      0.0%
 matmuls total                               1282       0.0%    100.0%      0.0%
 number of processed stacks                  1282       0.0%    100.0%      0.0%
 average stack size                                     0.0       1.0       0.0
 marketing flops                   224.448816E+06
 -------------------------------------------------------------------------------
 # multiplications                            772
 max memory usage/rank             548.823040E+06
 # max total images/rank                        3
 # max 3D layers                                1
 # MPI messages exchanged                  741120
 MPI messages size (bytes):
  total size                       439.278560E+06
  min size                           0.000000E+00
  max size                          99.712000E+03
  average size                     592.722595E+00
 MPI breakdown and total messages size (bytes):
             size <=      128              726262                        0
       128 < size <=     8192                4491                 15844248
      8192 < size <=    32768                7067                118461504
     32768 < size <=   131072                3300                304972800
    131072 < size <=  4194304                   0                        0
   4194304 < size <= 16777216                   0                        0
  16777216 < size                               0                        0
 -------------------------------------------------------------------------------

 *** WARNING in dbcsr_mm.F:290 :: Using a non-square number of MPI ranks ***
 *** might lead to poor performance. Used ranks: 48 Suggested: 49 100    ***

 -------------------------------------------------------------------------------
 -                                                                             -
 -                      DBCSR MESSAGE PASSING PERFORMANCE                      -
 -                                                                             -
 -------------------------------------------------------------------------------
 ROUTINE             CALLS      AVE VOLUME [Bytes]
 MP_Bcast               14                     12.
 MP_Allreduce         4131                      8.
 MP_Alltoall          2873                   5736.
 MP_ISend            34526                   1619.
 MP_IRecv            34030                    528.
 -------------------------------------------------------------------------------

 -------------------------------------------------------------------------------
 -                                                                             -
 -                                GRID STATISTICS                              -
 -                                                                             -
 -------------------------------------------------------------------------------
 LP    KERNEL             BACKEND                              COUNT     PERCENT
 2     collocate ortho    REF                                  12274      10.97%
 2     integrate ortho    REF                                  11913      10.65%
 3     collocate ortho    REF                                  11798      10.55%
 3     integrate ortho    REF                                  11451      10.24%
 1     collocate ortho    REF                                   9758       8.72%
 1     integrate ortho    REF                                   9471       8.47%
 4     collocate ortho    REF                                   8466       7.57%
 4     integrate ortho    REF                                   8217       7.35%
 5     collocate ortho    REF                                   4624       4.13%
 5     integrate ortho    REF                                   4488       4.01%
 0     collocate ortho    REF                                   4046       3.62%
 0     integrate ortho    REF                                   3927       3.51%
 2     collocate general  REF                                   3168       2.83%
 2     integrate general  REF                                   3168       2.83%
 6     collocate ortho    REF                                   1870       1.67%
 6     integrate ortho    REF                                   1815       1.62%
 7     collocate ortho    REF                                    612       0.55%
 7     integrate ortho    REF                                    594       0.53%
 8     collocate ortho    REF                                    102       0.09%
 8     integrate ortho    REF                                     99       0.09%
 -------------------------------------------------------------------------------

 MEMORY| Estimated peak process memory [MiB]                                 524

 -------------------------------------------------------------------------------
 -                                                                             -
 -                         MESSAGE PASSING PERFORMANCE                         -
 -                                                                             -
 -------------------------------------------------------------------------------

 ROUTINE             CALLS      AVE VOLUME [Bytes]
 MP_Group                4
 MP_Bcast              596                 589198.
 MP_Allreduce         1758                 373282.
 MP_Sync                82
 MP_Alltoall           746                2777280.
 MP_ISendRecv         9447                 115392.
 MP_Wait             17560
 MP_comm_split          39
 MP_ISend             7448                 213073.
 MP_IRecv             7448                 213115.
 MP_Recv                20                   2432.
 -------------------------------------------------------------------------------


 -------------------------------------------------------------------------------
 -                                                                             -
 -                           R E F E R E N C E S                               -
 -                                                                             -
 -------------------------------------------------------------------------------
 
 CP2K version 10.0 (Development Version), the CP2K developers group (2022).
 CP2K is freely available from https://www.cp2k.org/ .

 Kuehne,Thomas D.; Iannuzzi,Marcella; Del Ben,Mauro;
 Rybkin,Vladimir V.; Seewald,Patrick; Stein,Frederick; Laino,Teodoro;
 Khaliullin,Rustam Z.; Schuett,Ole; Schiffmann,Florian; Golze,Dorothea;
 Wilhelm,Jan; Chulkov,Sergey; Bani-Hashemian,Mohammad Hossein;
 Weber,Valery; Borstnik,Urban; Taillefumier,Mathieu;
 Jakobovits,Alice Shoshana; Lazzaro,Alfio; Pabst,Hans; Mueller,Tiziano;
 Schade,Robert; Guidon,Manuel; Andermatt,Samuel; Holmberg,Nico;
 Schenter,Gregory K.; Hehn,Anna; Bussy,Augustin; Belleflamme,Fabian;
 Tabacchi,Gloria; Gloess,Andreas; Lass,Michael; Bethune,Iain;
 Mundy,Christopher J.; Plessl,Christian; Watkins,Matt;
 VandeVondele,Joost; Krack,Matthias; Hutter,Juerg. 
 The Journal of Chemical Physics, 152 (19), (2020). 
 CP2K: An electronic structure and molecular dynamics software package -
 Quickstep: Efficient and accurate electronic structure calculations.
 https://doi.org/10.1063/5.0007045

 Schuett, Ole; Messmer, Peter; Hutter, Juerg; VandeVondele, Joost. 
 Electronic Structure Calculations on Graphics Processing Units, John
 Wiley & Sons, Ltd, 173-190 (2016). 
 GPU-Accelerated Sparse Matrix-Matrix Multiplication for
 Linear Scaling Density Functional Theory.
 https://doi.org/10.1002/9781118670712.ch8

 Heinecke, A; Henry, G; Hutchinson, M; Pabst, H. 
 Proceedings of Intl. Supercomputing Conference, 981-991 (2016). 
 LIBXSMM: Accelerating Small Matrix Multiplications
 by Runtime Code Generation.
 https://doi.org/10.1109/SC.2016.83

 Borstnik, U; VandeVondele, J; Weber, V; Hutter, J. 
 PARALLEL COMPUTING, 40 (5-6), 47-58 (2014). 
 Sparse matrix multiplication: The distributed block-compressed sparse
 row library.
 https://doi.org/10.1016/j.parco.2014.03.012

 Hutter, J; Iannuzzi, M; Schiffmann, F; VandeVondele, J. 
 WIREs Comput Mol Sci., 4 (1), 15-25 (2014). 
 CP2K: atomistic simulations of condensed matter systems.
 https://doi.org/10.1002/wcms.1159

 Marek, A; Blum, V; Johanni, R; Havu, V; Lang, B; Auckenthaler, T;
 Heinecke, A; Bungartz, H; Lederer, H. 
 Journal of Physics: Condensed Matter, 26 (21), (2014). 
 The ELPA library: scalable parallel eigenvalue solutions for
 electronic structure
 theory and computational science.
 https://doi.org/10.1088/0953-8984/26/21/213201

 Krack, M. 
 THEORETICAL CHEMISTRY ACCOUNTS, 114 (1-3), 145-152 (2005). 
 Pseudopotentials for H to Kr optimized for gradient-corrected
 exchange-correlation functionals.
 https://doi.org/10.1007/s00214-005-0655-y

 Frigo, M; Johnson, SG. 
 PROCEEDINGS OF THE IEEE, 93 (2), 216-231 (2005). 
 The design and implementation of FFTW3.
 https://doi.org/10.1109/JPROC.2004.840301

 VandeVondele, J; Hutter, J. 
 JOURNAL OF CHEMICAL PHYSICS, 118 (10), 4365-4369 (2003). 
 An efficient orbital transformation method for electronic structure
 calculations.
 https://doi.org/10.1063/1.1543154

 Lippert, G; Hutter, J; Parrinello, M. 
 THEORETICAL CHEMISTRY ACCOUNTS, 103 (2), 124-140 (1999). 
 The Gaussian and augmented-plane-wave density functional method for ab
 initio molecular dynamics simulations.
 https://doi.org/10.1007/s002140050523

 Krack, M; Parrinello, M. 
 PHYSICAL CHEMISTRY CHEMICAL PHYSICS, 2 (10), 2105-2112 (2000). 
 All-electron ab-initio molecular dynamics.
 https://doi.org/10.1039/b001167n

 Hartwigsen, C; Goedecker, S; Hutter, J. 
 PHYSICAL REVIEW B, 58 (7), 3641-3662 (1998). 
 Relativistic separable dual-space Gaussian pseudopotentials from H to Rn.
 https://doi.org/10.1103/PhysRevB.58.3641

 Perdew, JP; Burke, K; Ernzerhof, M. 
 PHYSICAL REVIEW LETTERS, 77 (18), 3865-3868 (1996). 
 Generalized gradient approximation made simple.
 https://doi.org/10.1103/PhysRevLett.77.3865

 Goedecker, S; Teter, M; Hutter, J. 
 PHYSICAL REVIEW B, 54 (3), 1703-1710 (1996). 
 Separable dual-space Gaussian pseudopotentials.
 https://doi.org/10.1103/PhysRevB.54.1703


 -------------------------------------------------------------------------------
 -                                                                             -
 -                                T I M I N G                                  -
 -                                                                             -
 -------------------------------------------------------------------------------
 SUBROUTINE                       CALLS  ASD         SELF TIME        TOTAL TIME
                                MAXIMUM       AVERAGE  MAXIMUM  AVERAGE  MAXIMUM
 CP2K                                 1  1.0    0.010    0.037   34.691   34.697
 qs_energies                          1  2.0    0.000    0.000   34.359   34.365
 scf_env_do_scf                       1  3.0    0.000    0.000   33.920   33.927
 scf_env_do_scf_inner_loop           33  4.0    0.001    0.002   32.144   32.150
 qs_ks_update_qs_env                 35  5.0    0.000    0.001   28.624   28.630
 rebuild_ks_matrix                   33  6.0    0.000    0.000   28.617   28.621
 qs_ks_build_kohn_sham_matrix        33  7.0    0.007    0.009   28.617   28.621
 prepare_gapw_den                    33  8.0    0.001    0.002    8.801    8.844
 pw_transfer                        698 10.1    0.076    0.098    7.340    8.117
 fft_wrap_pw1pw2                    599 11.3    0.008    0.010    7.189    7.978
 fft_wrap_pw1pw2_300                398 12.7    0.450    0.524    6.730    7.509
 rs_pw_transfer                     334  9.5    0.009    0.013    6.500    6.775
 fft3d_ps                           599 13.3    2.704    3.043    5.688    6.498
 mp_sum_d                          1314  7.1    5.824    6.126    5.824    6.126
 qs_vxc_create                       33  8.0    0.001    0.001    5.924    5.925
 xc_vxc_pw_create                    33  9.0    0.036    0.041    5.923    5.924
 calculate_rho0_atom                 66  9.0    4.662    5.019    4.662    5.019
 xc_pw_derive                       198 11.0    0.002    0.003    3.997    4.777
 calculate_vxc_atom                  33  8.0    0.015    0.260    4.511    4.512
 calculate_rho_atom                  66  9.0    1.386    4.504    1.386    4.504
 qs_rho_update_rho                   34  5.0    0.001    0.001    4.455    4.459
 calculate_rho_elec                  34  6.0    0.019    0.020    4.188    4.189
 gaVxcgb_GC                          66  9.0    0.086    4.126    0.086    4.126
 integrate_vhg0_rspace               33  8.0    0.387    0.799    3.710    3.798
 xc_pw_divergence                    33 10.0    0.001    0.001    2.857    3.656
 mp_alltoall_z22v                   599 15.3    2.373    3.585    2.373    3.585
 sum_up_and_integrate                33  8.0    0.017    0.023    3.534    3.575
 integrate_v_rspace                  33  9.0    0.001    0.001    3.518    3.552
 density_rs2pw                       34  7.0    0.002    0.002    3.214    3.426
 xc_rho_set_and_dset_create          33 10.0    0.041    0.047    2.869    3.304
 potential_pw2rs                     33 10.0    0.002    0.003    3.052    3.057
 yz_to_x                            267 14.1    0.255    0.324    1.777    2.802
 rs_pw_transfer_PW2RS_300            66 11.0    1.486    1.561    2.426    2.540
 rs_pw_transfer_RS2PW_300            67 10.0    1.482    1.592    2.237    2.456
 mp_sum_dm                          202  7.7    2.211    2.285    2.211    2.285
 put_rho0_on_grid                    33  9.0    0.021    0.027    1.889    1.932
 mp_sum_dv                          490 12.7    0.865    1.879    0.865    1.879
 init_scf_loop                        2  4.0    0.000    0.000    1.775    1.775
 mp_waitany                        7448 11.5    1.278    1.549    1.278    1.549
 mp_waitall_1                     71872 13.9    1.278    1.456    1.278    1.456
 xc_functional_eval                 165 10.9    0.001    0.001    1.021    1.427
 pbe_lda_eval                       165 11.9    1.020    1.426    1.020    1.426
 x_to_yz                            265 14.6    0.309    0.348    1.155    1.296
 grid_collocate_task_list            34  7.0    0.776    1.187    0.776    1.187
 Vh_1c_gg_integrals                  33  8.0    0.030    1.007    1.016    1.072
 qs_scf_new_mos                      33  5.0    0.000    0.000    0.893    0.896
 qs_scf_loop_do_ot                   33  6.0    0.000    0.000    0.893    0.896
 dbcsr_multiply_generic             772 10.1    0.023    0.024    0.880    0.893
 rs_pw_transfer_PW2RS_100            33 12.0    0.188    0.243    0.825    0.880
 ot_scf_mini                         33  7.0    0.000    0.000    0.857    0.860
 -------------------------------------------------------------------------------

 The number of warnings for this run is : 1
 
 -------------------------------------------------------------------------------
  **** **** ******  **  PROGRAM ENDED AT                 2022-06-07 18:48:27.502
 ***** ** ***  *** **   PROGRAM RAN ON                                   tcopt10
 **    ****   ******    PROGRAM RAN BY                                    hutter
 ***** **    ** ** **   PROGRAM PROCESS ID                                 91914
  **** **  *******  **  PROGRAM STOPPED IN /data/hutter/GITHUB/BASIS/scMOLOPT/PB
                                           E/At
