 DBCSR| CPU Multiplication driver                                           XSMM
 DBCSR| Multrec recursion limit                                              512
 DBCSR| Multiplication stack size                                           1000
 DBCSR| Maximum elements for images                                    UNLIMITED
 DBCSR| Multiplicative factor virtual images                                   1
 DBCSR| Use multiplication densification                                       T
 DBCSR| Multiplication size stacks                                             3
 DBCSR| Use memory pool for CPU allocation                                     F
 DBCSR| Number of 3D layers                                               SINGLE
 DBCSR| Use MPI memory allocation                                              F
 DBCSR| Use RMA algorithm                                                      F
 DBCSR| Use Communication thread                                               T
 DBCSR| Communication thread load                                             87
 DBCSR| MPI: My node id                                                        0
 DBCSR| MPI: Number of nodes                                                  48
 DBCSR| OMP: Current number of threads                                         1
 DBCSR| OMP: Max number of threads                                             1
 DBCSR| Split modifier for TAS multiplication algorithm                  1.0E+00


  **** **** ******  **  PROGRAM STARTED AT               2022-06-07 18:48:35.977
 ***** ** ***  *** **   PROGRAM STARTED ON                               tcopt10
 **    ****   ******    PROGRAM STARTED BY                                hutter
 ***** **    ** ** **   PROGRAM PROCESS ID                                 92156
  **** **  *******  **  PROGRAM STARTED IN /data/hutter/GITHUB/BASIS/scMOLOPT/PB
                                           E/At

 CP2K| version string:                   CP2K version 10.0 (Development Version)
 CP2K| source code revision number:                                  git:d19b00a
 CP2K| cp2kflags: omp libint fftw3 libxc elpa parallel mpi3 scalapack cosma xsmm
 CP2K|             spglib sirius libvori libbqb
 CP2K| is freely available from                            https://www.cp2k.org/
 CP2K| Program compiled at                      Wed 18 May 2022 12:15:59 PM CEST
 CP2K| Program compiled on                                               tcopt10
 CP2K| Program compiled for                                                local
 CP2K| Data directory path                   /data/hutter/GITHUB/TDLRI/cp2k/data
 CP2K| Input file name                                               AtH-ref.inp

 GLOBAL| Force Environment number                                              1
 GLOBAL| Basis set file name                                        ../def2QZVPP
 GLOBAL| Potential file name                                        ../POTENTIAL
 GLOBAL| MM Potential file name                                     MM_POTENTIAL
 GLOBAL| Coordinate file name                                      __STD_INPUT__
 GLOBAL| Method name                                                        CP2K
 GLOBAL| Project name                                                     refAtH
 GLOBAL| Run type                                                         ENERGY
 GLOBAL| FFT library                                                       FFTW3
 GLOBAL| Diagonalization library                                            ELPA
 GLOBAL| Minimum number of eigenvectors for ELPA usage                        16
 GLOBAL| Orthonormality check for eigenvectors                          DISABLED
 GLOBAL| Matrix multiplication library                                     COSMA
 GLOBAL| All-to-all communication in single precision                          F
 GLOBAL| FFTs using library dependent lengths                                  F
 GLOBAL| Grid backend                                                       AUTO
 GLOBAL| Global print level                                                  LOW
 GLOBAL| MPI I/O enabled                                                       T
 GLOBAL| Total number of message passing processes                            48
 GLOBAL| Number of threads for this process                                    1
 GLOBAL| This output is from process                                           0
 GLOBAL| Stack size for threads created by OpenMP (OMP_STACKSIZE)        default
 GLOBAL| CPU model name                          AMD EPYC 7401 24-Core Processor
 GLOBAL| CPUID                                                              1002

 MEMORY| system memory details [Kb]
 MEMORY|                        rank 0           min           max       average
 MEMORY| MemTotal            263969132     263969132     263969132     263969132
 MEMORY| MemFree             236073316     236073316     236073316     236073316
 MEMORY| Buffers                  2836          2836          2836          2836
 MEMORY| Cached               20353664      20353664      20353664      20353664
 MEMORY| Slab                  1477220       1477220       1477220       1477220
 MEMORY| SReclaimable           873724        873724        873724        873724
 MEMORY| MemLikelyFree       257303540     257303540     257303540     257303540


 GENERATE|  Preliminary Number of Bonds generated:                             0
 GENERATE|  Achieved consistency in connectivity generation.

 *******************************************************************************
 *******************************************************************************
 **                                                                           **
 **     #####                         ##              ##                      **
 **    ##   ##            ##          ##              ##                      **
 **   ##     ##                       ##            ######                    **
 **   ##     ##  ##   ##  ##   #####  ##  ##   ####   ##    #####    #####    **
 **   ##     ##  ##   ##  ##  ##      ## ##   ##      ##   ##   ##  ##   ##   **
 **   ##  ## ##  ##   ##  ##  ##      ####     ###    ##   ######   ######    **
 **    ##  ###   ##   ##  ##  ##      ## ##      ##   ##   ##       ##        **
 **     #######   #####   ##   #####  ##  ##  ####    ##    #####   ##        **
 **           ##                                                    ##        **
 **                                                                           **
 **                                                ... make the atoms dance   **
 **                                                                           **
 **            Copyright (C) by CP2K developers group (2000-2022)             **
 **                      J. Chem. Phys. 152, 194103 (2020)                    **
 **                                                                           **
 *******************************************************************************


 TOTAL NUMBERS AND MAXIMUM NUMBERS

  Total number of            - Atomic kinds:                                   2
                             - Atoms:                                          2
                             - Shell sets:                                    32
                             - Shells:                                        32
                             - Primitive Cartesian functions:                 59
                             - Cartesian basis functions:                    139
                             - Spherical basis functions:                    112

  Maximum angular momentum of- Orbital basis functions:                        4
                             - Local part of the GTH pseudopotential:          2
                             - Non-local part of the GTH pseudopotential:      5


 SCF PARAMETERS         Density guess:                                    ATOMIC
                        --------------------------------------------------------
                        max_scf:                                              20
                        max_scf_history:                                       0
                        max_diis:                                              4
                        --------------------------------------------------------
                        eps_scf:                                        1.00E-07
                        eps_scf_history:                                0.00E+00
                        eps_diis:                                       1.00E-01
                        eps_eigval:                                     1.00E-05
                        --------------------------------------------------------
                        level_shift [a.u.]:                             0.000000
                        --------------------------------------------------------
                        Outer loop SCF in use 
                        No variables optimised in outer loop
                        eps_scf                                         1.00E-07
                        max_scf                                                5
                        No outer loop optimization
                        step_size                                       5.00E-01

 Number of electrons:                                                         26
 Number of occupied orbitals:                                                 13
 Number of molecular orbitals:                                                13

 Number of orbital functions:                                                112
 Number of independent orbital functions:                                    112

 Extrapolation method: initial_guess


 SCF WAVEFUNCTION OPTIMIZATION

  ----------------------------------- OT ---------------------------------------
  Minimizer      : DIIS                : direct inversion
                                         in the iterative subspace
                                         using   7 DIIS vectors
                                         safer DIIS on
  Preconditioner : FULL_ALL            : diagonalization, state selective
  Precond_solver : DEFAULT
  stepsize       :    0.10000000                  energy_gap     :    0.08000000
  eps_taylor     :   0.10000E-15                  max_taylor     :             4
  ----------------------------------- OT ---------------------------------------

  Step     Update method      Time    Convergence         Total energy    Change
  ------------------------------------------------------------------------------
     1 OT DIIS     0.10E+00    0.8     0.09659177      -262.7213544753 -2.63E+02
     2 OT DIIS     0.10E+00    0.9     0.04060285      -263.4836795378 -7.62E-01
     3 OT DIIS     0.10E+00    0.9     0.02079459      -263.6303903235 -1.47E-01
     4 OT DIIS     0.10E+00    0.9     0.00613904      -263.6967369122 -6.63E-02
     5 OT DIIS     0.10E+00    0.9     0.00333505      -263.7010857082 -4.35E-03
     6 OT DIIS     0.10E+00    0.9     0.00318466      -263.7015229769 -4.37E-04
     7 OT DIIS     0.10E+00    0.9     0.00030617      -263.7022219771 -6.99E-04
     8 OT DIIS     0.10E+00    0.9     0.00010410      -263.7022342763 -1.23E-05
     9 OT DIIS     0.10E+00    0.9     0.00003866      -263.7022353954 -1.12E-06
    10 OT DIIS     0.10E+00    0.9     0.00001333      -263.7022356067 -2.11E-07
    11 OT DIIS     0.10E+00    0.9     0.00000615      -263.7022356396 -3.29E-08
    12 OT DIIS     0.10E+00    0.9     0.00000273      -263.7022356479 -8.31E-09
    13 OT DIIS     0.10E+00    0.9     0.00000099      -263.7022356498 -1.87E-09
    14 OT DIIS     0.10E+00    0.9     0.00000029      -263.7022356500 -2.29E-10
    15 OT DIIS     0.10E+00    0.9     0.00000012      -263.7022356500 -1.57E-11
    16 OT DIIS     0.10E+00    0.9     0.00000003      -263.7022356500 -2.39E-12

  *** SCF run converged in    16 steps ***


  Electronic density on regular grids:        -28.3520097257       -2.3520097257
  Core density on regular grids:               26.0000000000       -0.0000000000
  Hard and soft densities (Lebedev):          -28.3507106108      -30.7027203258
  Total Rho_soft + Rho1_hard - Rho1_soft      -26.0000000107
  Total charge density (r-space):              -0.0000000107
  Total Rho_soft + Rho0_soft (g-space):        -0.0000000941

  Overlap energy of the core charge distribution:               0.00000000023134
  Self energy of the core charge distribution:               -396.46928455836922
  Core Hamiltonian energy:                                     84.02418379636335
  Hartree energy:                                             421.59608129158624
  Exchange-correlation energy:                                -23.12591531963068

  GAPW| Exc from hard and soft atomic rho1:                     3.66542785117438
  GAPW| local Eh = 1 center integrals:                       -353.39272871136535

  Total energy:                                              -263.70223565000992

  outer SCF iter =    1 RMS gradient =   0.34E-07 energy =       -263.7022356500
  outer SCF loop converged in   1 iterations or   16 steps


 ENERGY| Total FORCE_EVAL ( QS ) energy [a.u.]:             -263.702235650009925

 -------------------------------------------------------------------------------
 -                                                                             -
 -                                DBCSR STATISTICS                             -
 -                                                                             -
 -------------------------------------------------------------------------------
 COUNTER                                    TOTAL       BLAS       SMM       ACC
 flops    30 x    30 x    13               397800       0.0%    100.0%      0.0%
 flops    13 x    13 x    13               606372       0.0%    100.0%      0.0%
 flops    13 x    13 x    30               659100       0.0%    100.0%      0.0%
 flops    30 x    13 x    30               936000       0.0%    100.0%      0.0%
 flops    30 x    82 x    13              1087320       0.0%    100.0%      0.0%
 flops    13 x    13 x    82              1801540       0.0%    100.0%      0.0%
 flops    30 x    13 x    82              2558400       0.0%    100.0%      0.0%
 flops    82 x    13 x    30              2558400       0.0%    100.0%      0.0%
 flops   112 x    13 x    30              2970240       0.0%    100.0%      0.0%
 flops    82 x    82 x    13              2972008       0.0%    100.0%      0.0%
 flops   112 x    13 x    13              3066336       0.0%    100.0%      0.0%
 flops    82 x    13 x    82              6992960       0.0%    100.0%      0.0%
 flops   112 x    13 x    82              8118656       0.0%    100.0%      0.0%
 flops inhomo. stacks                           0       0.0%      0.0%      0.0%
 flops total                        34.725132E+06       0.0%    100.0%      0.0%
 flops max/rank                     34.327332E+06       0.0%    100.0%      0.0%
 matmuls inhomo. stacks                         0       0.0%      0.0%      0.0%
 matmuls total                                628       0.0%    100.0%      0.0%
 number of processed stacks                   628       0.0%    100.0%      0.0%
 average stack size                                     0.0       1.0       0.0
 marketing flops                    35.850372E+06
 -------------------------------------------------------------------------------
 # multiplications                            376
 max memory usage/rank             501.133312E+06
 # max total images/rank                        3
 # max 3D layers                                1
 # MPI messages exchanged                  360960
 MPI messages size (bytes):
  total size                       110.963256E+06
  min size                           0.000000E+00
  max size                          73.472000E+03
  average size                     307.411499E+00
 MPI breakdown and total messages size (bytes):
             size <=      128              353713                        0
       128 < size <=     8192                3358                  6631560
      8192 < size <=    32768                3075                 44525488
     32768 < size <=   131072                 814                 59806208
    131072 < size <=  4194304                   0                        0
   4194304 < size <= 16777216                   0                        0
  16777216 < size                               0                        0
 -------------------------------------------------------------------------------

 *** WARNING in dbcsr_mm.F:290 :: Using a non-square number of MPI ranks ***
 *** might lead to poor performance. Used ranks: 48 Suggested: 49 100    ***

 -------------------------------------------------------------------------------
 -                                                                             -
 -                      DBCSR MESSAGE PASSING PERFORMANCE                      -
 -                                                                             -
 -------------------------------------------------------------------------------
 ROUTINE             CALLS      AVE VOLUME [Bytes]
 MP_Bcast               14                     12.
 MP_Allreduce         2032                      8.
 MP_Alltoall          1439                   4841.
 MP_ISend            16818                    829.
 MP_IRecv            16574                    212.
 -------------------------------------------------------------------------------

 -------------------------------------------------------------------------------
 -                                                                             -
 -                                GRID STATISTICS                              -
 -                                                                             -
 -------------------------------------------------------------------------------
 LP    KERNEL             BACKEND                              COUNT     PERCENT
 2     collocate ortho    REF                                   4964      11.08%
 3     collocate ortho    REF                                   4760      10.62%
 2     integrate ortho    REF                                   4672      10.42%
 3     integrate ortho    REF                                   4480      10.00%
 1     collocate ortho    REF                                   4148       9.26%
 1     integrate ortho    REF                                   3904       8.71%
 4     collocate ortho    REF                                   3111       6.94%
 4     integrate ortho    REF                                   2928       6.53%
 0     collocate ortho    REF                                   2142       4.78%
 0     integrate ortho    REF                                   2016       4.50%
 5     collocate ortho    REF                                   1615       3.60%
 2     collocate general  REF                                   1536       3.43%
 2     integrate general  REF                                   1536       3.43%
 5     integrate ortho    REF                                   1520       3.39%
 6     collocate ortho    REF                                    595       1.33%
 6     integrate ortho    REF                                    560       1.25%
 7     collocate ortho    REF                                    153       0.34%
 7     integrate ortho    REF                                    144       0.32%
 8     collocate ortho    REF                                     17       0.04%
 8     integrate ortho    REF                                     16       0.04%
 -------------------------------------------------------------------------------

 MEMORY| Estimated peak process memory [MiB]                                 478

 -------------------------------------------------------------------------------
 -                                                                             -
 -                         MESSAGE PASSING PERFORMANCE                         -
 -                                                                             -
 -------------------------------------------------------------------------------

 ROUTINE             CALLS      AVE VOLUME [Bytes]
 MP_Group                4
 MP_Bcast              319                1064731.
 MP_Allreduce         1084                 236046.
 MP_Sync                42
 MP_Alltoall           372                 283540.
 MP_ISendRecv         4653                 115392.
 MP_Wait              8618
 MP_comm_split          19
 MP_ISend             3640                 213051.
 MP_IRecv             3640                 213137.
 MP_Recv                 6                   1792.
 -------------------------------------------------------------------------------


 -------------------------------------------------------------------------------
 -                                                                             -
 -                           R E F E R E N C E S                               -
 -                                                                             -
 -------------------------------------------------------------------------------
 
 CP2K version 10.0 (Development Version), the CP2K developers group (2022).
 CP2K is freely available from https://www.cp2k.org/ .

 Kuehne,Thomas D.; Iannuzzi,Marcella; Del Ben,Mauro;
 Rybkin,Vladimir V.; Seewald,Patrick; Stein,Frederick; Laino,Teodoro;
 Khaliullin,Rustam Z.; Schuett,Ole; Schiffmann,Florian; Golze,Dorothea;
 Wilhelm,Jan; Chulkov,Sergey; Bani-Hashemian,Mohammad Hossein;
 Weber,Valery; Borstnik,Urban; Taillefumier,Mathieu;
 Jakobovits,Alice Shoshana; Lazzaro,Alfio; Pabst,Hans; Mueller,Tiziano;
 Schade,Robert; Guidon,Manuel; Andermatt,Samuel; Holmberg,Nico;
 Schenter,Gregory K.; Hehn,Anna; Bussy,Augustin; Belleflamme,Fabian;
 Tabacchi,Gloria; Gloess,Andreas; Lass,Michael; Bethune,Iain;
 Mundy,Christopher J.; Plessl,Christian; Watkins,Matt;
 VandeVondele,Joost; Krack,Matthias; Hutter,Juerg. 
 The Journal of Chemical Physics, 152 (19), (2020). 
 CP2K: An electronic structure and molecular dynamics software package -
 Quickstep: Efficient and accurate electronic structure calculations.
 https://doi.org/10.1063/5.0007045

 Schuett, Ole; Messmer, Peter; Hutter, Juerg; VandeVondele, Joost. 
 Electronic Structure Calculations on Graphics Processing Units, John
 Wiley & Sons, Ltd, 173-190 (2016). 
 GPU-Accelerated Sparse Matrix-Matrix Multiplication for
 Linear Scaling Density Functional Theory.
 https://doi.org/10.1002/9781118670712.ch8

 Heinecke, A; Henry, G; Hutchinson, M; Pabst, H. 
 Proceedings of Intl. Supercomputing Conference, 981-991 (2016). 
 LIBXSMM: Accelerating Small Matrix Multiplications
 by Runtime Code Generation.
 https://doi.org/10.1109/SC.2016.83

 Borstnik, U; VandeVondele, J; Weber, V; Hutter, J. 
 PARALLEL COMPUTING, 40 (5-6), 47-58 (2014). 
 Sparse matrix multiplication: The distributed block-compressed sparse
 row library.
 https://doi.org/10.1016/j.parco.2014.03.012

 Hutter, J; Iannuzzi, M; Schiffmann, F; VandeVondele, J. 
 WIREs Comput Mol Sci., 4 (1), 15-25 (2014). 
 CP2K: atomistic simulations of condensed matter systems.
 https://doi.org/10.1002/wcms.1159

 Marek, A; Blum, V; Johanni, R; Havu, V; Lang, B; Auckenthaler, T;
 Heinecke, A; Bungartz, H; Lederer, H. 
 Journal of Physics: Condensed Matter, 26 (21), (2014). 
 The ELPA library: scalable parallel eigenvalue solutions for
 electronic structure
 theory and computational science.
 https://doi.org/10.1088/0953-8984/26/21/213201

 Krack, M. 
 THEORETICAL CHEMISTRY ACCOUNTS, 114 (1-3), 145-152 (2005). 
 Pseudopotentials for H to Kr optimized for gradient-corrected
 exchange-correlation functionals.
 https://doi.org/10.1007/s00214-005-0655-y

 Frigo, M; Johnson, SG. 
 PROCEEDINGS OF THE IEEE, 93 (2), 216-231 (2005). 
 The design and implementation of FFTW3.
 https://doi.org/10.1109/JPROC.2004.840301

 VandeVondele, J; Hutter, J. 
 JOURNAL OF CHEMICAL PHYSICS, 118 (10), 4365-4369 (2003). 
 An efficient orbital transformation method for electronic structure
 calculations.
 https://doi.org/10.1063/1.1543154

 Lippert, G; Hutter, J; Parrinello, M. 
 THEORETICAL CHEMISTRY ACCOUNTS, 103 (2), 124-140 (1999). 
 The Gaussian and augmented-plane-wave density functional method for ab
 initio molecular dynamics simulations.
 https://doi.org/10.1007/s002140050523

 Krack, M; Parrinello, M. 
 PHYSICAL CHEMISTRY CHEMICAL PHYSICS, 2 (10), 2105-2112 (2000). 
 All-electron ab-initio molecular dynamics.
 https://doi.org/10.1039/b001167n

 Hartwigsen, C; Goedecker, S; Hutter, J. 
 PHYSICAL REVIEW B, 58 (7), 3641-3662 (1998). 
 Relativistic separable dual-space Gaussian pseudopotentials from H to Rn.
 https://doi.org/10.1103/PhysRevB.58.3641

 Perdew, JP; Burke, K; Ernzerhof, M. 
 PHYSICAL REVIEW LETTERS, 77 (18), 3865-3868 (1996). 
 Generalized gradient approximation made simple.
 https://doi.org/10.1103/PhysRevLett.77.3865

 Goedecker, S; Teter, M; Hutter, J. 
 PHYSICAL REVIEW B, 54 (3), 1703-1710 (1996). 
 Separable dual-space Gaussian pseudopotentials.
 https://doi.org/10.1103/PhysRevB.54.1703


 -------------------------------------------------------------------------------
 -                                                                             -
 -                                T I M I N G                                  -
 -                                                                             -
 -------------------------------------------------------------------------------
 SUBROUTINE                       CALLS  ASD         SELF TIME        TOTAL TIME
                                MAXIMUM       AVERAGE  MAXIMUM  AVERAGE  MAXIMUM
 CP2K                                 1  1.0    0.008    0.035   15.059   15.060
 qs_energies                          1  2.0    0.000    0.000   14.773   14.773
 scf_env_do_scf                       1  3.0    0.000    0.000   14.366   14.367
 scf_env_do_scf_inner_loop           16  4.0    0.000    0.001   13.605   13.605
 qs_ks_update_qs_env                 17  5.0    0.000    0.000   11.861   11.863
 rebuild_ks_matrix                   16  6.0    0.000    0.000   11.859   11.862
 qs_ks_build_kohn_sham_matrix        16  7.0    0.004    0.004   11.859   11.861
 pw_transfer                        341 10.1    0.037    0.046    3.534    3.889
 fft_wrap_pw1pw2                    293 11.2    0.004    0.005    3.460    3.823
 fft_wrap_pw1pw2_300                194 12.6    0.224    0.260    3.227    3.588
 prepare_gapw_den                    16  8.0    0.000    0.001    3.346    3.366
 rs_pw_transfer                     164  9.5    0.005    0.006    3.185    3.302
 fft3d_ps                           293 13.2    1.303    1.500    2.723    3.072
 qs_vxc_create                       16  8.0    0.000    0.000    2.842    2.842
 xc_vxc_pw_create                    16  9.0    0.017    0.020    2.841    2.841
 xc_pw_derive                        96 11.0    0.001    0.001    1.906    2.259
 qs_rho_update_rho                   17  5.0    0.000    0.000    2.192    2.192
 mp_sum_d                           883  5.5    1.980    2.109    1.980    2.109
 calculate_rho_elec                  17  6.0    0.009    0.011    2.090    2.091
 calculate_rho0_atom                 32  9.0    1.888    1.968    1.888    1.968
 sum_up_and_integrate                16  8.0    0.008    0.010    1.742    1.762
 integrate_v_rspace                  16  9.0    0.000    0.001    1.734    1.752
 density_rs2pw                       17  7.0    0.001    0.002    1.610    1.722
 mp_alltoall_z22v                   293 15.2    1.116    1.721    1.116    1.721
 xc_pw_divergence                    16 10.0    0.001    0.002    1.352    1.703
 integrate_vhg0_rspace               16  8.0    0.145    0.299    1.633    1.642
 calculate_rho_atom                  32  9.0    0.426    1.593    0.426    1.593
 xc_rho_set_and_dset_create          16 10.0    0.020    0.023    1.390    1.586
 potential_pw2rs                     16 10.0    0.001    0.001    1.479    1.482
 calculate_vxc_atom                  16  8.0    0.007    0.102    1.444    1.444
 yz_to_x                            131 14.1    0.127    0.159    0.829    1.300
 gaVxcgb_GC                          32  9.0    0.027    1.281    0.027    1.281
 rs_pw_transfer_PW2RS_300            32 11.0    0.720    0.764    1.175    1.228
 rs_pw_transfer_RS2PW_300            33 10.0    0.728    0.787    1.112    1.203
 mp_sum_dm                          100  7.6    0.927    0.947    0.927    0.947
 put_rho0_on_grid                    16  9.0    0.010    0.012    0.912    0.931
 init_scf_loop                        1  4.0    0.000    0.000    0.761    0.761
 mp_waitany                        3640 11.5    0.635    0.737    0.635    0.737
 mp_waitall_1                     35058 13.9    0.619    0.694    0.619    0.694
 xc_functional_eval                  80 10.9    0.000    0.001    0.493    0.679
 pbe_lda_eval                        80 11.9    0.493    0.679    0.493    0.679
 x_to_yz                            129 14.6    0.151    0.172    0.563    0.607
 mp_sum_dv                          259 12.7    0.121    0.597    0.121    0.597
 grid_collocate_task_list            17  7.0    0.385    0.590    0.385    0.590
 rs_pw_transfer_PW2RS_100            16 12.0    0.093    0.118    0.400    0.423
 qs_scf_new_mos                      16  5.0    0.000    0.000    0.409    0.411
 qs_scf_loop_do_ot                   16  6.0    0.000    0.000    0.409    0.411
 Vh_1c_gg_integrals                  16  8.0    0.012    0.371    0.375    0.404
 dbcsr_multiply_generic             376 10.1    0.011    0.011    0.398    0.403
 ot_scf_mini                         16  7.0    0.000    0.000    0.392    0.393
 -------------------------------------------------------------------------------

 The number of warnings for this run is : 1
 
 -------------------------------------------------------------------------------
  **** **** ******  **  PROGRAM ENDED AT                 2022-06-07 18:48:51.474
 ***** ** ***  *** **   PROGRAM RAN ON                                   tcopt10
 **    ****   ******    PROGRAM RAN BY                                    hutter
 ***** **    ** ** **   PROGRAM PROCESS ID                                 92156
  **** **  *******  **  PROGRAM STOPPED IN /data/hutter/GITHUB/BASIS/scMOLOPT/PB
                                           E/At
