 DBCSR| CPU Multiplication driver                                           XSMM
 DBCSR| Multrec recursion limit                                              512
 DBCSR| Multiplication stack size                                           1000
 DBCSR| Maximum elements for images                                    UNLIMITED
 DBCSR| Multiplicative factor virtual images                                   1
 DBCSR| Use multiplication densification                                       T
 DBCSR| Multiplication size stacks                                             3
 DBCSR| Use memory pool for CPU allocation                                     F
 DBCSR| Number of 3D layers                                               SINGLE
 DBCSR| Use MPI memory allocation                                              F
 DBCSR| Use RMA algorithm                                                      F
 DBCSR| Use Communication thread                                               T
 DBCSR| Communication thread load                                             87
 DBCSR| MPI: My node id                                                        0
 DBCSR| MPI: Number of nodes                                                  36
 DBCSR| OMP: Current number of threads                                         1
 DBCSR| OMP: Max number of threads                                             1
 DBCSR| Split modifier for TAS multiplication algorithm                  1.0E+00


  **** **** ******  **  PROGRAM STARTED AT               2022-05-12 17:16:03.654
 ***** ** ***  *** **   PROGRAM STARTED ON                               tcopt10
 **    ****   ******    PROGRAM STARTED BY                                hutter
 ***** **    ** ** **   PROGRAM PROCESS ID                                 87518
  **** **  *******  **  PROGRAM STARTED IN /data/hutter/GITHUB/BASIS/scMOLOPT/PB
                                           E/Sc

 CP2K| version string:                   CP2K version 10.0 (Development Version)
 CP2K| source code revision number:                                  git:13fcfd8
 CP2K| cp2kflags: omp libint fftw3 libxc elpa parallel mpi3 scalapack cosma xsmm
 CP2K|             spglib sirius libvori libbqb
 CP2K| is freely available from                            https://www.cp2k.org/
 CP2K| Program compiled at                      Tue 10 May 2022 02:27:21 PM CEST
 CP2K| Program compiled on                                               tcopt10
 CP2K| Program compiled for                                                local
 CP2K| Data directory path                   /data/hutter/GITHUB/TDLRI/cp2k/data
 CP2K| Input file name                                             ScCl3-ref.inp

 GLOBAL| Force Environment number                                              1
 GLOBAL| Basis set file name                                        ../def2QZVPP
 GLOBAL| Potential file name                                        ../POTENTIAL
 GLOBAL| MM Potential file name                                     MM_POTENTIAL
 GLOBAL| Coordinate file name                                      __STD_INPUT__
 GLOBAL| Method name                                                        CP2K
 GLOBAL| Project name                                                   refScCl3
 GLOBAL| Run type                                                         ENERGY
 GLOBAL| FFT library                                                       FFTW3
 GLOBAL| Diagonalization library                                       ScaLAPACK
 GLOBAL| Orthonormality check for eigenvectors                          DISABLED
 GLOBAL| Matrix multiplication library                                     COSMA
 GLOBAL| All-to-all communication in single precision                          F
 GLOBAL| FFTs using library dependent lengths                                  F
 GLOBAL| Grid backend                                                       AUTO
 GLOBAL| Global print level                                                  LOW
 GLOBAL| MPI I/O enabled                                                       T
 GLOBAL| Total number of message passing processes                            36
 GLOBAL| Number of threads for this process                                    1
 GLOBAL| This output is from process                                           0
 GLOBAL| Stack size for threads created by OpenMP (OMP_STACKSIZE)        default
 GLOBAL| CPU model name                          AMD EPYC 7401 24-Core Processor
 GLOBAL| CPUID                                                              1002

 MEMORY| system memory details [Kb]
 MEMORY|                        rank 0           min           max       average
 MEMORY| MemTotal            263969136     263969136     263969136     263969136
 MEMORY| MemFree             238881224     238881224     238881224     238881224
 MEMORY| Buffers                   136           136           136           136
 MEMORY| Cached               18970488      18970488      18970488      18970488
 MEMORY| Slab                  1425956       1425956       1425956       1425956
 MEMORY| SReclaimable           871860        871860        871860        871860
 MEMORY| MemLikelyFree       258723708     258723708     258723708     258723708


 GENERATE|  Preliminary Number of Bonds generated:                             0
 GENERATE|  Achieved consistency in connectivity generation.

 *******************************************************************************
 *******************************************************************************
 **                                                                           **
 **     #####                         ##              ##                      **
 **    ##   ##            ##          ##              ##                      **
 **   ##     ##                       ##            ######                    **
 **   ##     ##  ##   ##  ##   #####  ##  ##   ####   ##    #####    #####    **
 **   ##     ##  ##   ##  ##  ##      ## ##   ##      ##   ##   ##  ##   ##   **
 **   ##  ## ##  ##   ##  ##  ##      ####     ###    ##   ######   ######    **
 **    ##  ###   ##   ##  ##  ##      ## ##      ##   ##   ##       ##        **
 **     #######   #####   ##   #####  ##  ##  ####    ##    #####   ##        **
 **           ##                                                    ##        **
 **                                                                           **
 **                                                ... make the atoms dance   **
 **                                                                           **
 **            Copyright (C) by CP2K developers group (2000-2022)             **
 **                      J. Chem. Phys. 152, 194103 (2020)                    **
 **                                                                           **
 *******************************************************************************


 TOTAL NUMBERS AND MAXIMUM NUMBERS

  Total number of            - Atomic kinds:                                   2
                             - Atoms:                                          4
                             - Shell sets:                                    93
                             - Shells:                                        93
                             - Primitive Cartesian functions:                179
                             - Cartesian basis functions:                    377
                             - Spherical basis functions:                    303

  Maximum angular momentum of the orbital basis functions:                     4


 SCF PARAMETERS         Density guess:                                    ATOMIC
                        --------------------------------------------------------
                        max_scf:                                              20
                        max_scf_history:                                       0
                        max_diis:                                              4
                        --------------------------------------------------------
                        eps_scf:                                        1.00E-07
                        eps_scf_history:                                0.00E+00
                        eps_diis:                                       1.00E-01
                        eps_eigval:                                     1.00E-05
                        --------------------------------------------------------
                        level_shift [a.u.]:                             0.000000
                        --------------------------------------------------------
                        Outer loop SCF in use 
                        No variables optimised in outer loop
                        eps_scf                                         1.00E-07
                        max_scf                                                5
                        No outer loop optimization
                        step_size                                       5.00E-01

 Number of electrons:                                                         72
 Number of occupied orbitals:                                                 36
 Number of molecular orbitals:                                                36

 Number of orbital functions:                                                303
 Number of independent orbital functions:                                    303

 Extrapolation method: initial_guess


 SCF WAVEFUNCTION OPTIMIZATION

  ----------------------------------- OT ---------------------------------------
  Minimizer      : DIIS                : direct inversion
                                         in the iterative subspace
                                         using   7 DIIS vectors
                                         safer DIIS on
  Preconditioner : FULL_ALL            : diagonalization, state selective
  Precond_solver : DEFAULT
  stepsize       :    0.10000000                  energy_gap     :    0.08000000
  eps_taylor     :   0.10000E-15                  max_taylor     :             4
  ----------------------------------- OT ---------------------------------------

  Step     Update method      Time    Convergence         Total energy    Change
  ------------------------------------------------------------------------------
     1 OT DIIS     0.10E+00    1.1     0.19904577     -2092.3260235357 -2.09E+03
     2 OT DIIS     0.10E+00    1.2     0.11265643     -2127.0592413099 -3.47E+01
     3 OT DIIS     0.10E+00    1.2     0.06998450     -2135.7468344000 -8.69E+00
     4 OT DIIS     0.10E+00    1.2     0.02425540     -2138.2589910131 -2.51E+00
     5 OT DIIS     0.10E+00    1.2     0.01793042     -2139.0063741329 -7.47E-01
     6 OT DIIS     0.10E+00    1.2     0.00874951     -2139.3173606875 -3.11E-01
     7 OT DIIS     0.10E+00    1.2     0.00915857     -2139.4532848742 -1.36E-01
     8 OT DIIS     0.10E+00    1.2     0.00814868     -2139.6198457092 -1.67E-01
     9 OT DIIS     0.10E+00    1.2     0.00552014     -2139.8792636657 -2.59E-01
    10 OT DIIS     0.10E+00    1.2     0.00514554     -2140.1026228085 -2.23E-01
    11 OT DIIS     0.10E+00    1.2     0.00364315     -2140.1896460018 -8.70E-02
    12 OT DIIS     0.10E+00    1.2     0.00354193     -2140.2097906816 -2.01E-02
    13 OT DIIS     0.10E+00    1.2     0.00464073     -2140.2968533358 -8.71E-02
    14 OT SD       0.10E+00    1.2     0.00448990     -2140.3149427815 -1.81E-02
    15 OT DIIS     0.10E+00    1.2     0.00292806     -2140.3312729558 -1.63E-02
    16 OT DIIS     0.10E+00    1.2     0.00282022     -2140.4157511967 -8.45E-02
    17 OT DIIS     0.10E+00    1.2     0.00373566     -2140.4422445041 -2.65E-02
    18 OT DIIS     0.10E+00    1.2     0.00429525     -2140.4306981066  1.15E-02
    19 OT SD       0.10E+00    1.2     0.00238931     -2140.4607814938 -3.01E-02
    20 OT DIIS     0.10E+00    1.2     0.00219844     -2140.4666123668 -5.83E-03

  Leaving inner SCF loop after reaching    20 steps.


  Electronic density on regular grids:        -36.6773036199       35.3226963801
  Core density on regular grids:               72.0000000000        0.0000000000
  Hard and soft densities (Lebedev):          -79.3749416522      -44.0522450315
  Total Rho_soft + Rho1_hard - Rho1_soft      -72.0000002407
  Total charge density (r-space):              -0.0000002407
  Total Rho_soft + Rho0_soft (g-space):        -0.0000003551

  Overlap energy of the core charge distribution:               0.00000000000461
  Self energy of the core charge distribution:               -919.65404067656993
  Core Hamiltonian energy:                                  -1250.35616046459450
  Hartree energy:                                             159.77865275228129
  Exchange-correlation energy:                                -18.67036223648732

  GAPW| Exc from hard and soft atomic rho1:                  -104.26621448697219
  GAPW| local Eh = 1 center integrals:                         -7.29848725441808

  Total energy:                                             -2140.46661236675618

  outer SCF iter =    1 RMS gradient =   0.22E-02 energy =      -2140.4666123668

  ----------------------------------- OT ---------------------------------------
  Minimizer      : DIIS                : direct inversion
                                         in the iterative subspace
                                         using   7 DIIS vectors
                                         safer DIIS on
  Preconditioner : FULL_ALL            : diagonalization, state selective
  Precond_solver : DEFAULT
  stepsize       :    0.10000000                  energy_gap     :    0.08000000
  eps_taylor     :   0.10000E-15                  max_taylor     :             4
  ----------------------------------- OT ---------------------------------------

  Step     Update method      Time    Convergence         Total energy    Change
  ------------------------------------------------------------------------------
     1 OT DIIS     0.10E+00    2.3     0.01812203     -2140.5159144617 -4.93E-02
     2 OT DIIS     0.10E+00    1.2     0.01343398     -2140.7524172064 -2.37E-01
     3 OT DIIS     0.10E+00    1.2     0.00682189     -2140.8404085126 -8.80E-02
     4 OT DIIS     0.10E+00    1.2     0.00364187     -2140.8715681062 -3.12E-02
     5 OT DIIS     0.10E+00    1.2     0.00238929     -2140.8756895095 -4.12E-03
     6 OT DIIS     0.10E+00    1.2     0.00137019     -2140.8798274272 -4.14E-03
     7 OT DIIS     0.10E+00    1.1     0.00042025     -2140.8805494962 -7.22E-04
     8 OT DIIS     0.10E+00    1.2     0.00018730     -2140.8806941373 -1.45E-04
     9 OT DIIS     0.10E+00    1.2     0.00005329     -2140.8807256070 -3.15E-05
    10 OT DIIS     0.10E+00    1.2     0.00001809     -2140.8807290692 -3.46E-06
    11 OT DIIS     0.10E+00    1.2     0.00000882     -2140.8807294995 -4.30E-07
    12 OT DIIS     0.10E+00    1.2     0.00000335     -2140.8807295804 -8.09E-08
    13 OT DIIS     0.10E+00    1.2     0.00000138     -2140.8807295961 -1.57E-08
    14 OT DIIS     0.10E+00    1.2     0.00000046     -2140.8807295986 -2.51E-09
    15 OT DIIS     0.10E+00    1.2     0.00000018     -2140.8807295992 -5.43E-10
    16 OT DIIS     0.10E+00    1.2     0.00000008     -2140.8807295993 -1.15E-10

  *** SCF run converged in    16 steps ***


  Electronic density on regular grids:        -36.6759466661       35.3240533339
  Core density on regular grids:               72.0000000000        0.0000000000
  Hard and soft densities (Lebedev):          -79.9682064933      -44.6441531408
  Total Rho_soft + Rho1_hard - Rho1_soft      -72.0000000187
  Total charge density (r-space):              -0.0000000187
  Total Rho_soft + Rho0_soft (g-space):        -0.0000001332

  Overlap energy of the core charge distribution:               0.00000000000461
  Self energy of the core charge distribution:               -919.65404067656993
  Core Hamiltonian energy:                                  -1250.71749542284761
  Hartree energy:                                             159.87025551462511
  Exchange-correlation energy:                                -18.77006771087937

  GAPW| Exc from hard and soft atomic rho1:                  -104.26999343116695
  GAPW| local Eh = 1 center integrals:                         -7.33938787246214

  Total energy:                                             -2140.88072959929605

  outer SCF iter =    2 RMS gradient =   0.76E-07 energy =      -2140.8807295993
  outer SCF loop converged in   2 iterations or   36 steps


 ENERGY| Total FORCE_EVAL ( QS ) energy [a.u.]:            -2140.880729599296046

 -------------------------------------------------------------------------------
 -                                                                             -
 -                                DBCSR STATISTICS                             -
 -                                                                             -
 -------------------------------------------------------------------------------
 COUNTER                                    TOTAL       BLAS       SMM       ACC
 flops     4 x     4 x     4                39936       0.0%    100.0%      0.0%
 flops     4 x     4 x    32               319488       0.0%    100.0%      0.0%
 flops     4 x    32 x     4               319488       0.0%    100.0%      0.0%
 flops    32 x     4 x     4               319488       0.0%    100.0%      0.0%
 flops     4 x     4 x    93               434496       0.0%    100.0%      0.0%
 flops    93 x     4 x     4               541632       0.0%    100.0%      0.0%
 flops     4 x     4 x    70               981120       0.0%    100.0%      0.0%
 flops    70 x     4 x     4              1223040       0.0%    100.0%      0.0%
 flops    93 x    70 x     4              1926960       0.0%    100.0%      0.0%
 flops    32 x    32 x     4              2555904       0.0%    100.0%      0.0%
 flops     4 x    32 x    32              2555904       0.0%    100.0%      0.0%
 flops    32 x     4 x    32              2555904       0.0%    100.0%      0.0%
 flops    93 x    93 x     4              2560104       0.0%    100.0%      0.0%
 flops     4 x    32 x    93              3475968       0.0%    100.0%      0.0%
 flops    32 x     4 x    93              3475968       0.0%    100.0%      0.0%
 flops    70 x    93 x     4              3853920       0.0%    100.0%      0.0%
 flops    93 x    32 x     4              4285440       0.0%    100.0%      0.0%
 flops    93 x     4 x    32              4285440       0.0%    100.0%      0.0%
 flops     4 x    32 x    70              7848960       0.0%    100.0%      0.0%
 flops    32 x     4 x    70              7848960       0.0%    100.0%      0.0%
 flops    70 x    70 x     4              8702400       0.0%    100.0%      0.0%
 flops    70 x     4 x    32              9676800       0.0%    100.0%      0.0%
 flops    70 x    32 x     4              9676800       0.0%    100.0%      0.0%
 flops    93 x     4 x    93             11209104       0.0%    100.0%      0.0%
 flops    93 x    70 x    32             15415680       0.0%    100.0%      0.0%
 flops    32 x    32 x    32             20447232       0.0%    100.0%      0.0%
 flops    93 x    93 x    32             20480832       0.0%    100.0%      0.0%
 flops    70 x     4 x    93             25310880       0.0%    100.0%      0.0%
 flops    93 x     4 x    70             25310880       0.0%    100.0%      0.0%
 flops    32 x    32 x    93             27807744       0.0%    100.0%      0.0%
 flops    70 x    93 x    32             30831360       0.0%    100.0%      0.0%
 flops    93 x    32 x    32             34664448       0.0%    100.0%      0.0%
 flops    70 x     4 x    70             57153600       0.0%    100.0%      0.0%
 flops    32 x    32 x    70             62791680       0.0%    100.0%      0.0%
 flops    70 x    70 x    32             69619200       0.0%    100.0%      0.0%
 flops    70 x    32 x    32             78274560       0.0%    100.0%      0.0%
 flops    93 x    32 x    93             89672832       0.0%    100.0%      0.0%
 flops    93 x    32 x    70            202487040       0.0%    100.0%      0.0%
 flops    70 x    32 x    93            202487040       0.0%    100.0%      0.0%
 flops    70 x    32 x    70            457228800       0.0%    100.0%      0.0%
 flops inhomo. stacks                           0       0.0%      0.0%      0.0%
 flops total                         1.510657E+09       0.0%    100.0%      0.0%
 flops max/rank                    467.753256E+06       0.0%    100.0%      0.0%
 matmuls inhomo. stacks                         0       0.0%      0.0%      0.0%
 matmuls total                              13652       0.0%    100.0%      0.0%
 number of processed stacks                 13652       0.0%    100.0%      0.0%
 average stack size                                     0.0       1.0       0.0
 marketing flops                     1.603723E+09
 -------------------------------------------------------------------------------
 # multiplications                            841
 max memory usage/rank             486.543360E+06
 # max total images/rank                        1
 # max 3D layers                                1
 # MPI messages exchanged                  302760
 MPI messages size (bytes):
  total size                       946.472064E+06
  min size                           0.000000E+00
  max size                          69.192000E+03
  average size                       3.126146E+03
 MPI breakdown and total messages size (bytes):
             size <=      128              249330                   515840
       128 < size <=     8192               26270                 75667520
      8192 < size <=    32768               14200                275366400
     32768 < size <=   131072               12960                594922320
    131072 < size <=  4194304                   0                        0
   4194304 < size <= 16777216                   0                        0
  16777216 < size                               0                        0
 -------------------------------------------------------------------------------
 -                                                                             -
 -                      DBCSR MESSAGE PASSING PERFORMANCE                      -
 -                                                                             -
 -------------------------------------------------------------------------------
 ROUTINE             CALLS      AVE VOLUME [Bytes]
 MP_Bcast               41                     12.
 MP_Allreduce         4557                      8.
 MP_Alltoall          3089                   4230.
 MP_ISend            20176                   4321.
 MP_IRecv            20176                   2600.
 -------------------------------------------------------------------------------

 -------------------------------------------------------------------------------
 -                                                                             -
 -                                GRID STATISTICS                              -
 -                                                                             -
 -------------------------------------------------------------------------------
 LP    KERNEL             BACKEND                              COUNT     PERCENT
 2     collocate ortho    REF                                  66156      12.13%
 2     integrate ortho    REF                                  64368      11.81%
 3     collocate ortho    REF                                  58053      10.65%
 3     integrate ortho    REF                                  56484      10.36%
 1     collocate ortho    REF                                  51208       9.39%
 1     integrate ortho    REF                                  49824       9.14%
 4     collocate ortho    REF                                  41144       7.55%
 4     integrate ortho    REF                                  40032       7.34%
 5     collocate ortho    REF                                  23791       4.36%
 5     integrate ortho    REF                                  23148       4.25%
 0     collocate ortho    REF                                  18056       3.31%
 0     integrate ortho    REF                                  17568       3.22%
 6     collocate ortho    REF                                   9065       1.66%
 6     integrate ortho    REF                                   8820       1.62%
 2     collocate general  REF                                   5184       0.95%
 2     integrate general  REF                                   5184       0.95%
 7     collocate ortho    REF                                   2775       0.51%
 7     integrate ortho    REF                                   2700       0.50%
 8     collocate ortho    REF                                    851       0.16%
 8     integrate ortho    REF                                    828       0.15%
 -------------------------------------------------------------------------------

 MEMORY| Estimated peak process memory [MiB]                                 465

 -------------------------------------------------------------------------------
 -                                                                             -
 -                         MESSAGE PASSING PERFORMANCE                         -
 -                                                                             -
 -------------------------------------------------------------------------------

 ROUTINE             CALLS      AVE VOLUME [Bytes]
 MP_Group                4
 MP_Bcast             1173                 184520.
 MP_Allreduce         3255                 273214.
 MP_Sync                88
 MP_Alltoall           738                6500850.
 MP_ISendRecv         7665                 115968.
 MP_Wait             13900
 MP_comm_split          42
 MP_ISend             5800                 291600.
 MP_IRecv             5800                 291600.
 MP_Recv                10                  14544.
 -------------------------------------------------------------------------------


 -------------------------------------------------------------------------------
 -                                                                             -
 -                           R E F E R E N C E S                               -
 -                                                                             -
 -------------------------------------------------------------------------------
 
 CP2K version 10.0 (Development Version), the CP2K developers group (2022).
 CP2K is freely available from https://www.cp2k.org/ .

 Kuehne,Thomas D.; Iannuzzi,Marcella; Del Ben,Mauro;
 Rybkin,Vladimir V.; Seewald,Patrick; Stein,Frederick; Laino,Teodoro;
 Khaliullin,Rustam Z.; Schuett,Ole; Schiffmann,Florian; Golze,Dorothea;
 Wilhelm,Jan; Chulkov,Sergey; Bani-Hashemian,Mohammad Hossein;
 Weber,Valery; Borstnik,Urban; Taillefumier,Mathieu;
 Jakobovits,Alice Shoshana; Lazzaro,Alfio; Pabst,Hans; Mueller,Tiziano;
 Schade,Robert; Guidon,Manuel; Andermatt,Samuel; Holmberg,Nico;
 Schenter,Gregory K.; Hehn,Anna; Bussy,Augustin; Belleflamme,Fabian;
 Tabacchi,Gloria; Gloess,Andreas; Lass,Michael; Bethune,Iain;
 Mundy,Christopher J.; Plessl,Christian; Watkins,Matt;
 VandeVondele,Joost; Krack,Matthias; Hutter,Juerg. 
 The Journal of Chemical Physics, 152 (19), (2020). 
 CP2K: An electronic structure and molecular dynamics software package -
 Quickstep: Efficient and accurate electronic structure calculations.
 https://doi.org/10.1063/5.0007045

 Schuett, Ole; Messmer, Peter; Hutter, Juerg; VandeVondele, Joost. 
 Electronic Structure Calculations on Graphics Processing Units, John
 Wiley & Sons, Ltd, 173-190 (2016). 
 GPU-Accelerated Sparse Matrix-Matrix Multiplication for
 Linear Scaling Density Functional Theory.
 https://doi.org/10.1002/9781118670712.ch8

 Heinecke, A; Henry, G; Hutchinson, M; Pabst, H. 
 Proceedings of Intl. Supercomputing Conference, 981-991 (2016). 
 LIBXSMM: Accelerating Small Matrix Multiplications
 by Runtime Code Generation.
 https://doi.org/10.1109/SC.2016.83

 Borstnik, U; VandeVondele, J; Weber, V; Hutter, J. 
 PARALLEL COMPUTING, 40 (5-6), 47-58 (2014). 
 Sparse matrix multiplication: The distributed block-compressed sparse
 row library.
 https://doi.org/10.1016/j.parco.2014.03.012

 Hutter, J; Iannuzzi, M; Schiffmann, F; VandeVondele, J. 
 WIREs Comput Mol Sci., 4 (1), 15-25 (2014). 
 CP2K: atomistic simulations of condensed matter systems.
 https://doi.org/10.1002/wcms.1159

 Frigo, M; Johnson, SG. 
 PROCEEDINGS OF THE IEEE, 93 (2), 216-231 (2005). 
 The design and implementation of FFTW3.
 https://doi.org/10.1109/JPROC.2004.840301

 VandeVondele, J; Hutter, J. 
 JOURNAL OF CHEMICAL PHYSICS, 118 (10), 4365-4369 (2003). 
 An efficient orbital transformation method for electronic structure
 calculations.
 https://doi.org/10.1063/1.1543154

 Lippert, G; Hutter, J; Parrinello, M. 
 THEORETICAL CHEMISTRY ACCOUNTS, 103 (2), 124-140 (1999). 
 The Gaussian and augmented-plane-wave density functional method for ab
 initio molecular dynamics simulations.
 https://doi.org/10.1007/s002140050523

 Krack, M; Parrinello, M. 
 PHYSICAL CHEMISTRY CHEMICAL PHYSICS, 2 (10), 2105-2112 (2000). 
 All-electron ab-initio molecular dynamics.
 https://doi.org/10.1039/b001167n

 Perdew, JP; Burke, K; Ernzerhof, M. 
 PHYSICAL REVIEW LETTERS, 77 (18), 3865-3868 (1996). 
 Generalized gradient approximation made simple.
 https://doi.org/10.1103/PhysRevLett.77.3865


 -------------------------------------------------------------------------------
 -                                                                             -
 -                                T I M I N G                                  -
 -                                                                             -
 -------------------------------------------------------------------------------
 SUBROUTINE                       CALLS  ASD         SELF TIME        TOTAL TIME
                                MAXIMUM       AVERAGE  MAXIMUM  AVERAGE  MAXIMUM
 CP2K                                 1  1.0    0.011    0.034   43.046   43.047
 qs_energies                          1  2.0    0.000    0.000   42.761   42.762
 scf_env_do_scf                       1  3.0    0.000    0.000   41.957   41.958
 scf_env_do_scf_inner_loop           36  4.0    0.001    0.002   39.894   39.895
 qs_ks_update_qs_env                 38  5.0    0.000    0.001   35.655   35.660
 rebuild_ks_matrix                   36  6.0    0.000    0.000   35.647   35.651
 qs_ks_build_kohn_sham_matrix        36  7.0    0.007    0.009   35.647   35.651
 prepare_gapw_den                    36  8.0    0.001    0.001   11.147   11.191
 pw_transfer                        761 10.1    0.077    0.092    8.887    9.139
 fft_wrap_pw1pw2                    653 11.3    0.009    0.010    8.727    8.981
 fft_wrap_pw1pw2_300                434 12.7    0.605    0.673    8.203    8.437
 qs_vxc_create                       36  8.0    0.001    0.001    7.809    7.810
 xc_vxc_pw_create                    36  9.0    0.058    0.069    7.808    7.809
 mp_sum_d                          1616  8.0    7.184    7.632    7.184    7.632
 fft3d_ps                           653 13.3    3.524    3.985    6.651    6.983
 rs_pw_transfer                     364  9.5    0.008    0.009    5.799    5.919
 calculate_vxc_atom                  36  8.0    0.026    0.283    5.878    5.878
 calculate_rho_atom                  72  9.0    1.887    5.573    1.887    5.573
 gaVxcgb_GC                          72  9.0    0.250    5.458    0.250    5.458
 qs_rho_update_rho                   37  5.0    0.001    0.001    5.406    5.412
 calculate_rho0_atom                 72  9.0    4.555    5.327    4.555    5.327
 xc_pw_derive                       216 11.0    0.002    0.003    4.567    4.775
 xc_rho_set_and_dset_create          36 10.0    0.057    0.071    4.484    4.646
 calculate_rho_elec                  37  6.0    0.026    0.026    4.580    4.581
 mp_sum_dv                         1462 13.0    2.759    4.031    2.759    4.031
 integrate_vhg0_rspace               36  8.0    0.622    1.099    3.895    3.992
 sum_up_and_integrate                36  8.0    0.018    0.023    3.649    3.656
 integrate_v_rspace                  36  9.0    0.001    0.001    3.631    3.639
 density_rs2pw                       37  7.0    0.002    0.002    3.409    3.564
 xc_pw_divergence                    36 10.0    0.001    0.002    3.086    3.282
 mp_sum_dm                          440  7.7    2.840    3.047    2.840    3.047
 potential_pw2rs                     36 10.0    0.003    0.003    2.930    2.935
 mp_alltoall_z22v                   653 15.3    2.336    2.914    2.336    2.914
 rs_pw_transfer_RS2PW_300            73 10.0    1.288    1.572    2.236    2.406
 rs_pw_transfer_PW2RS_300            72 11.0    1.289    1.502    2.075    2.326
 xc_functional_eval                 180 10.8    0.001    0.001    2.096    2.257
 pbe_lda_eval                       180 11.8    2.095    2.256    2.095    2.256
 init_scf_loop                        2  4.0    0.000    0.000    2.063    2.063
 put_rho0_on_grid                    36  9.0    0.030    0.041    1.955    2.000
 yz_to_x                            328 13.9    0.364    0.466    1.627    1.908
 mp_waitany                        5800 11.5    1.346    1.847    1.346    1.847
 x_to_yz                            325 14.7    0.402    0.465    1.475    1.717
 dbcsr_multiply_generic             841 10.1    0.023    0.024    1.404    1.479
 mp_waitall_1                     61924 14.0    1.112    1.393    1.112    1.393
 Vh_1c_gg_integrals                  36  8.0    0.108    1.182    1.203    1.231
 grid_collocate_task_list            37  7.0    0.968    1.168    0.968    1.168
 qs_scf_new_mos                      36  5.0    0.000    0.000    0.913    0.919
 qs_scf_loop_do_ot                   36  6.0    0.000    0.000    0.913    0.919
 pw_gather_p                        328 12.9    0.732    0.898    0.732    0.898
 update_ks_atom                      36  8.0    0.102    0.727    0.291    0.894
 ot_scf_mini                         36  7.0    0.000    0.001    0.878    0.883
 -------------------------------------------------------------------------------

 The number of warnings for this run is : 0
 
 -------------------------------------------------------------------------------
  **** **** ******  **  PROGRAM ENDED AT                 2022-05-12 17:16:47.079
 ***** ** ***  *** **   PROGRAM RAN ON                                   tcopt10
 **    ****   ******    PROGRAM RAN BY                                    hutter
 ***** **    ** ** **   PROGRAM PROCESS ID                                 87518
  **** **  *******  **  PROGRAM STOPPED IN /data/hutter/GITHUB/BASIS/scMOLOPT/PB
                                           E/Sc
