 DBCSR| CPU Multiplication driver                                           XSMM
 DBCSR| Multrec recursion limit                                              512
 DBCSR| Multiplication stack size                                           1000
 DBCSR| Maximum elements for images                                    UNLIMITED
 DBCSR| Multiplicative factor virtual images                                   1
 DBCSR| Use multiplication densification                                       T
 DBCSR| Multiplication size stacks                                             3
 DBCSR| Use memory pool for CPU allocation                                     F
 DBCSR| Number of 3D layers                                               SINGLE
 DBCSR| Use MPI memory allocation                                              F
 DBCSR| Use RMA algorithm                                                      F
 DBCSR| Use Communication thread                                               T
 DBCSR| Communication thread load                                             87
 DBCSR| MPI: My node id                                                        0
 DBCSR| MPI: Number of nodes                                                  36
 DBCSR| OMP: Current number of threads                                         1
 DBCSR| OMP: Max number of threads                                             1
 DBCSR| Split modifier for TAS multiplication algorithm                  1.0E+00


  **** **** ******  **  PROGRAM STARTED AT               2022-05-12 17:17:04.702
 ***** ** ***  *** **   PROGRAM STARTED ON                               tcopt10
 **    ****   ******    PROGRAM STARTED BY                                hutter
 ***** **    ** ** **   PROGRAM PROCESS ID                                 87722
  **** **  *******  **  PROGRAM STARTED IN /data/hutter/GITHUB/BASIS/scMOLOPT/PB
                                           E/Sc

 CP2K| version string:                   CP2K version 10.0 (Development Version)
 CP2K| source code revision number:                                  git:13fcfd8
 CP2K| cp2kflags: omp libint fftw3 libxc elpa parallel mpi3 scalapack cosma xsmm
 CP2K|             spglib sirius libvori libbqb
 CP2K| is freely available from                            https://www.cp2k.org/
 CP2K| Program compiled at                      Tue 10 May 2022 02:27:21 PM CEST
 CP2K| Program compiled on                                               tcopt10
 CP2K| Program compiled for                                                local
 CP2K| Data directory path                   /data/hutter/GITHUB/TDLRI/cp2k/data
 CP2K| Input file name                                              ScF3-ref.inp

 GLOBAL| Force Environment number                                              1
 GLOBAL| Basis set file name                                        ../def2QZVPP
 GLOBAL| Potential file name                                        ../POTENTIAL
 GLOBAL| MM Potential file name                                     MM_POTENTIAL
 GLOBAL| Coordinate file name                                      __STD_INPUT__
 GLOBAL| Method name                                                        CP2K
 GLOBAL| Project name                                                    refScF3
 GLOBAL| Run type                                                         ENERGY
 GLOBAL| FFT library                                                       FFTW3
 GLOBAL| Diagonalization library                                       ScaLAPACK
 GLOBAL| Orthonormality check for eigenvectors                          DISABLED
 GLOBAL| Matrix multiplication library                                     COSMA
 GLOBAL| All-to-all communication in single precision                          F
 GLOBAL| FFTs using library dependent lengths                                  F
 GLOBAL| Grid backend                                                       AUTO
 GLOBAL| Global print level                                                  LOW
 GLOBAL| MPI I/O enabled                                                       T
 GLOBAL| Total number of message passing processes                            36
 GLOBAL| Number of threads for this process                                    1
 GLOBAL| This output is from process                                           0
 GLOBAL| Stack size for threads created by OpenMP (OMP_STACKSIZE)        default
 GLOBAL| CPU model name                          AMD EPYC 7401 24-Core Processor
 GLOBAL| CPUID                                                              1002

 MEMORY| system memory details [Kb]
 MEMORY|                        rank 0           min           max       average
 MEMORY| MemTotal            263969136     263969136     263969136     263969136
 MEMORY| MemFree             238851124     238851124     238851124     238851124
 MEMORY| Buffers                   136           136           136           136
 MEMORY| Cached               18970436      18970436      18970436      18970436
 MEMORY| Slab                  1424392       1424392       1424392       1424392
 MEMORY| SReclaimable           871856        871856        871856        871856
 MEMORY| MemLikelyFree       258693552     258693552     258693552     258693552


 GENERATE|  Preliminary Number of Bonds generated:                             0
 GENERATE|  Achieved consistency in connectivity generation.

 *******************************************************************************
 *******************************************************************************
 **                                                                           **
 **     #####                         ##              ##                      **
 **    ##   ##            ##          ##              ##                      **
 **   ##     ##                       ##            ######                    **
 **   ##     ##  ##   ##  ##   #####  ##  ##   ####   ##    #####    #####    **
 **   ##     ##  ##   ##  ##  ##      ## ##   ##      ##   ##   ##  ##   ##   **
 **   ##  ## ##  ##   ##  ##  ##      ####     ###    ##   ######   ######    **
 **    ##  ###   ##   ##  ##  ##      ## ##      ##   ##   ##       ##        **
 **     #######   #####   ##   #####  ##  ##  ####    ##    #####   ##        **
 **           ##                                                    ##        **
 **                                                                           **
 **                                                ... make the atoms dance   **
 **                                                                           **
 **            Copyright (C) by CP2K developers group (2000-2022)             **
 **                      J. Chem. Phys. 152, 194103 (2020)                    **
 **                                                                           **
 *******************************************************************************


 TOTAL NUMBERS AND MAXIMUM NUMBERS

  Total number of            - Atomic kinds:                                   2
                             - Atoms:                                          4
                             - Shell sets:                                    78
                             - Shells:                                        78
                             - Primitive Cartesian functions:                143
                             - Cartesian basis functions:                    335
                             - Spherical basis functions:                    264

  Maximum angular momentum of the orbital basis functions:                     4


 SCF PARAMETERS         Density guess:                                    ATOMIC
                        --------------------------------------------------------
                        max_scf:                                              20
                        max_scf_history:                                       0
                        max_diis:                                              4
                        --------------------------------------------------------
                        eps_scf:                                        1.00E-07
                        eps_scf_history:                                0.00E+00
                        eps_diis:                                       1.00E-01
                        eps_eigval:                                     1.00E-05
                        --------------------------------------------------------
                        level_shift [a.u.]:                             0.000000
                        --------------------------------------------------------
                        Outer loop SCF in use 
                        No variables optimised in outer loop
                        eps_scf                                         1.00E-07
                        max_scf                                                5
                        No outer loop optimization
                        step_size                                       5.00E-01

 Number of electrons:                                                         48
 Number of occupied orbitals:                                                 24
 Number of molecular orbitals:                                                24

 Number of orbital functions:                                                264
 Number of independent orbital functions:                                    264

 Extrapolation method: initial_guess


 SCF WAVEFUNCTION OPTIMIZATION

  ----------------------------------- OT ---------------------------------------
  Minimizer      : DIIS                : direct inversion
                                         in the iterative subspace
                                         using   7 DIIS vectors
                                         safer DIIS on
  Preconditioner : FULL_ALL            : diagonalization, state selective
  Precond_solver : DEFAULT
  stepsize       :    0.10000000                  energy_gap     :    0.08000000
  eps_taylor     :   0.10000E-15                  max_taylor     :             4
  ----------------------------------- OT ---------------------------------------

  Step     Update method      Time    Convergence         Total energy    Change
  ------------------------------------------------------------------------------
     1 OT DIIS     0.10E+00    0.9     0.29516092      -999.6656976661 -1.00E+03
     2 OT DIIS     0.10E+00    1.1     0.16540560     -1043.6152470450 -4.39E+01
     3 OT DIIS     0.10E+00    1.1     0.07529096     -1055.4571962236 -1.18E+01
     4 OT DIIS     0.10E+00    1.1     0.02136430     -1057.5470054426 -2.09E+00
     5 OT DIIS     0.10E+00    1.0     0.01789625     -1057.9661513446 -4.19E-01
     6 OT DIIS     0.10E+00    1.0     0.02549487     -1058.1329462701 -1.67E-01
     7 OT SD       0.10E+00    1.1     0.00882383     -1058.7208839122 -5.88E-01
     8 OT DIIS     0.10E+00    1.0     0.00800724     -1058.7673339630 -4.65E-02
     9 OT DIIS     0.10E+00    1.0     0.00739877     -1058.9919309411 -2.25E-01
    10 OT DIIS     0.10E+00    1.1     0.00583448     -1059.1137130407 -1.22E-01
    11 OT DIIS     0.10E+00    1.0     0.00513552     -1059.2190296273 -1.05E-01
    12 OT DIIS     0.10E+00    1.0     0.00604303     -1059.2498660077 -3.08E-02
    13 OT DIIS     0.10E+00    1.1     0.00431554     -1059.3451695773 -9.53E-02
    14 OT SD       0.10E+00    1.0     0.00559460     -1059.4130790503 -6.79E-02
    15 OT DIIS     0.10E+00    1.0     0.00382483     -1059.4285910623 -1.55E-02
    16 OT DIIS     0.10E+00    1.0     0.00379746     -1059.5037671412 -7.52E-02
    17 OT DIIS     0.10E+00    1.0     0.00352747     -1059.5419682315 -3.82E-02
    18 OT SD       0.10E+00    1.1     0.00414264     -1059.5869279990 -4.50E-02
    19 OT DIIS     0.10E+00    1.0     0.00306816     -1059.5957653869 -8.84E-03
    20 OT DIIS     0.10E+00    1.1     0.00290544     -1059.6867276235 -9.10E-02

  Leaving inner SCF loop after reaching    20 steps.


  Electronic density on regular grids:        -32.0970519472       15.9029480528
  Core density on regular grids:               48.0000000000        0.0000000000
  Hard and soft densities (Lebedev):          -65.7807754590      -49.8778256625
  Total Rho_soft + Rho1_hard - Rho1_soft      -48.0000017436
  Total charge density (r-space):              -0.0000017436
  Total Rho_soft + Rho0_soft (g-space):        -0.0000013893

  Overlap energy of the core charge distribution:               0.00000000000083
  Self energy of the core charge distribution:               -636.81693054083678
  Core Hamiltonian energy:                                   -467.87272306155052
  Hartree energy:                                             102.89589076223822
  Exchange-correlation energy:                                -19.87859487281850

  GAPW| Exc from hard and soft atomic rho1:                   -49.89318949663935
  GAPW| local Eh = 1 center integrals:                         11.87881958611151

  Total energy:                                             -1059.68672762349456

  outer SCF iter =    1 RMS gradient =   0.29E-02 energy =      -1059.6867276235

  ----------------------------------- OT ---------------------------------------
  Minimizer      : DIIS                : direct inversion
                                         in the iterative subspace
                                         using   7 DIIS vectors
                                         safer DIIS on
  Preconditioner : FULL_ALL            : diagonalization, state selective
  Precond_solver : DEFAULT
  stepsize       :    0.10000000                  energy_gap     :    0.08000000
  eps_taylor     :   0.10000E-15                  max_taylor     :             4
  ----------------------------------- OT ---------------------------------------

  Step     Update method      Time    Convergence         Total energy    Change
  ------------------------------------------------------------------------------
     1 OT DIIS     0.10E+00    2.1     0.03206716     -1059.7069664530 -2.02E-02
     2 OT DIIS     0.10E+00    1.0     0.01801828     -1060.0765578856 -3.70E-01
     3 OT DIIS     0.10E+00    1.0     0.00711155     -1060.1563264090 -7.98E-02
     4 OT DIIS     0.10E+00    1.0     0.00334353     -1060.1691142874 -1.28E-02
     5 OT DIIS     0.10E+00    1.1     0.00187279     -1060.1724619135 -3.35E-03
     6 OT DIIS     0.10E+00    1.0     0.00066460     -1060.1736996228 -1.24E-03
     7 OT DIIS     0.10E+00    1.0     0.00037756     -1060.1739329414 -2.33E-04
     8 OT DIIS     0.10E+00    1.0     0.00024610     -1060.1739580638 -2.51E-05
     9 OT DIIS     0.10E+00    1.0     0.00004484     -1060.1739712966 -1.32E-05
    10 OT DIIS     0.10E+00    1.0     0.00001604     -1060.1739724147 -1.12E-06
    11 OT DIIS     0.10E+00    1.0     0.00000785     -1060.1739725147 -1.00E-07
    12 OT DIIS     0.10E+00    1.0     0.00000363     -1060.1739725430 -2.83E-08
    13 OT DIIS     0.10E+00    1.0     0.00000181     -1060.1739725509 -7.96E-09
    14 OT DIIS     0.10E+00    1.0     0.00000070     -1060.1739725521 -1.13E-09
    15 OT DIIS     0.10E+00    1.0     0.00000032     -1060.1739725524 -3.41E-10
    16 OT DIIS     0.10E+00    1.0     0.00000015     -1060.1739725528 -4.25E-10
    17 OT DIIS     0.10E+00    1.0     0.00000007     -1060.1739725527  1.35E-10

  *** SCF run converged in    17 steps ***


  Electronic density on regular grids:        -31.9990739731       16.0009260269
  Core density on regular grids:               48.0000000000        0.0000000000
  Hard and soft densities (Lebedev):          -66.6433644162      -50.6424360834
  Total Rho_soft + Rho1_hard - Rho1_soft      -48.0000023059
  Total charge density (r-space):              -0.0000023059
  Total Rho_soft + Rho0_soft (g-space):        -0.0000019509

  Overlap energy of the core charge distribution:               0.00000000000083
  Self energy of the core charge distribution:               -636.81693054083678
  Core Hamiltonian energy:                                   -467.64480271229786
  Hartree energy:                                             102.31495679190567
  Exchange-correlation energy:                                -20.03695281676900

  GAPW| Exc from hard and soft atomic rho1:                   -49.98256677599446
  GAPW| local Eh = 1 center integrals:                         11.99232350130148

  Total energy:                                             -1060.17397255269020

  outer SCF iter =    2 RMS gradient =   0.71E-07 energy =      -1060.1739725527
  outer SCF loop converged in   2 iterations or   37 steps


 ENERGY| Total FORCE_EVAL ( QS ) energy [a.u.]:            -1060.173972552690202

 -------------------------------------------------------------------------------
 -                                                                             -
 -                                DBCSR STATISTICS                             -
 -                                                                             -
 -------------------------------------------------------------------------------
 COUNTER                                    TOTAL       BLAS       SMM       ACC
 flops    24 x    24 x    24              8875008       0.0%    100.0%      0.0%
 flops    93 x    57 x    24              9669024       0.0%    100.0%      0.0%
 flops    93 x    93 x    24             15775776       0.0%    100.0%      0.0%
 flops    24 x    24 x    93             16070400       0.0%    100.0%      0.0%
 flops    57 x    93 x    24             19338048       0.0%    100.0%      0.0%
 flops    93 x    24 x    24             20034432       0.0%    100.0%      0.0%
 flops    24 x    24 x    57             29548800       0.0%    100.0%      0.0%
 flops    57 x    57 x    24             35557056       0.0%    100.0%      0.0%
 flops    57 x    24 x    24             36837504       0.0%    100.0%      0.0%
 flops    93 x    24 x    93             68915232       0.0%    100.0%      0.0%
 flops    93 x    24 x    57            126715104       0.0%    100.0%      0.0%
 flops    57 x    24 x    93            126715104       0.0%    100.0%      0.0%
 flops    57 x    24 x    57            232992288       0.0%    100.0%      0.0%
 flops inhomo. stacks                           0       0.0%      0.0%      0.0%
 flops total                       747.043776E+06       0.0%    100.0%      0.0%
 flops max/rank                    285.934752E+06       0.0%    100.0%      0.0%
 matmuls inhomo. stacks                         0       0.0%      0.0%      0.0%
 matmuls total                               4705       0.0%    100.0%      0.0%
 number of processed stacks                  4705       0.0%    100.0%      0.0%
 average stack size                                     0.0       1.0       0.0
 marketing flops                   794.437632E+06
 -------------------------------------------------------------------------------
 # multiplications                            864
 max memory usage/rank             456.945664E+06
 # max total images/rank                        1
 # max 3D layers                                1
 # MPI messages exchanged                  311040
 MPI messages size (bytes):
  total size                       666.639360E+06
  min size                           0.000000E+00
  max size                          69.192000E+03
  average size                       2.143259E+03
 MPI breakdown and total messages size (bytes):
             size <=      128              279035                        0
       128 < size <=     8192                4145                 19100160
      8192 < size <=    32768               22050                378918000
     32768 < size <=   131072                5810                268621200
    131072 < size <=  4194304                   0                        0
   4194304 < size <= 16777216                   0                        0
  16777216 < size                               0                        0
 -------------------------------------------------------------------------------
 -                                                                             -
 -                      DBCSR MESSAGE PASSING PERFORMANCE                      -
 -                                                                             -
 -------------------------------------------------------------------------------
 ROUTINE             CALLS      AVE VOLUME [Bytes]
 MP_Bcast               14                     12.
 MP_Allreduce         4627                      8.
 MP_Alltoall          3161                   3533.
 MP_ISend            20728                   3181.
 MP_IRecv            20728                   1813.
 -------------------------------------------------------------------------------

 -------------------------------------------------------------------------------
 -                                                                             -
 -                                GRID STATISTICS                              -
 -                                                                             -
 -------------------------------------------------------------------------------
 LP    KERNEL             BACKEND                              COUNT     PERCENT
 2     collocate ortho    REF                                  50806      11.70%
 2     integrate ortho    REF                                  49469      11.39%
 3     collocate ortho    REF                                  45904      10.57%
 3     integrate ortho    REF                                  44696      10.29%
 1     collocate ortho    REF                                  39710       9.14%
 1     integrate ortho    REF                                  38665       8.90%
 4     collocate ortho    REF                                  33060       7.61%
 4     integrate ortho    REF                                  32190       7.41%
 5     collocate ortho    REF                                  19722       4.54%
 5     integrate ortho    REF                                  19203       4.42%
 0     collocate ortho    REF                                  14516       3.34%
 0     integrate ortho    REF                                  14134       3.25%
 6     collocate ortho    REF                                   7866       1.81%
 6     integrate ortho    REF                                   7659       1.76%
 2     collocate general  REF                                   5328       1.23%
 2     integrate general  REF                                   5328       1.23%
 7     collocate ortho    REF                                   2394       0.55%
 7     integrate ortho    REF                                   2331       0.54%
 8     collocate ortho    REF                                    722       0.17%
 8     integrate ortho    REF                                    703       0.16%
 -------------------------------------------------------------------------------

 MEMORY| Estimated peak process memory [MiB]                                 437

 -------------------------------------------------------------------------------
 -                                                                             -
 -                         MESSAGE PASSING PERFORMANCE                         -
 -                                                                             -
 -------------------------------------------------------------------------------

 ROUTINE             CALLS      AVE VOLUME [Bytes]
 MP_Group                4
 MP_Bcast             1186                 175651.
 MP_Allreduce         3287                 190115.
 MP_Sync                90
 MP_Alltoall           758                6524747.
 MP_ISendRecv         7875                 115968.
 MP_Wait             14282
 MP_comm_split          43
 MP_ISend             5960                 291600.
 MP_IRecv             5960                 291600.
 MP_Recv                10                   8448.
 -------------------------------------------------------------------------------


 -------------------------------------------------------------------------------
 -                                                                             -
 -                           R E F E R E N C E S                               -
 -                                                                             -
 -------------------------------------------------------------------------------
 
 CP2K version 10.0 (Development Version), the CP2K developers group (2022).
 CP2K is freely available from https://www.cp2k.org/ .

 Kuehne,Thomas D.; Iannuzzi,Marcella; Del Ben,Mauro;
 Rybkin,Vladimir V.; Seewald,Patrick; Stein,Frederick; Laino,Teodoro;
 Khaliullin,Rustam Z.; Schuett,Ole; Schiffmann,Florian; Golze,Dorothea;
 Wilhelm,Jan; Chulkov,Sergey; Bani-Hashemian,Mohammad Hossein;
 Weber,Valery; Borstnik,Urban; Taillefumier,Mathieu;
 Jakobovits,Alice Shoshana; Lazzaro,Alfio; Pabst,Hans; Mueller,Tiziano;
 Schade,Robert; Guidon,Manuel; Andermatt,Samuel; Holmberg,Nico;
 Schenter,Gregory K.; Hehn,Anna; Bussy,Augustin; Belleflamme,Fabian;
 Tabacchi,Gloria; Gloess,Andreas; Lass,Michael; Bethune,Iain;
 Mundy,Christopher J.; Plessl,Christian; Watkins,Matt;
 VandeVondele,Joost; Krack,Matthias; Hutter,Juerg. 
 The Journal of Chemical Physics, 152 (19), (2020). 
 CP2K: An electronic structure and molecular dynamics software package -
 Quickstep: Efficient and accurate electronic structure calculations.
 https://doi.org/10.1063/5.0007045

 Schuett, Ole; Messmer, Peter; Hutter, Juerg; VandeVondele, Joost. 
 Electronic Structure Calculations on Graphics Processing Units, John
 Wiley & Sons, Ltd, 173-190 (2016). 
 GPU-Accelerated Sparse Matrix-Matrix Multiplication for
 Linear Scaling Density Functional Theory.
 https://doi.org/10.1002/9781118670712.ch8

 Heinecke, A; Henry, G; Hutchinson, M; Pabst, H. 
 Proceedings of Intl. Supercomputing Conference, 981-991 (2016). 
 LIBXSMM: Accelerating Small Matrix Multiplications
 by Runtime Code Generation.
 https://doi.org/10.1109/SC.2016.83

 Borstnik, U; VandeVondele, J; Weber, V; Hutter, J. 
 PARALLEL COMPUTING, 40 (5-6), 47-58 (2014). 
 Sparse matrix multiplication: The distributed block-compressed sparse
 row library.
 https://doi.org/10.1016/j.parco.2014.03.012

 Hutter, J; Iannuzzi, M; Schiffmann, F; VandeVondele, J. 
 WIREs Comput Mol Sci., 4 (1), 15-25 (2014). 
 CP2K: atomistic simulations of condensed matter systems.
 https://doi.org/10.1002/wcms.1159

 Frigo, M; Johnson, SG. 
 PROCEEDINGS OF THE IEEE, 93 (2), 216-231 (2005). 
 The design and implementation of FFTW3.
 https://doi.org/10.1109/JPROC.2004.840301

 VandeVondele, J; Hutter, J. 
 JOURNAL OF CHEMICAL PHYSICS, 118 (10), 4365-4369 (2003). 
 An efficient orbital transformation method for electronic structure
 calculations.
 https://doi.org/10.1063/1.1543154

 Lippert, G; Hutter, J; Parrinello, M. 
 THEORETICAL CHEMISTRY ACCOUNTS, 103 (2), 124-140 (1999). 
 The Gaussian and augmented-plane-wave density functional method for ab
 initio molecular dynamics simulations.
 https://doi.org/10.1007/s002140050523

 Krack, M; Parrinello, M. 
 PHYSICAL CHEMISTRY CHEMICAL PHYSICS, 2 (10), 2105-2112 (2000). 
 All-electron ab-initio molecular dynamics.
 https://doi.org/10.1039/b001167n

 Perdew, JP; Burke, K; Ernzerhof, M. 
 PHYSICAL REVIEW LETTERS, 77 (18), 3865-3868 (1996). 
 Generalized gradient approximation made simple.
 https://doi.org/10.1103/PhysRevLett.77.3865


 -------------------------------------------------------------------------------
 -                                                                             -
 -                                T I M I N G                                  -
 -                                                                             -
 -------------------------------------------------------------------------------
 SUBROUTINE                       CALLS  ASD         SELF TIME        TOTAL TIME
                                MAXIMUM       AVERAGE  MAXIMUM  AVERAGE  MAXIMUM
 CP2K                                 1  1.0    0.010    0.035   39.606   39.608
 qs_energies                          1  2.0    0.000    0.000   39.333   39.335
 scf_env_do_scf                       1  3.0    0.000    0.000   38.570   38.571
 scf_env_do_scf_inner_loop           37  4.0    0.001    0.002   36.765   36.766
 qs_ks_update_qs_env                 39  5.0    0.000    0.001   32.280   32.284
 rebuild_ks_matrix                   37  6.0    0.000    0.000   32.274   32.278
 qs_ks_build_kohn_sham_matrix        37  7.0    0.007    0.009   32.273   32.278
 pw_transfer                        782 10.1    0.079    0.093    9.276    9.657
 fft_wrap_pw1pw2                    671 11.3    0.009    0.010    9.112    9.498
 fft_wrap_pw1pw2_300                446 12.7    0.620    0.693    8.618    8.954
 prepare_gapw_den                    37  8.0    0.001    0.001    8.350    8.391
 qs_vxc_create                       37  8.0    0.001    0.001    8.182    8.183
 xc_vxc_pw_create                    37  9.0    0.060    0.070    8.182    8.182
 fft3d_ps                           671 13.3    3.645    4.352    6.990    7.443
 mp_sum_d                          1640  8.1    6.614    7.010    6.614    7.010
 rs_pw_transfer                     374  9.5    0.008    0.010    5.918    6.124
 qs_rho_update_rho                   38  5.0    0.001    0.001    5.454    5.458
 calculate_vxc_atom                  37  8.0    0.027    0.290    5.207    5.208
 calculate_rho_atom                  74  9.0    1.649    5.159    1.649    5.159
 xc_pw_derive                       222 11.0    0.002    0.003    4.815    5.064
 xc_rho_set_and_dset_create          37 10.0    0.059    0.071    4.785    4.882
 gaVxcgb_GC                          74  9.0    0.189    4.780    0.189    4.780
 calculate_rho_elec                  38  6.0    0.027    0.027    4.766    4.766
 sum_up_and_integrate                37  8.0    0.019    0.025    4.244    4.261
 integrate_v_rspace                  37  9.0    0.001    0.001    4.226    4.240
 density_rs2pw                       38  7.0    0.002    0.002    3.501    3.730
 calculate_rho0_atom                 74  9.0    2.933    3.613    2.933    3.613
 xc_pw_divergence                    37 10.0    0.001    0.002    3.132    3.393
 integrate_vhg0_rspace               37  8.0    0.474    0.843    3.271    3.299
 mp_alltoall_z22v                   671 15.3    2.525    3.269    2.525    3.269
 potential_pw2rs                     37 10.0    0.003    0.003    2.946    2.950
 rs_pw_transfer_RS2PW_300            75 10.0    1.318    1.601    2.281    2.509
 mp_sum_dm                          452  7.7    2.217    2.413    2.217    2.413
 rs_pw_transfer_PW2RS_300            74 11.0    1.329    1.564    2.127    2.407
 mp_sum_dv                         1466 13.0    1.790    2.304    1.790    2.304
 xc_functional_eval                 185 10.8    0.001    0.001    2.157    2.295
 pbe_lda_eval                       185 11.8    2.156    2.294    2.156    2.294
 put_rho0_on_grid                    37  9.0    0.031    0.041    1.985    2.026
 x_to_yz                            334 14.7    0.411    0.479    1.767    1.987
 yz_to_x                            337 13.9    0.384    0.486    1.553    1.979
 init_scf_loop                        2  4.0    0.000    0.000    1.804    1.804
 mp_waitany                        5960 11.5    1.363    1.771    1.363    1.771
 grid_collocate_task_list            38  7.0    0.897    1.489    0.897    1.489
 mp_waitall_1                     63618 14.0    1.108    1.374    1.108    1.374
 dbcsr_multiply_generic             864 10.1    0.024    0.024    1.269    1.338
 grid_integrate_task_list            37 10.0    0.517    1.278    0.517    1.278
 mp_alltoall_d11v                   744 12.0    0.801    1.110    0.801    1.110
 Vh_1c_gg_integrals                  37  8.0    0.095    1.038    1.053    1.092
 rs_gather_matrices                  37 10.0    0.001    0.016    0.762    1.077
 pw_gather_p                        337 12.9    0.743    0.909    0.743    0.909
 rs_pw_transfer_PW2RS_100            37 12.0    0.145    0.163    0.749    0.893
 qs_scf_new_mos                      37  5.0    0.000    0.000    0.858    0.862
 qs_scf_loop_do_ot                   37  6.0    0.000    0.000    0.858    0.862
 ot_scf_mini                         37  7.0    0.000    0.001    0.825    0.829
 pw_scatter_p                       334 13.7    0.725    0.805    0.725    0.805
 -------------------------------------------------------------------------------

 The number of warnings for this run is : 0
 
 -------------------------------------------------------------------------------
  **** **** ******  **  PROGRAM ENDED AT                 2022-05-12 17:17:44.705
 ***** ** ***  *** **   PROGRAM RAN ON                                   tcopt10
 **    ****   ******    PROGRAM RAN BY                                    hutter
 ***** **    ** ** **   PROGRAM PROCESS ID                                 87722
  **** **  *******  **  PROGRAM STOPPED IN /data/hutter/GITHUB/BASIS/scMOLOPT/PB
                                           E/Sc
