 DBCSR| CPU Multiplication driver                                           XSMM
 DBCSR| Multrec recursion limit                                              512
 DBCSR| Multiplication stack size                                           1000
 DBCSR| Maximum elements for images                                    UNLIMITED
 DBCSR| Multiplicative factor virtual images                                   1
 DBCSR| Use multiplication densification                                       T
 DBCSR| Multiplication size stacks                                             3
 DBCSR| Use memory pool for CPU allocation                                     F
 DBCSR| Number of 3D layers                                               SINGLE
 DBCSR| Use MPI memory allocation                                              F
 DBCSR| Use RMA algorithm                                                      F
 DBCSR| Use Communication thread                                               T
 DBCSR| Communication thread load                                             87
 DBCSR| MPI: My node id                                                        0
 DBCSR| MPI: Number of nodes                                                  36
 DBCSR| OMP: Current number of threads                                         1
 DBCSR| OMP: Max number of threads                                             1
 DBCSR| Split modifier for TAS multiplication algorithm                  1.0E+00


  **** **** ******  **  PROGRAM STARTED AT               2022-05-12 17:18:02.086
 ***** ** ***  *** **   PROGRAM STARTED ON                               tcopt10
 **    ****   ******    PROGRAM STARTED BY                                hutter
 ***** **    ** ** **   PROGRAM PROCESS ID                                 87914
  **** **  *******  **  PROGRAM STARTED IN /data/hutter/GITHUB/BASIS/scMOLOPT/PB
                                           E/Sc

 CP2K| version string:                   CP2K version 10.0 (Development Version)
 CP2K| source code revision number:                                  git:13fcfd8
 CP2K| cp2kflags: omp libint fftw3 libxc elpa parallel mpi3 scalapack cosma xsmm
 CP2K|             spglib sirius libvori libbqb
 CP2K| is freely available from                            https://www.cp2k.org/
 CP2K| Program compiled at                      Tue 10 May 2022 02:27:21 PM CEST
 CP2K| Program compiled on                                               tcopt10
 CP2K| Program compiled for                                                local
 CP2K| Data directory path                   /data/hutter/GITHUB/TDLRI/cp2k/data
 CP2K| Input file name                                              ScH3-ref.inp

 GLOBAL| Force Environment number                                              1
 GLOBAL| Basis set file name                                        ../def2QZVPP
 GLOBAL| Potential file name                                        ../POTENTIAL
 GLOBAL| MM Potential file name                                     MM_POTENTIAL
 GLOBAL| Coordinate file name                                      __STD_INPUT__
 GLOBAL| Method name                                                        CP2K
 GLOBAL| Project name                                                    refScH3
 GLOBAL| Run type                                                         ENERGY
 GLOBAL| FFT library                                                       FFTW3
 GLOBAL| Diagonalization library                                       ScaLAPACK
 GLOBAL| Orthonormality check for eigenvectors                          DISABLED
 GLOBAL| Matrix multiplication library                                     COSMA
 GLOBAL| All-to-all communication in single precision                          F
 GLOBAL| FFTs using library dependent lengths                                  F
 GLOBAL| Grid backend                                                       AUTO
 GLOBAL| Global print level                                                  LOW
 GLOBAL| MPI I/O enabled                                                       T
 GLOBAL| Total number of message passing processes                            36
 GLOBAL| Number of threads for this process                                    1
 GLOBAL| This output is from process                                           0
 GLOBAL| Stack size for threads created by OpenMP (OMP_STACKSIZE)        default
 GLOBAL| CPU model name                          AMD EPYC 7401 24-Core Processor
 GLOBAL| CPUID                                                              1002

 MEMORY| system memory details [Kb]
 MEMORY|                        rank 0           min           max       average
 MEMORY| MemTotal            263969136     263969136     263969136     263969136
 MEMORY| MemFree             238835748     238835748     238835748     238835748
 MEMORY| Buffers                   136           136           136           136
 MEMORY| Cached               18972612      18972608      18972612      18972609
 MEMORY| Slab                  1425828       1425828       1425828       1425828
 MEMORY| SReclaimable           872096        872096        872096        872096
 MEMORY| MemLikelyFree       258680592     258680588     258680592     258680589


 GENERATE|  Preliminary Number of Bonds generated:                             0
 GENERATE|  Achieved consistency in connectivity generation.

 *******************************************************************************
 *******************************************************************************
 **                                                                           **
 **     #####                         ##              ##                      **
 **    ##   ##            ##          ##              ##                      **
 **   ##     ##                       ##            ######                    **
 **   ##     ##  ##   ##  ##   #####  ##  ##   ####   ##    #####    #####    **
 **   ##     ##  ##   ##  ##  ##      ## ##   ##      ##   ##   ##  ##   ##   **
 **   ##  ## ##  ##   ##  ##  ##      ####     ###    ##   ######   ######    **
 **    ##  ###   ##   ##  ##  ##      ## ##      ##   ##   ##       ##        **
 **     #######   #####   ##   #####  ##  ##  ####    ##    #####   ##        **
 **           ##                                                    ##        **
 **                                                                           **
 **                                                ... make the atoms dance   **
 **                                                                           **
 **            Copyright (C) by CP2K developers group (2000-2022)             **
 **                      J. Chem. Phys. 152, 194103 (2020)                    **
 **                                                                           **
 *******************************************************************************


 TOTAL NUMBERS AND MAXIMUM NUMBERS

  Total number of            - Atomic kinds:                                   2
                             - Atoms:                                          4
                             - Shell sets:                                    57
                             - Shells:                                        57
                             - Primitive Cartesian functions:                 95
                             - Cartesian basis functions:                    224
                             - Spherical basis functions:                    183

  Maximum angular momentum of the orbital basis functions:                     4


 SCF PARAMETERS         Density guess:                                    ATOMIC
                        --------------------------------------------------------
                        max_scf:                                              20
                        max_scf_history:                                       0
                        max_diis:                                              4
                        --------------------------------------------------------
                        eps_scf:                                        1.00E-07
                        eps_scf_history:                                0.00E+00
                        eps_diis:                                       1.00E-01
                        eps_eigval:                                     1.00E-05
                        --------------------------------------------------------
                        level_shift [a.u.]:                             0.000000
                        --------------------------------------------------------
                        Outer loop SCF in use 
                        No variables optimised in outer loop
                        eps_scf                                         1.00E-07
                        max_scf                                                5
                        No outer loop optimization
                        step_size                                       5.00E-01

 Number of electrons:                                                         24
 Number of occupied orbitals:                                                 12
 Number of molecular orbitals:                                                12

 Number of orbital functions:                                                183
 Number of independent orbital functions:                                    183

 Extrapolation method: initial_guess


 SCF WAVEFUNCTION OPTIMIZATION

  ----------------------------------- OT ---------------------------------------
  Minimizer      : DIIS                : direct inversion
                                         in the iterative subspace
                                         using   7 DIIS vectors
                                         safer DIIS on
  Preconditioner : FULL_ALL            : diagonalization, state selective
  Precond_solver : DEFAULT
  stepsize       :    0.10000000                  energy_gap     :    0.08000000
  eps_taylor     :   0.10000E-15                  max_taylor     :             4
  ----------------------------------- OT ---------------------------------------

  Step     Update method      Time    Convergence         Total energy    Change
  ------------------------------------------------------------------------------
     1 OT DIIS     0.10E+00    0.8     0.37719044      -726.1323047775 -7.26E+02
     2 OT DIIS     0.10E+00    0.9     0.21871889      -751.2597580379 -2.51E+01
     3 OT DIIS     0.10E+00    0.9     0.08809117      -759.5773944821 -8.32E+00
     4 OT DIIS     0.10E+00    0.9     0.03380002      -760.6353369237 -1.06E+00
     5 OT DIIS     0.10E+00    0.9     0.01876528      -760.9571677254 -3.22E-01
     6 OT DIIS     0.10E+00    0.9     0.01584911      -761.0459161797 -8.87E-02
     7 OT DIIS     0.10E+00    0.9     0.01586590      -761.3247493385 -2.79E-01
     8 OT DIIS     0.10E+00    0.9     0.01591514      -761.3321693730 -7.42E-03
     9 OT DIIS     0.10E+00    0.9     0.00877721      -761.5472885718 -2.15E-01
    10 OT SD       0.10E+00    0.9     0.00720473      -761.6716072600 -1.24E-01
    11 OT DIIS     0.10E+00    0.9     0.00695240      -761.6827798981 -1.12E-02
    12 OT DIIS     0.10E+00    0.9     0.00583918      -761.8116184779 -1.29E-01
    13 OT DIIS     0.10E+00    0.9     0.00534255      -761.8510843212 -3.95E-02
    14 OT DIIS     0.10E+00    0.9     0.00762070      -761.8553911293 -4.31E-03
    15 OT DIIS     0.10E+00    1.0     0.00461418      -761.8715792584 -1.62E-02
    16 OT DIIS     0.10E+00    0.9     0.00420099      -761.8847498435 -1.32E-02
    17 OT DIIS     0.10E+00    0.9     0.00426000      -761.9030474379 -1.83E-02
    18 OT DIIS     0.10E+00    0.9     0.00383207      -761.9095450682 -6.50E-03
    19 OT DIIS     0.10E+00    0.9     0.00537498      -761.9414044119 -3.19E-02
    20 OT DIIS     0.10E+00    0.9     0.00343866      -761.9430915382 -1.69E-03

  Leaving inner SCF loop after reaching    20 steps.


  Electronic density on regular grids:        -15.2697957725        8.7302042275
  Core density on regular grids:               24.0000000000       -0.0000000000
  Hard and soft densities (Lebedev):          -28.8621501612      -20.1319452331
  Total Rho_soft + Rho1_hard - Rho1_soft      -24.0000007006
  Total charge density (r-space):              -0.0000007006
  Total Rho_soft + Rho0_soft (g-space):        -0.0000000651

  Overlap energy of the core charge distribution:               0.00000000000005
  Self energy of the core charge distribution:               -327.35818336305039
  Core Hamiltonian energy:                                   -451.95297190281792
  Hartree energy:                                              96.25706619708106
  Exchange-correlation energy:                                 -8.44564260673571

  GAPW| Exc from hard and soft atomic rho1:                   -31.30638978428548
  GAPW| local Eh = 1 center integrals:                        -39.13697007839066

  Total energy:                                              -761.94309153819904

  outer SCF iter =    1 RMS gradient =   0.34E-02 energy =       -761.9430915382

  ----------------------------------- OT ---------------------------------------
  Minimizer      : DIIS                : direct inversion
                                         in the iterative subspace
                                         using   7 DIIS vectors
                                         safer DIIS on
  Preconditioner : FULL_ALL            : diagonalization, state selective
  Precond_solver : DEFAULT
  stepsize       :    0.10000000                  energy_gap     :    0.08000000
  eps_taylor     :   0.10000E-15                  max_taylor     :             4
  ----------------------------------- OT ---------------------------------------

  Step     Update method      Time    Convergence         Total energy    Change
  ------------------------------------------------------------------------------
     1 OT DIIS     0.10E+00    1.9     0.03406905      -761.9800970056 -3.70E-02
     2 OT DIIS     0.10E+00    1.0     0.02080856      -762.1240665142 -1.44E-01
     3 OT DIIS     0.10E+00    0.9     0.01111357      -762.1781052608 -5.40E-02
     4 OT DIIS     0.10E+00    0.9     0.00451165      -762.2016499803 -2.35E-02
     5 OT DIIS     0.10E+00    0.9     0.00206361      -762.2037696971 -2.12E-03
     6 OT DIIS     0.10E+00    0.9     0.00161201      -762.2045535345 -7.84E-04
     7 OT DIIS     0.10E+00    0.9     0.00107103      -762.2047581794 -2.05E-04
     8 OT DIIS     0.10E+00    0.9     0.00016633      -762.2049344239 -1.76E-04
     9 OT DIIS     0.10E+00    0.9     0.00006219      -762.2049427132 -8.29E-06
    10 OT DIIS     0.10E+00    0.9     0.00002724      -762.2049438474 -1.13E-06
    11 OT DIIS     0.10E+00    0.9     0.00001144      -762.2049440511 -2.04E-07
    12 OT DIIS     0.10E+00    0.9     0.00000391      -762.2049440917 -4.07E-08
    13 OT DIIS     0.10E+00    0.9     0.00000173      -762.2049440957 -3.96E-09
    14 OT DIIS     0.10E+00    0.9     0.00000064      -762.2049440951  5.76E-10
    15 OT DIIS     0.10E+00    0.9     0.00000024      -762.2049440947  4.39E-10
    16 OT DIIS     0.10E+00    0.9     0.00000012      -762.2049440939  7.67E-10
    17 OT DIIS     0.10E+00    1.0     0.00000005      -762.2049440929  9.87E-10

  *** SCF run converged in    17 steps ***


  Electronic density on regular grids:        -15.2806481984        8.7193518016
  Core density on regular grids:               24.0000000000       -0.0000000000
  Hard and soft densities (Lebedev):          -30.3102063997      -21.5908538964
  Total Rho_soft + Rho1_hard - Rho1_soft      -24.0000007017
  Total charge density (r-space):              -0.0000007017
  Total Rho_soft + Rho0_soft (g-space):        -0.0000000662

  Overlap energy of the core charge distribution:               0.00000000000005
  Self energy of the core charge distribution:               -327.35818336305039
  Core Hamiltonian energy:                                   -452.32418283488011
  Hartree energy:                                              96.65503217933977
  Exchange-correlation energy:                                 -8.51674633253134

  GAPW| Exc from hard and soft atomic rho1:                   -31.30229302304908
  GAPW| local Eh = 1 center integrals:                        -39.35857071873444

  Total energy:                                              -762.20494409290541

  outer SCF iter =    2 RMS gradient =   0.50E-07 energy =       -762.2049440929
  outer SCF loop converged in   2 iterations or   37 steps


 ENERGY| Total FORCE_EVAL ( QS ) energy [a.u.]:             -762.204944092905407

 -------------------------------------------------------------------------------
 -                                                                             -
 -                                DBCSR STATISTICS                             -
 -                                                                             -
 -------------------------------------------------------------------------------
 COUNTER                                    TOTAL       BLAS       SMM       ACC
 flops    12 x    12 x    12              1109376       0.0%    100.0%      0.0%
 flops    93 x    30 x    12              2544480       0.0%    100.0%      0.0%
 flops    12 x    12 x    30              3888000       0.0%    100.0%      0.0%
 flops    12 x    12 x    93              4017600       0.0%    100.0%      0.0%
 flops    30 x    12 x    12              4847040       0.0%    100.0%      0.0%
 flops    30 x    30 x    12              4924800       0.0%    100.0%      0.0%
 flops    93 x    12 x    12              5008608       0.0%    100.0%      0.0%
 flops    30 x    93 x    12              5088960       0.0%    100.0%      0.0%
 flops    93 x    93 x    12              7887888       0.0%    100.0%      0.0%
 flops    30 x    12 x    30             32270400       0.0%    100.0%      0.0%
 flops    93 x    12 x    30             33346080       0.0%    100.0%      0.0%
 flops    30 x    12 x    93             33346080       0.0%    100.0%      0.0%
 flops    93 x    12 x    93             34457616       0.0%    100.0%      0.0%
 flops inhomo. stacks                           0       0.0%      0.0%      0.0%
 flops total                       172.736928E+06       0.0%    100.0%      0.0%
 flops max/rank                     89.715168E+06       0.0%    100.0%      0.0%
 matmuls inhomo. stacks                         0       0.0%      0.0%      0.0%
 matmuls total                               4705       0.0%    100.0%      0.0%
 number of processed stacks                  4705       0.0%    100.0%      0.0%
 average stack size                                     0.0       1.0       0.0
 marketing flops                   182.938176E+06
 -------------------------------------------------------------------------------
 # multiplications                            864
 max memory usage/rank             441.032704E+06
 # max total images/rank                        1
 # max 3D layers                                1
 # MPI messages exchanged                  311040
 MPI messages size (bytes):
  total size                       291.177344E+06
  min size                           0.000000E+00
  max size                          69.192000E+03
  average size                     936.141174E+00
 MPI breakdown and total messages size (bytes):
             size <=      128              279035                        0
       128 < size <=     8192               22550                 90051840
      8192 < size <=    32768                8625                143696160
     32768 < size <=   131072                 830                 57429360
    131072 < size <=  4194304                   0                        0
   4194304 < size <= 16777216                   0                        0
  16777216 < size                               0                        0
 -------------------------------------------------------------------------------
 -                                                                             -
 -                      DBCSR MESSAGE PASSING PERFORMANCE                      -
 -                                                                             -
 -------------------------------------------------------------------------------
 ROUTINE             CALLS      AVE VOLUME [Bytes]
 MP_Bcast               14                     12.
 MP_Allreduce         4627                      8.
 MP_Alltoall          3161                   2755.
 MP_ISend            20728                   1702.
 MP_IRecv            20728                    787.
 -------------------------------------------------------------------------------

 -------------------------------------------------------------------------------
 -                                                                             -
 -                                GRID STATISTICS                              -
 -                                                                             -
 -------------------------------------------------------------------------------
 LP    KERNEL             BACKEND                              COUNT     PERCENT
 2     collocate ortho    REF                                  50350      12.18%
 2     integrate ortho    REF                                  49025      11.86%
 1     collocate ortho    REF                                  43662      10.57%
 1     integrate ortho    REF                                  42513      10.29%
 3     collocate ortho    REF                                  41458      10.03%
 3     integrate ortho    REF                                  40367       9.77%
 4     collocate ortho    REF                                  26714       6.46%
 4     integrate ortho    REF                                  26011       6.29%
 0     collocate ortho    REF                                  21850       5.29%
 0     integrate ortho    REF                                  21275       5.15%
 5     collocate ortho    REF                                  13642       3.30%
 5     integrate ortho    REF                                  13283       3.21%
 2     collocate general  REF                                   5328       1.29%
 2     integrate general  REF                                   5328       1.29%
 6     collocate ortho    REF                                   4788       1.16%
 6     integrate ortho    REF                                   4662       1.13%
 7     collocate ortho    REF                                   1140       0.28%
 7     integrate ortho    REF                                   1110       0.27%
 8     collocate ortho    REF                                    380       0.09%
 8     integrate ortho    REF                                    370       0.09%
 -------------------------------------------------------------------------------

 MEMORY| Estimated peak process memory [MiB]                                 421

 -------------------------------------------------------------------------------
 -                                                                             -
 -                         MESSAGE PASSING PERFORMANCE                         -
 -                                                                             -
 -------------------------------------------------------------------------------

 ROUTINE             CALLS      AVE VOLUME [Bytes]
 MP_Group                4
 MP_Bcast              944                 211518.
 MP_Allreduce         2682                 178340.
 MP_Sync                90
 MP_Alltoall           758                6565820.
 MP_ISendRecv         7875                 115968.
 MP_Wait             14282
 MP_comm_split          43
 MP_ISend             5960                 278784.
 MP_IRecv             5960                 278784.
 MP_Recv                10                   2928.
 -------------------------------------------------------------------------------


 -------------------------------------------------------------------------------
 -                                                                             -
 -                           R E F E R E N C E S                               -
 -                                                                             -
 -------------------------------------------------------------------------------
 
 CP2K version 10.0 (Development Version), the CP2K developers group (2022).
 CP2K is freely available from https://www.cp2k.org/ .

 Kuehne,Thomas D.; Iannuzzi,Marcella; Del Ben,Mauro;
 Rybkin,Vladimir V.; Seewald,Patrick; Stein,Frederick; Laino,Teodoro;
 Khaliullin,Rustam Z.; Schuett,Ole; Schiffmann,Florian; Golze,Dorothea;
 Wilhelm,Jan; Chulkov,Sergey; Bani-Hashemian,Mohammad Hossein;
 Weber,Valery; Borstnik,Urban; Taillefumier,Mathieu;
 Jakobovits,Alice Shoshana; Lazzaro,Alfio; Pabst,Hans; Mueller,Tiziano;
 Schade,Robert; Guidon,Manuel; Andermatt,Samuel; Holmberg,Nico;
 Schenter,Gregory K.; Hehn,Anna; Bussy,Augustin; Belleflamme,Fabian;
 Tabacchi,Gloria; Gloess,Andreas; Lass,Michael; Bethune,Iain;
 Mundy,Christopher J.; Plessl,Christian; Watkins,Matt;
 VandeVondele,Joost; Krack,Matthias; Hutter,Juerg. 
 The Journal of Chemical Physics, 152 (19), (2020). 
 CP2K: An electronic structure and molecular dynamics software package -
 Quickstep: Efficient and accurate electronic structure calculations.
 https://doi.org/10.1063/5.0007045

 Schuett, Ole; Messmer, Peter; Hutter, Juerg; VandeVondele, Joost. 
 Electronic Structure Calculations on Graphics Processing Units, John
 Wiley & Sons, Ltd, 173-190 (2016). 
 GPU-Accelerated Sparse Matrix-Matrix Multiplication for
 Linear Scaling Density Functional Theory.
 https://doi.org/10.1002/9781118670712.ch8

 Heinecke, A; Henry, G; Hutchinson, M; Pabst, H. 
 Proceedings of Intl. Supercomputing Conference, 981-991 (2016). 
 LIBXSMM: Accelerating Small Matrix Multiplications
 by Runtime Code Generation.
 https://doi.org/10.1109/SC.2016.83

 Borstnik, U; VandeVondele, J; Weber, V; Hutter, J. 
 PARALLEL COMPUTING, 40 (5-6), 47-58 (2014). 
 Sparse matrix multiplication: The distributed block-compressed sparse
 row library.
 https://doi.org/10.1016/j.parco.2014.03.012

 Hutter, J; Iannuzzi, M; Schiffmann, F; VandeVondele, J. 
 WIREs Comput Mol Sci., 4 (1), 15-25 (2014). 
 CP2K: atomistic simulations of condensed matter systems.
 https://doi.org/10.1002/wcms.1159

 Frigo, M; Johnson, SG. 
 PROCEEDINGS OF THE IEEE, 93 (2), 216-231 (2005). 
 The design and implementation of FFTW3.
 https://doi.org/10.1109/JPROC.2004.840301

 VandeVondele, J; Hutter, J. 
 JOURNAL OF CHEMICAL PHYSICS, 118 (10), 4365-4369 (2003). 
 An efficient orbital transformation method for electronic structure
 calculations.
 https://doi.org/10.1063/1.1543154

 Lippert, G; Hutter, J; Parrinello, M. 
 THEORETICAL CHEMISTRY ACCOUNTS, 103 (2), 124-140 (1999). 
 The Gaussian and augmented-plane-wave density functional method for ab
 initio molecular dynamics simulations.
 https://doi.org/10.1007/s002140050523

 Krack, M; Parrinello, M. 
 PHYSICAL CHEMISTRY CHEMICAL PHYSICS, 2 (10), 2105-2112 (2000). 
 All-electron ab-initio molecular dynamics.
 https://doi.org/10.1039/b001167n

 Perdew, JP; Burke, K; Ernzerhof, M. 
 PHYSICAL REVIEW LETTERS, 77 (18), 3865-3868 (1996). 
 Generalized gradient approximation made simple.
 https://doi.org/10.1103/PhysRevLett.77.3865


 -------------------------------------------------------------------------------
 -                                                                             -
 -                                T I M I N G                                  -
 -                                                                             -
 -------------------------------------------------------------------------------
 SUBROUTINE                       CALLS  ASD         SELF TIME        TOTAL TIME
                                MAXIMUM       AVERAGE  MAXIMUM  AVERAGE  MAXIMUM
 CP2K                                 1  1.0    0.011    0.032   35.564   35.565
 qs_energies                          1  2.0    0.000    0.000   35.319   35.319
 scf_env_do_scf                       1  3.0    0.000    0.000   34.579   34.580
 scf_env_do_scf_inner_loop           37  4.0    0.001    0.002   32.993   32.993
 qs_ks_update_qs_env                 39  5.0    0.000    0.001   28.683   28.684
 rebuild_ks_matrix                   37  6.0    0.000    0.000   28.680   28.681
 qs_ks_build_kohn_sham_matrix        37  7.0    0.008    0.009   28.680   28.681
 pw_transfer                        782 10.1    0.080    0.094    9.247    9.372
 fft_wrap_pw1pw2                    671 11.3    0.009    0.011    9.082    9.216
 fft_wrap_pw1pw2_300                446 12.7    0.618    0.702    8.588    8.727
 qs_vxc_create                       37  8.0    0.001    0.001    8.167    8.168
 xc_vxc_pw_create                    37  9.0    0.060    0.072    8.166    8.167
 fft3d_ps                           671 13.3    3.638    4.054    6.957    7.270
 prepare_gapw_den                    37  8.0    0.001    0.001    7.167    7.208
 mp_sum_d                          1519  7.8    5.638    5.953    5.638    5.953
 rs_pw_transfer                     374  9.5    0.008    0.010    5.776    5.898
 qs_rho_update_rho                   38  5.0    0.001    0.001    5.176    5.177
 xc_pw_derive                       222 11.0    0.002    0.003    4.784    4.961
 xc_rho_set_and_dset_create          37 10.0    0.059    0.074    4.819    4.911
 calculate_rho_elec                  38  6.0    0.027    0.027    4.672    4.674
 calculate_vxc_atom                  37  8.0    0.022    0.236    4.341    4.341
 calculate_rho_atom                  74  9.0    1.329    4.327    1.329    4.327
 gaVxcgb_GC                          74  9.0    0.121    3.964    0.121    3.964
 density_rs2pw                       38  7.0    0.002    0.002    3.499    3.617
 sum_up_and_integrate                37  8.0    0.019    0.023    3.427    3.440
 integrate_v_rspace                  37  9.0    0.001    0.001    3.408    3.422
 mp_alltoall_z22v                   671 15.3    2.488    3.251    2.488    3.251
 xc_pw_divergence                    37 10.0    0.001    0.002    3.078    3.246
 calculate_rho0_atom                 74  9.0    2.476    2.991    2.476    2.991
 potential_pw2rs                     37 10.0    0.003    0.003    2.904    2.908
 integrate_vhg0_rspace               37  8.0    0.328    0.618    2.816    2.821
 rs_pw_transfer_RS2PW_300            75 10.0    1.287    1.578    2.231    2.368
 xc_functional_eval                 185 10.8    0.001    0.001    2.176    2.319
 pbe_lda_eval                       185 11.8    2.175    2.318    2.175    2.318
 rs_pw_transfer_PW2RS_300            74 11.0    1.260    1.454    2.032    2.298
 x_to_yz                            334 14.7    0.412    0.472    1.813    2.064
 put_rho0_on_grid                    37  9.0    0.030    0.035    1.925    1.965
 mp_sum_dm                          452  7.7    1.804    1.961    1.804    1.961
 yz_to_x                            337 13.9    0.393    0.516    1.480    1.918
 mp_sum_dv                          982 12.9    1.441    1.698    1.441    1.698
 mp_waitany                        5960 11.5    1.339    1.649    1.339    1.649
 init_scf_loop                        2  4.0    0.000    0.000    1.586    1.586
 mp_waitall_1                     63618 14.0    1.074    1.301    1.074    1.301
 dbcsr_multiply_generic             864 10.1    0.023    0.024    1.122    1.158
 grid_collocate_task_list            38  7.0    0.840    0.974    0.840    0.974
 Vh_1c_gg_integrals                  37  8.0    0.074    0.900    0.913    0.947
 pw_gather_p                        337 12.9    0.752    0.939    0.752    0.939
 rs_pw_transfer_PW2RS_100            37 12.0    0.146    0.182    0.743    0.858
 pw_scatter_p                       334 13.7    0.722    0.804    0.722    0.804
 qs_scf_new_mos                      37  5.0    0.000    0.000    0.769    0.771
 qs_scf_loop_do_ot                   37  6.0    0.000    0.000    0.769    0.771
 ot_scf_mini                         37  7.0    0.000    0.001    0.737    0.739
 -------------------------------------------------------------------------------

 The number of warnings for this run is : 0
 
 -------------------------------------------------------------------------------
  **** **** ******  **  PROGRAM ENDED AT                 2022-05-12 17:18:38.061
 ***** ** ***  *** **   PROGRAM RAN ON                                   tcopt10
 **    ****   ******    PROGRAM RAN BY                                    hutter
 ***** **    ** ** **   PROGRAM PROCESS ID                                 87914
  **** **  *******  **  PROGRAM STOPPED IN /data/hutter/GITHUB/BASIS/scMOLOPT/PB
                                           E/Sc
