 DBCSR| CPU Multiplication driver                                           XSMM
 DBCSR| Multrec recursion limit                                              512
 DBCSR| Multiplication stack size                                           1000
 DBCSR| Maximum elements for images                                    UNLIMITED
 DBCSR| Multiplicative factor virtual images                                   1
 DBCSR| Use multiplication densification                                       T
 DBCSR| Multiplication size stacks                                             3
 DBCSR| Use memory pool for CPU allocation                                     F
 DBCSR| Number of 3D layers                                               SINGLE
 DBCSR| Use MPI memory allocation                                              F
 DBCSR| Use RMA algorithm                                                      F
 DBCSR| Use Communication thread                                               T
 DBCSR| Communication thread load                                             87
 DBCSR| MPI: My node id                                                        0
 DBCSR| MPI: Number of nodes                                                  36
 DBCSR| OMP: Current number of threads                                         1
 DBCSR| OMP: Max number of threads                                             1
 DBCSR| Split modifier for TAS multiplication algorithm                  1.0E+00


  **** **** ******  **  PROGRAM STARTED AT               2022-05-31 15:27:00.153
 ***** ** ***  *** **   PROGRAM STARTED ON                               tcopt10
 **    ****   ******    PROGRAM STARTED BY                                hutter
 ***** **    ** ** **   PROGRAM PROCESS ID                                  7319
  **** **  *******  **  PROGRAM STARTED IN /data/hutter/GITHUB/BASIS/scMOLOPT/PB
                                           E/I

 CP2K| version string:                   CP2K version 10.0 (Development Version)
 CP2K| source code revision number:                                  git:d19b00a
 CP2K| cp2kflags: omp libint fftw3 libxc elpa parallel mpi3 scalapack cosma xsmm
 CP2K|             spglib sirius libvori libbqb
 CP2K| is freely available from                            https://www.cp2k.org/
 CP2K| Program compiled at                      Wed 18 May 2022 12:15:59 PM CEST
 CP2K| Program compiled on                                               tcopt10
 CP2K| Program compiled for                                                local
 CP2K| Data directory path                   /data/hutter/GITHUB/TDLRI/cp2k/data
 CP2K| Input file name                                                I2-ref.inp

 GLOBAL| Force Environment number                                              1
 GLOBAL| Basis set file name                                        ../def2QZVPP
 GLOBAL| Potential file name                                        ../POTENTIAL
 GLOBAL| MM Potential file name                                     MM_POTENTIAL
 GLOBAL| Coordinate file name                                      __STD_INPUT__
 GLOBAL| Method name                                                        CP2K
 GLOBAL| Project name                                                      refI2
 GLOBAL| Run type                                                         ENERGY
 GLOBAL| FFT library                                                       FFTW3
 GLOBAL| Diagonalization library                                            ELPA
 GLOBAL| Minimum number of eigenvectors for ELPA usage                        16
 GLOBAL| Orthonormality check for eigenvectors                          DISABLED
 GLOBAL| Matrix multiplication library                                     COSMA
 GLOBAL| All-to-all communication in single precision                          F
 GLOBAL| FFTs using library dependent lengths                                  F
 GLOBAL| Grid backend                                                       AUTO
 GLOBAL| Global print level                                                  LOW
 GLOBAL| MPI I/O enabled                                                       T
 GLOBAL| Total number of message passing processes                            36
 GLOBAL| Number of threads for this process                                    1
 GLOBAL| This output is from process                                           0
 GLOBAL| Stack size for threads created by OpenMP (OMP_STACKSIZE)        default
 GLOBAL| CPU model name                          AMD EPYC 7401 24-Core Processor
 GLOBAL| CPUID                                                              1002

 MEMORY| system memory details [Kb]
 MEMORY|                        rank 0           min           max       average
 MEMORY| MemTotal            263969132     263969132     263969132     263969132
 MEMORY| MemFree             237139424     237139424     237139424     237139424
 MEMORY| Buffers                  2836          2836          2836          2836
 MEMORY| Cached               20268088      20268084      20268088      20268085
 MEMORY| Slab                  1472688       1472688       1472688       1472688
 MEMORY| SReclaimable           875844        875844        875844        875844
 MEMORY| MemLikelyFree       258286192     258286188     258286192     258286189


 GENERATE|  Preliminary Number of Bonds generated:                             0
 GENERATE|  Achieved consistency in connectivity generation.

 *******************************************************************************
 *******************************************************************************
 **                                                                           **
 **     #####                         ##              ##                      **
 **    ##   ##            ##          ##              ##                      **
 **   ##     ##                       ##            ######                    **
 **   ##     ##  ##   ##  ##   #####  ##  ##   ####   ##    #####    #####    **
 **   ##     ##  ##   ##  ##  ##      ## ##   ##      ##   ##   ##  ##   ##   **
 **   ##  ## ##  ##   ##  ##  ##      ####     ###    ##   ######   ######    **
 **    ##  ###   ##   ##  ##  ##      ## ##      ##   ##   ##       ##        **
 **     #######   #####   ##   #####  ##  ##  ####    ##    #####   ##        **
 **           ##                                                    ##        **
 **                                                                           **
 **                                                ... make the atoms dance   **
 **                                                                           **
 **            Copyright (C) by CP2K developers group (2000-2022)             **
 **                      J. Chem. Phys. 152, 194103 (2020)                    **
 **                                                                           **
 *******************************************************************************


 TOTAL NUMBERS AND MAXIMUM NUMBERS

  Total number of            - Atomic kinds:                                   1
                             - Atoms:                                          2
                             - Shell sets:                                    44
                             - Shells:                                        44
                             - Primitive Cartesian functions:                 94
                             - Cartesian basis functions:                    208
                             - Spherical basis functions:                    164

  Maximum angular momentum of- Orbital basis functions:                        4
                             - Local part of the GTH pseudopotential:          4
                             - Non-local part of the GTH pseudopotential:      4


 SCF PARAMETERS         Density guess:                                    ATOMIC
                        --------------------------------------------------------
                        max_scf:                                              20
                        max_scf_history:                                       0
                        max_diis:                                              4
                        --------------------------------------------------------
                        eps_scf:                                        1.00E-07
                        eps_scf_history:                                0.00E+00
                        eps_diis:                                       1.00E-01
                        eps_eigval:                                     1.00E-05
                        --------------------------------------------------------
                        level_shift [a.u.]:                             0.000000
                        --------------------------------------------------------
                        Outer loop SCF in use 
                        No variables optimised in outer loop
                        eps_scf                                         1.00E-07
                        max_scf                                                5
                        No outer loop optimization
                        step_size                                       5.00E-01

 Number of electrons:                                                         50
 Number of occupied orbitals:                                                 25
 Number of molecular orbitals:                                                25

 Number of orbital functions:                                                164
 Number of independent orbital functions:                                    164

 Extrapolation method: initial_guess


 SCF WAVEFUNCTION OPTIMIZATION

  ----------------------------------- OT ---------------------------------------
  Minimizer      : DIIS                : direct inversion
                                         in the iterative subspace
                                         using   7 DIIS vectors
                                         safer DIIS on
  Preconditioner : FULL_ALL            : diagonalization, state selective
  Precond_solver : DEFAULT
  stepsize       :    0.10000000                  energy_gap     :    0.08000000
  eps_taylor     :   0.10000E-15                  max_taylor     :             4
  ----------------------------------- OT ---------------------------------------

  Step     Update method      Time    Convergence         Total energy    Change
  ------------------------------------------------------------------------------
     1 OT DIIS     0.10E+00    1.0     0.12130211      -561.2881716746 -5.61E+02
     2 OT DIIS     0.10E+00    1.1     0.02560626      -565.2029368473 -3.91E+00
     3 OT DIIS     0.10E+00    1.1     0.01597541      -565.3245699702 -1.22E-01
     4 OT DIIS     0.10E+00    1.1     0.01836740      -565.3459438870 -2.14E-02
     5 OT DIIS     0.10E+00    1.1     0.00554707      -565.3785248696 -3.26E-02
     6 OT DIIS     0.10E+00    1.1     0.00220421      -565.3897518922 -1.12E-02
     7 OT DIIS     0.10E+00    1.1     0.00229698      -565.3921405404 -2.39E-03
     8 OT DIIS     0.10E+00    1.1     0.00164419      -565.3949108896 -2.77E-03
     9 OT DIIS     0.10E+00    1.1     0.00140157      -565.4002284692 -5.32E-03
    10 OT DIIS     0.10E+00    1.1     0.00075631      -565.4020710045 -1.84E-03
    11 OT DIIS     0.10E+00    1.1     0.00120974      -565.4031821951 -1.11E-03
    12 OT DIIS     0.10E+00    1.1     0.00034224      -565.4033345125 -1.52E-04
    13 OT DIIS     0.10E+00    1.1     0.00027108      -565.4034731134 -1.39E-04
    14 OT DIIS     0.10E+00    1.1     0.00020861      -565.4034888861 -1.58E-05
    15 OT DIIS     0.10E+00    1.1     0.00010829      -565.4034993258 -1.04E-05
    16 OT DIIS     0.10E+00    1.1     0.00004710      -565.4035040794 -4.75E-06
    17 OT DIIS     0.10E+00    1.1     0.00002823      -565.4035068103 -2.73E-06
    18 OT DIIS     0.10E+00    1.1     0.00001513      -565.4035079965 -1.19E-06
    19 OT DIIS     0.10E+00    1.1     0.00000767      -565.4035082901 -2.94E-07
    20 OT DIIS     0.10E+00    1.1     0.00000309      -565.4035083767 -8.66E-08

  Leaving inner SCF loop after reaching    20 steps.


  Electronic density on regular grids:        -50.4253132210       -0.4253132210
  Core density on regular grids:               50.0000000000        0.0000000000
  Hard and soft densities (Lebedev):          -50.9625449338      -51.3878581514
  Total Rho_soft + Rho1_hard - Rho1_soft      -50.0000000034
  Total charge density (r-space):              -0.0000000034
  Total Rho_soft + Rho0_soft (g-space):        -0.0000004981

  Overlap energy of the core charge distribution:               0.00000000000000
  Self energy of the core charge distribution:               -922.47140534706352
  Core Hamiltonian energy:                                    206.81762724882981
  Hartree energy:                                             451.10012498524389
  Exchange-correlation energy:                                -41.33537186766982

  GAPW| Exc from hard and soft atomic rho1:                     0.54553137846971
  GAPW| local Eh = 1 center integrals:                       -260.06001477449888

  Total energy:                                              -565.40350837668871

  outer SCF iter =    1 RMS gradient =   0.31E-05 energy =       -565.4035083767

  ----------------------------------- OT ---------------------------------------
  Minimizer      : DIIS                : direct inversion
                                         in the iterative subspace
                                         using   7 DIIS vectors
                                         safer DIIS on
  Preconditioner : FULL_ALL            : diagonalization, state selective
  Precond_solver : DEFAULT
  stepsize       :    0.10000000                  energy_gap     :    0.08000000
  eps_taylor     :   0.10000E-15                  max_taylor     :             4
  ----------------------------------- OT ---------------------------------------

  Step     Update method      Time    Convergence         Total energy    Change
  ------------------------------------------------------------------------------
     1 OT DIIS     0.10E+00    2.2     0.00000562      -565.4035083894 -1.28E-08
     2 OT DIIS     0.10E+00    1.1     0.00000336      -565.4035083996 -1.02E-08
     3 OT DIIS     0.10E+00    1.1     0.00000117      -565.4035084056 -5.92E-09
     4 OT DIIS     0.10E+00    1.1     0.00000051      -565.4035084062 -6.59E-10
     5 OT DIIS     0.10E+00    1.1     0.00000011      -565.4035084063 -1.05E-10
     6 OT DIIS     0.10E+00    1.1     0.00000003      -565.4035084063 -5.80E-12

  *** SCF run converged in     6 steps ***


  Electronic density on regular grids:        -50.4253130069       -0.4253130069
  Core density on regular grids:               50.0000000000        0.0000000000
  Hard and soft densities (Lebedev):          -50.9625218501      -51.3878348536
  Total Rho_soft + Rho1_hard - Rho1_soft      -50.0000000034
  Total charge density (r-space):              -0.0000000034
  Total Rho_soft + Rho0_soft (g-space):        -0.0000004981

  Overlap energy of the core charge distribution:               0.00000000000000
  Self energy of the core charge distribution:               -922.47140534706352
  Core Hamiltonian energy:                                    206.81764639979974
  Hartree energy:                                             451.10007787078496
  Exchange-correlation energy:                                -41.33537057606222

  GAPW| Exc from hard and soft atomic rho1:                     0.54553115717700
  GAPW| local Eh = 1 center integrals:                       -260.05998791096442

  Total energy:                                              -565.40350840632846

  outer SCF iter =    2 RMS gradient =   0.25E-07 energy =       -565.4035084063
  outer SCF loop converged in   2 iterations or   26 steps


 ENERGY| Total FORCE_EVAL ( QS ) energy [a.u.]:             -565.403508406328456

 -------------------------------------------------------------------------------
 -                                                                             -
 -                                DBCSR STATISTICS                             -
 -                                                                             -
 -------------------------------------------------------------------------------
 COUNTER                                    TOTAL       BLAS       SMM       ACC
 flops    25 x    25 x    25              5625000       0.0%    100.0%      0.0%
 flops    25 x    25 x    82             21730000       0.0%    100.0%      0.0%
 flops    82 x    25 x    25             27060000       0.0%    100.0%      0.0%
 flops    82 x    82 x    25             27232200       0.0%    100.0%      0.0%
 flops    82 x    25 x    82            164065600       0.0%    100.0%      0.0%
 flops inhomo. stacks                           0       0.0%      0.0%      0.0%
 flops total                       245.712800E+06       0.0%    100.0%      0.0%
 flops max/rank                    131.995200E+06       0.0%    100.0%      0.0%
 matmuls inhomo. stacks                         0       0.0%      0.0%      0.0%
 matmuls total                               1225       0.0%    100.0%      0.0%
 number of processed stacks                  1225       0.0%    100.0%      0.0%
 average stack size                                     0.0       1.0       0.0
 marketing flops                   255.200064E+06
 -------------------------------------------------------------------------------
 # multiplications                            569
 max memory usage/rank             568.066048E+06
 # max total images/rank                        1
 # max 3D layers                                1
 # MPI messages exchanged                  204840
 MPI messages size (bytes):
  total size                       228.832480E+06
  min size                           0.000000E+00
  max size                          53.792000E+03
  average size                       1.117128E+03
 MPI breakdown and total messages size (bytes):
             size <=      128              194740                        0
       128 < size <=     8192                2460                 12300000
      8192 < size <=    32768                5200                 85280000
     32768 < size <=   131072                2440                131252480
    131072 < size <=  4194304                   0                        0
   4194304 < size <= 16777216                   0                        0
  16777216 < size                               0                        0
 -------------------------------------------------------------------------------
 -                                                                             -
 -                      DBCSR MESSAGE PASSING PERFORMANCE                      -
 -                                                                             -
 -------------------------------------------------------------------------------
 ROUTINE             CALLS      AVE VOLUME [Bytes]
 MP_Bcast                6                     12.
 MP_Allreduce         3037                      8.
 MP_Alltoall          2206                   3768.
 MP_ISend            13648                   2225.
 MP_IRecv            13648                    938.
 -------------------------------------------------------------------------------

 -------------------------------------------------------------------------------
 -                                                                             -
 -                                GRID STATISTICS                              -
 -                                                                             -
 -------------------------------------------------------------------------------
 LP    KERNEL             BACKEND                              COUNT     PERCENT
 2     collocate ortho    REF                                  13635      11.31%
 3     collocate ortho    REF                                  13176      10.92%
 2     integrate ortho    REF                                  13130      10.89%
 3     integrate ortho    REF                                  12688      10.52%
 1     collocate ortho    REF                                  11286       9.36%
 1     integrate ortho    REF                                  10868       9.01%
 4     collocate ortho    REF                                   9072       7.52%
 4     integrate ortho    REF                                   8736       7.24%
 0     collocate ortho    REF                                   5157       4.28%
 0     integrate ortho    REF                                   4966       4.12%
 5     collocate ortho    REF                                   4860       4.03%
 5     integrate ortho    REF                                   4680       3.88%
 2     collocate general  REF                                   1872       1.55%
 2     integrate general  REF                                   1872       1.55%
 6     collocate ortho    REF                                   1782       1.48%
 6     integrate ortho    REF                                   1716       1.42%
 7     collocate ortho    REF                                    486       0.40%
 7     integrate ortho    REF                                    468       0.39%
 8     collocate ortho    REF                                     81       0.07%
 8     integrate ortho    REF                                     78       0.06%
 -------------------------------------------------------------------------------

 MEMORY| Estimated peak process memory [MiB]                                 542

 -------------------------------------------------------------------------------
 -                                                                             -
 -                         MESSAGE PASSING PERFORMANCE                         -
 -                                                                             -
 -------------------------------------------------------------------------------

 ROUTINE             CALLS      AVE VOLUME [Bytes]
 MP_Group                4
 MP_Bcast              408                 542340.
 MP_Allreduce         1350                 788224.
 MP_Sync                56
 MP_Alltoall           538                6386971.
 MP_ISendRecv         5565                 115968.
 MP_Wait             10080
 MP_comm_split          26
 MP_ISend             4200                 291600.
 MP_IRecv             4200                 291600.
 MP_Recv                 8                   6560.
 -------------------------------------------------------------------------------


 -------------------------------------------------------------------------------
 -                                                                             -
 -                           R E F E R E N C E S                               -
 -                                                                             -
 -------------------------------------------------------------------------------
 
 CP2K version 10.0 (Development Version), the CP2K developers group (2022).
 CP2K is freely available from https://www.cp2k.org/ .

 Kuehne,Thomas D.; Iannuzzi,Marcella; Del Ben,Mauro;
 Rybkin,Vladimir V.; Seewald,Patrick; Stein,Frederick; Laino,Teodoro;
 Khaliullin,Rustam Z.; Schuett,Ole; Schiffmann,Florian; Golze,Dorothea;
 Wilhelm,Jan; Chulkov,Sergey; Bani-Hashemian,Mohammad Hossein;
 Weber,Valery; Borstnik,Urban; Taillefumier,Mathieu;
 Jakobovits,Alice Shoshana; Lazzaro,Alfio; Pabst,Hans; Mueller,Tiziano;
 Schade,Robert; Guidon,Manuel; Andermatt,Samuel; Holmberg,Nico;
 Schenter,Gregory K.; Hehn,Anna; Bussy,Augustin; Belleflamme,Fabian;
 Tabacchi,Gloria; Gloess,Andreas; Lass,Michael; Bethune,Iain;
 Mundy,Christopher J.; Plessl,Christian; Watkins,Matt;
 VandeVondele,Joost; Krack,Matthias; Hutter,Juerg. 
 The Journal of Chemical Physics, 152 (19), (2020). 
 CP2K: An electronic structure and molecular dynamics software package -
 Quickstep: Efficient and accurate electronic structure calculations.
 https://doi.org/10.1063/5.0007045

 Schuett, Ole; Messmer, Peter; Hutter, Juerg; VandeVondele, Joost. 
 Electronic Structure Calculations on Graphics Processing Units, John
 Wiley & Sons, Ltd, 173-190 (2016). 
 GPU-Accelerated Sparse Matrix-Matrix Multiplication for
 Linear Scaling Density Functional Theory.
 https://doi.org/10.1002/9781118670712.ch8

 Heinecke, A; Henry, G; Hutchinson, M; Pabst, H. 
 Proceedings of Intl. Supercomputing Conference, 981-991 (2016). 
 LIBXSMM: Accelerating Small Matrix Multiplications
 by Runtime Code Generation.
 https://doi.org/10.1109/SC.2016.83

 Borstnik, U; VandeVondele, J; Weber, V; Hutter, J. 
 PARALLEL COMPUTING, 40 (5-6), 47-58 (2014). 
 Sparse matrix multiplication: The distributed block-compressed sparse
 row library.
 https://doi.org/10.1016/j.parco.2014.03.012

 Hutter, J; Iannuzzi, M; Schiffmann, F; VandeVondele, J. 
 WIREs Comput Mol Sci., 4 (1), 15-25 (2014). 
 CP2K: atomistic simulations of condensed matter systems.
 https://doi.org/10.1002/wcms.1159

 Marek, A; Blum, V; Johanni, R; Havu, V; Lang, B; Auckenthaler, T;
 Heinecke, A; Bungartz, H; Lederer, H. 
 Journal of Physics: Condensed Matter, 26 (21), (2014). 
 The ELPA library: scalable parallel eigenvalue solutions for
 electronic structure
 theory and computational science.
 https://doi.org/10.1088/0953-8984/26/21/213201

 Krack, M. 
 THEORETICAL CHEMISTRY ACCOUNTS, 114 (1-3), 145-152 (2005). 
 Pseudopotentials for H to Kr optimized for gradient-corrected
 exchange-correlation functionals.
 https://doi.org/10.1007/s00214-005-0655-y

 Frigo, M; Johnson, SG. 
 PROCEEDINGS OF THE IEEE, 93 (2), 216-231 (2005). 
 The design and implementation of FFTW3.
 https://doi.org/10.1109/JPROC.2004.840301

 VandeVondele, J; Hutter, J. 
 JOURNAL OF CHEMICAL PHYSICS, 118 (10), 4365-4369 (2003). 
 An efficient orbital transformation method for electronic structure
 calculations.
 https://doi.org/10.1063/1.1543154

 Lippert, G; Hutter, J; Parrinello, M. 
 THEORETICAL CHEMISTRY ACCOUNTS, 103 (2), 124-140 (1999). 
 The Gaussian and augmented-plane-wave density functional method for ab
 initio molecular dynamics simulations.
 https://doi.org/10.1007/s002140050523

 Krack, M; Parrinello, M. 
 PHYSICAL CHEMISTRY CHEMICAL PHYSICS, 2 (10), 2105-2112 (2000). 
 All-electron ab-initio molecular dynamics.
 https://doi.org/10.1039/b001167n

 Hartwigsen, C; Goedecker, S; Hutter, J. 
 PHYSICAL REVIEW B, 58 (7), 3641-3662 (1998). 
 Relativistic separable dual-space Gaussian pseudopotentials from H to Rn.
 https://doi.org/10.1103/PhysRevB.58.3641

 Perdew, JP; Burke, K; Ernzerhof, M. 
 PHYSICAL REVIEW LETTERS, 77 (18), 3865-3868 (1996). 
 Generalized gradient approximation made simple.
 https://doi.org/10.1103/PhysRevLett.77.3865

 Goedecker, S; Teter, M; Hutter, J. 
 PHYSICAL REVIEW B, 54 (3), 1703-1710 (1996). 
 Separable dual-space Gaussian pseudopotentials.
 https://doi.org/10.1103/PhysRevB.54.1703


 -------------------------------------------------------------------------------
 -                                                                             -
 -                                T I M I N G                                  -
 -                                                                             -
 -------------------------------------------------------------------------------
 SUBROUTINE                       CALLS  ASD         SELF TIME        TOTAL TIME
                                MAXIMUM       AVERAGE  MAXIMUM  AVERAGE  MAXIMUM
 CP2K                                 1  1.0    0.013    0.040   29.705   29.707
 qs_energies                          1  2.0    0.000    0.000   29.440   29.441
 scf_env_do_scf                       1  3.0    0.000    0.000   29.227   29.228
 scf_env_do_scf_inner_loop           26  4.0    0.000    0.001   27.262   27.262
 qs_ks_update_qs_env                 28  5.0    0.000    0.000   25.379   25.382
 rebuild_ks_matrix                   26  6.0    0.000    0.000   25.372   25.374
 qs_ks_build_kohn_sham_matrix        26  7.0    0.005    0.006   25.372   25.374
 prepare_gapw_den                    26  8.0    0.000    0.001    9.119    9.153
 pw_transfer                        551 10.1    0.057    0.071    6.812    7.696
 fft_wrap_pw1pw2                    473 11.3    0.007    0.008    6.694    7.578
 fft_wrap_pw1pw2_300                314 12.6    0.415    0.469    6.278    7.133
 calculate_rho0_atom                 26  9.0    5.801    6.944    5.801    6.944
 fft3d_ps                           473 13.3    2.593    2.942    5.223    6.221
 qs_vxc_create                       26  8.0    0.001    0.001    5.641    5.641
 xc_vxc_pw_create                    26  9.0    0.036    0.039    5.640    5.641
 xc_pw_derive                       156 11.0    0.002    0.002    3.637    4.569
 rs_pw_transfer                     264  9.5    0.007    0.008    4.193    4.357
 integrate_vhg0_rspace               26  8.0    0.433    1.110    3.635    3.971
 xc_pw_divergence                    26 10.0    0.001    0.001    2.592    3.523
 mp_sum_d                          1101  6.5    3.141    3.403    3.141    3.403
 qs_rho_update_rho                   27  5.0    0.001    0.001    3.383    3.389
 mp_alltoall_z22v                   473 15.3    2.075    3.387    2.075    3.387
 xc_rho_set_and_dset_create          26 10.0    0.038    0.044    2.896    3.223
 calculate_rho_elec                  27  6.0    0.019    0.019    3.165    3.166
 sum_up_and_integrate                26  8.0    0.014    0.017    2.748    2.752
 integrate_v_rspace                  26  9.0    0.001    0.001    2.734    2.737
 mp_sum_dm                          160  7.7    2.518    2.730    2.518    2.730
 density_rs2pw                       27  7.0    0.001    0.002    2.501    2.698
 yz_to_x                            238 13.9    0.245    0.325    1.533    2.648
 calculate_rho_atom                  26  9.0    0.722    2.547    0.722    2.547
 mp_sum_dv                          306 12.5    1.210    2.257    1.210    2.257
 calculate_vxc_atom                  26  8.0    0.009    0.103    2.229    2.229
 potential_pw2rs                     26 10.0    0.002    0.002    2.136    2.138
 gaVxcgb_GC                          26  9.0    0.114    2.074    0.114    2.074
 init_scf_loop                        2  4.0    0.000    0.000    1.965    1.965
 rs_pw_transfer_RS2PW_300            53 10.0    0.827    1.021    1.591    1.781
 rs_pw_transfer_PW2RS_300            52 11.0    0.944    1.108    1.524    1.736
 xc_functional_eval                  78 10.9    0.000    0.001    1.173    1.503
 pbe_lda_eval                        78 11.9    1.172    1.502    1.172    1.502
 put_rho0_on_grid                    26  9.0    0.021    0.027    1.387    1.422
 mp_waitany                        4200 11.5    1.059    1.381    1.059    1.381
 x_to_yz                            235 14.7    0.290    0.338    1.078    1.229
 grid_collocate_task_list            27  7.0    0.501    0.999    0.501    0.999
 mp_waitall_1                     42296 13.9    0.769    0.956    0.769    0.956
 Vh_1c_gg_integrals                  26  8.0    0.107    0.759    0.769    0.790
 pw_gather_p                        238 12.9    0.520    0.649    0.520    0.649
 rs_pw_transfer_PW2RS_100            26 12.0    0.100    0.111    0.528    0.646
 mp_alltoall_d11v                   551 11.7    0.486    0.615    0.486    0.615
 rs_gather_matrices                  26 10.0    0.000    0.004    0.469    0.599
 grid_integrate_task_list            26 10.0    0.129    0.596    0.129    0.596
 -------------------------------------------------------------------------------

 The number of warnings for this run is : 0
 
 -------------------------------------------------------------------------------
  **** **** ******  **  PROGRAM ENDED AT                 2022-05-31 15:27:30.253
 ***** ** ***  *** **   PROGRAM RAN ON                                   tcopt10
 **    ****   ******    PROGRAM RAN BY                                    hutter
 ***** **    ** ** **   PROGRAM PROCESS ID                                  7319
  **** **  *******  **  PROGRAM STOPPED IN /data/hutter/GITHUB/BASIS/scMOLOPT/PB
                                           E/I
