 DBCSR| CPU Multiplication driver                                           XSMM
 DBCSR| Multrec recursion limit                                              512
 DBCSR| Multiplication stack size                                           1000
 DBCSR| Maximum elements for images                                    UNLIMITED
 DBCSR| Multiplicative factor virtual images                                   1
 DBCSR| Use multiplication densification                                       T
 DBCSR| Multiplication size stacks                                             3
 DBCSR| Use memory pool for CPU allocation                                     F
 DBCSR| Number of 3D layers                                               SINGLE
 DBCSR| Use MPI memory allocation                                              F
 DBCSR| Use RMA algorithm                                                      F
 DBCSR| Use Communication thread                                               T
 DBCSR| Communication thread load                                             87
 DBCSR| MPI: My node id                                                        0
 DBCSR| MPI: Number of nodes                                                  36
 DBCSR| OMP: Current number of threads                                         1
 DBCSR| OMP: Max number of threads                                             1
 DBCSR| Split modifier for TAS multiplication algorithm                  1.0E+00


  **** **** ******  **  PROGRAM STARTED AT               2022-05-31 15:29:47.890
 ***** ** ***  *** **   PROGRAM STARTED ON                               tcopt10
 **    ****   ******    PROGRAM STARTED BY                                hutter
 ***** **    ** ** **   PROGRAM PROCESS ID                                  8038
  **** **  *******  **  PROGRAM STARTED IN /data/hutter/GITHUB/BASIS/scMOLOPT/PB
                                           E/I

 CP2K| version string:                   CP2K version 10.0 (Development Version)
 CP2K| source code revision number:                                  git:d19b00a
 CP2K| cp2kflags: omp libint fftw3 libxc elpa parallel mpi3 scalapack cosma xsmm
 CP2K|             spglib sirius libvori libbqb
 CP2K| is freely available from                            https://www.cp2k.org/
 CP2K| Program compiled at                      Wed 18 May 2022 12:15:59 PM CEST
 CP2K| Program compiled on                                               tcopt10
 CP2K| Program compiled for                                                local
 CP2K| Data directory path                   /data/hutter/GITHUB/TDLRI/cp2k/data
 CP2K| Input file name                                                KI-ref.inp

 GLOBAL| Force Environment number                                              1
 GLOBAL| Basis set file name                                        ../def2QZVPP
 GLOBAL| Potential file name                                        ../POTENTIAL
 GLOBAL| MM Potential file name                                     MM_POTENTIAL
 GLOBAL| Coordinate file name                                      __STD_INPUT__
 GLOBAL| Method name                                                        CP2K
 GLOBAL| Project name                                                      refKI
 GLOBAL| Run type                                                         ENERGY
 GLOBAL| FFT library                                                       FFTW3
 GLOBAL| Diagonalization library                                            ELPA
 GLOBAL| Minimum number of eigenvectors for ELPA usage                        16
 GLOBAL| Orthonormality check for eigenvectors                          DISABLED
 GLOBAL| Matrix multiplication library                                     COSMA
 GLOBAL| All-to-all communication in single precision                          F
 GLOBAL| FFTs using library dependent lengths                                  F
 GLOBAL| Grid backend                                                       AUTO
 GLOBAL| Global print level                                                  LOW
 GLOBAL| MPI I/O enabled                                                       T
 GLOBAL| Total number of message passing processes                            36
 GLOBAL| Number of threads for this process                                    1
 GLOBAL| This output is from process                                           0
 GLOBAL| Stack size for threads created by OpenMP (OMP_STACKSIZE)        default
 GLOBAL| CPU model name                          AMD EPYC 7401 24-Core Processor
 GLOBAL| CPUID                                                              1002

 MEMORY| system memory details [Kb]
 MEMORY|                        rank 0           min           max       average
 MEMORY| MemTotal            263969132     263969132     263969132     263969132
 MEMORY| MemFree             237129492     237129492     237129492     237129492
 MEMORY| Buffers                  2836          2836          2836          2836
 MEMORY| Cached               20266428      20266428      20266428      20266428
 MEMORY| Slab                  1471308       1471308       1471308       1471308
 MEMORY| SReclaimable           875748        875748        875748        875748
 MEMORY| MemLikelyFree       258274504     258274504     258274504     258274504


 GENERATE|  Preliminary Number of Bonds generated:                             0
 GENERATE|  Achieved consistency in connectivity generation.

 *******************************************************************************
 *******************************************************************************
 **                                                                           **
 **     #####                         ##              ##                      **
 **    ##   ##            ##          ##              ##                      **
 **   ##     ##                       ##            ######                    **
 **   ##     ##  ##   ##  ##   #####  ##  ##   ####   ##    #####    #####    **
 **   ##     ##  ##   ##  ##  ##      ## ##   ##      ##   ##   ##  ##   ##   **
 **   ##  ## ##  ##   ##  ##  ##      ####     ###    ##   ######   ######    **
 **    ##  ###   ##   ##  ##  ##      ## ##      ##   ##   ##       ##        **
 **     #######   #####   ##   #####  ##  ##  ####    ##    #####   ##        **
 **           ##                                                    ##        **
 **                                                                           **
 **                                                ... make the atoms dance   **
 **                                                                           **
 **            Copyright (C) by CP2K developers group (2000-2022)             **
 **                      J. Chem. Phys. 152, 194103 (2020)                    **
 **                                                                           **
 *******************************************************************************


 TOTAL NUMBERS AND MAXIMUM NUMBERS

  Total number of            - Atomic kinds:                                   2
                             - Atoms:                                          2
                             - Shell sets:                                    46
                             - Shells:                                        46
                             - Primitive Cartesian functions:                 96
                             - Cartesian basis functions:                    187
                             - Spherical basis functions:                    152

  Maximum angular momentum of- Orbital basis functions:                        4
                             - Local part of the GTH pseudopotential:          4
                             - Non-local part of the GTH pseudopotential:      4


 SCF PARAMETERS         Density guess:                                    ATOMIC
                        --------------------------------------------------------
                        max_scf:                                              20
                        max_scf_history:                                       0
                        max_diis:                                              4
                        --------------------------------------------------------
                        eps_scf:                                        1.00E-07
                        eps_scf_history:                                0.00E+00
                        eps_diis:                                       1.00E-01
                        eps_eigval:                                     1.00E-05
                        --------------------------------------------------------
                        level_shift [a.u.]:                             0.000000
                        --------------------------------------------------------
                        Outer loop SCF in use 
                        No variables optimised in outer loop
                        eps_scf                                         1.00E-07
                        max_scf                                                5
                        No outer loop optimization
                        step_size                                       5.00E-01

 Number of electrons:                                                         44
 Number of occupied orbitals:                                                 22
 Number of molecular orbitals:                                                22

 Number of orbital functions:                                                152
 Number of independent orbital functions:                                    152

 Extrapolation method: initial_guess


 SCF WAVEFUNCTION OPTIMIZATION

  ----------------------------------- OT ---------------------------------------
  Minimizer      : DIIS                : direct inversion
                                         in the iterative subspace
                                         using   7 DIIS vectors
                                         safer DIIS on
  Preconditioner : FULL_ALL            : diagonalization, state selective
  Precond_solver : DEFAULT
  stepsize       :    0.10000000                  energy_gap     :    0.08000000
  eps_taylor     :   0.10000E-15                  max_taylor     :             4
  ----------------------------------- OT ---------------------------------------

  Step     Update method      Time    Convergence         Total energy    Change
  ------------------------------------------------------------------------------
     1 OT DIIS     0.10E+00    1.0     0.11556248      -876.4719210437 -8.76E+02
     2 OT DIIS     0.10E+00    1.1     0.06415508      -879.9530790497 -3.48E+00
     3 OT DIIS     0.10E+00    1.2     0.02398206      -881.4058318009 -1.45E+00
     4 OT DIIS     0.10E+00    1.1     0.02077844      -881.5981748928 -1.92E-01
     5 OT DIIS     0.10E+00    1.1     0.01484069      -881.8203650222 -2.22E-01
     6 OT DIIS     0.10E+00    1.1     0.00796293      -881.9378260707 -1.17E-01
     7 OT DIIS     0.10E+00    1.1     0.00533038      -881.9746270119 -3.68E-02
     8 OT DIIS     0.10E+00    1.1     0.00304155      -882.0085386909 -3.39E-02
     9 OT DIIS     0.10E+00    1.1     0.00260169      -882.0132592063 -4.72E-03
    10 OT DIIS     0.10E+00    1.1     0.00202509      -882.0187198442 -5.46E-03
    11 OT DIIS     0.10E+00    1.1     0.00182672      -882.0205873437 -1.87E-03
    12 OT DIIS     0.10E+00    1.1     0.00172629      -882.0235406387 -2.95E-03
    13 OT SD       0.10E+00    1.1     0.00175491      -882.0256311725 -2.09E-03
    14 OT SD       0.10E+00    1.2     0.00173814      -882.0266521171 -1.02E-03
    15 OT SD       0.10E+00    1.2     0.00175082      -882.0276650903 -1.01E-03
    16 OT SD       0.10E+00    1.2     0.00177213      -882.0286959769 -1.03E-03
    17 OT SD       0.10E+00    1.1     0.00179794      -882.0297535195 -1.06E-03
    18 OT SD       0.10E+00    1.2     0.00182714      -882.0308430536 -1.09E-03
    19 OT SD       0.10E+00    1.1     0.00185930      -882.0319690536 -1.13E-03
    20 OT SD       0.10E+00    1.2     0.00189420      -882.0331357416 -1.17E-03

  Leaving inner SCF loop after reaching    20 steps.


  Electronic density on regular grids:        -35.5415351987        8.4584648013
  Core density on regular grids:               44.0000000000        0.0000000000
  Hard and soft densities (Lebedev):          -44.4142213667      -35.9557563391
  Total Rho_soft + Rho1_hard - Rho1_soft      -44.0000002263
  Total charge density (r-space):              -0.0000002263
  Total Rho_soft + Rho0_soft (g-space):        -0.0000003536

  Overlap energy of the core charge distribution:               0.00000000000000
  Self energy of the core charge distribution:               -715.82625224945684
  Core Hamiltonian energy:                                   -252.26401800417926
  Hartree energy:                                             271.45485260492615
  Exchange-correlation energy:                                -26.01147144254531

  GAPW| Exc from hard and soft atomic rho1:                   -27.39161843741969
  GAPW| local Eh = 1 center integrals:                       -131.99462821296441

  Total energy:                                              -882.03313574163940

  outer SCF iter =    1 RMS gradient =   0.19E-02 energy =       -882.0331357416

  ----------------------------------- OT ---------------------------------------
  Minimizer      : DIIS                : direct inversion
                                         in the iterative subspace
                                         using   7 DIIS vectors
                                         safer DIIS on
  Preconditioner : FULL_ALL            : diagonalization, state selective
  Precond_solver : DEFAULT
  stepsize       :    0.10000000                  energy_gap     :    0.08000000
  eps_taylor     :   0.10000E-15                  max_taylor     :             4
  ----------------------------------- OT ---------------------------------------

  Step     Update method      Time    Convergence         Total energy    Change
  ------------------------------------------------------------------------------
     1 OT DIIS     0.10E+00    2.3     0.01244328      -882.0343472792 -1.21E-03
     2 OT SD       0.10E+00    1.2     0.02360623      -882.1098585005 -7.55E-02
     3 OT SD       0.10E+00    1.1     0.02106631      -882.2946116819 -1.85E-01
     4 OT SD       0.10E+00    1.1     0.01341566      -882.4150407715 -1.20E-01
     5 OT SD       0.10E+00    1.2     0.00849970      -882.4634234365 -4.84E-02
     6 OT DIIS     0.10E+00    1.1     0.00544180      -882.4831737566 -1.98E-02
     7 OT DIIS     0.10E+00    1.1     0.00465929      -882.4901043481 -6.93E-03
     8 OT DIIS     0.10E+00    1.1     0.00577550      -882.4911601257 -1.06E-03
     9 OT DIIS     0.10E+00    1.1     0.00145706      -882.4959093097 -4.75E-03
    10 OT DIIS     0.10E+00    1.1     0.00119579      -882.4962315711 -3.22E-04
    11 OT DIIS     0.10E+00    1.1     0.00044661      -882.4966999860 -4.68E-04
    12 OT DIIS     0.10E+00    1.1     0.00016791      -882.4967729826 -7.30E-05
    13 OT DIIS     0.10E+00    1.1     0.00017033      -882.4967775263 -4.54E-06
    14 OT DIIS     0.10E+00    1.1     0.00003200      -882.4967844985 -6.97E-06
    15 OT DIIS     0.10E+00    1.1     0.00001652      -882.4967852031 -7.05E-07
    16 OT DIIS     0.10E+00    1.1     0.00000786      -882.4967853707 -1.68E-07
    17 OT DIIS     0.10E+00    1.1     0.00000361      -882.4967854119 -4.11E-08
    18 OT DIIS     0.10E+00    1.2     0.00000173      -882.4967854204 -8.53E-09
    19 OT DIIS     0.10E+00    1.1     0.00000112      -882.4967854218 -1.41E-09
    20 OT DIIS     0.10E+00    1.1     0.00000040      -882.4967854222 -3.53E-10

  Leaving inner SCF loop after reaching    20 steps.


  Electronic density on regular grids:        -35.5062701110        8.4937298890
  Core density on regular grids:               44.0000000000        0.0000000000
  Hard and soft densities (Lebedev):          -44.5793558132      -36.0856257031
  Total Rho_soft + Rho1_hard - Rho1_soft      -44.0000002210
  Total charge density (r-space):              -0.0000002210
  Total Rho_soft + Rho0_soft (g-space):        -0.0000003481

  Overlap energy of the core charge distribution:               0.00000000000000
  Self energy of the core charge distribution:               -715.82625224945684
  Core Hamiltonian energy:                                   -252.02189457189201
  Hartree energy:                                             271.08840980154599
  Exchange-correlation energy:                                -26.26134456544952

  GAPW| Exc from hard and soft atomic rho1:                   -27.44975611150391
  GAPW| local Eh = 1 center integrals:                       -132.02594772540402

  Total energy:                                              -882.49678542216009

  outer SCF iter =    2 RMS gradient =   0.40E-06 energy =       -882.4967854222

  ----------------------------------- OT ---------------------------------------
  Minimizer      : DIIS                : direct inversion
                                         in the iterative subspace
                                         using   7 DIIS vectors
                                         safer DIIS on
  Preconditioner : FULL_ALL            : diagonalization, state selective
  Precond_solver : DEFAULT
  stepsize       :    0.10000000                  energy_gap     :    0.08000000
  eps_taylor     :   0.10000E-15                  max_taylor     :             4
  ----------------------------------- OT ---------------------------------------

  Step     Update method      Time    Convergence         Total energy    Change
  ------------------------------------------------------------------------------
     1 OT DIIS     0.10E+00    2.3     0.00000034      -882.4967854222 -6.12E-11
     2 OT DIIS     0.10E+00    1.1     0.00000021      -882.4967854225 -3.14E-10
     3 OT DIIS     0.10E+00    1.1     0.00000006      -882.4967854257 -3.21E-09

  *** SCF run converged in     3 steps ***


  Electronic density on regular grids:        -35.5062702532        8.4937297468
  Core density on regular grids:               44.0000000000        0.0000000000
  Hard and soft densities (Lebedev):          -44.5793422280      -36.0856122601
  Total Rho_soft + Rho1_hard - Rho1_soft      -44.0000002210
  Total charge density (r-space):              -0.0000002210
  Total Rho_soft + Rho0_soft (g-space):        -0.0000003481

  Overlap energy of the core charge distribution:               0.00000000000000
  Self energy of the core charge distribution:               -715.82625224945684
  Core Hamiltonian energy:                                   -252.02189272127811
  Hartree energy:                                             271.08840992427224
  Exchange-correlation energy:                                -26.26134445362236

  GAPW| Exc from hard and soft atomic rho1:                   -27.44975569284677
  GAPW| local Eh = 1 center integrals:                       -132.02595023281617

  Total energy:                                              -882.49678542574793

  outer SCF iter =    3 RMS gradient =   0.57E-07 energy =       -882.4967854257
  outer SCF loop converged in   3 iterations or   43 steps


 ENERGY| Total FORCE_EVAL ( QS ) energy [a.u.]:             -882.496785425747930

 -------------------------------------------------------------------------------
 -                                                                             -
 -                                DBCSR STATISTICS                             -
 -                                                                             -
 -------------------------------------------------------------------------------
 COUNTER                                    TOTAL       BLAS       SMM       ACC
 flops    22 x    22 x    22              7474896       0.0%    100.0%      0.0%
 flops    70 x    70 x    22              9486400       0.0%    100.0%      0.0%
 flops    82 x    70 x    22             11112640       0.0%    100.0%      0.0%
 flops    22 x    22 x    70             11858000       0.0%    100.0%      0.0%
 flops    82 x    82 x    22             13017664       0.0%    100.0%      0.0%
 flops    22 x    22 x    82             13890800       0.0%    100.0%      0.0%
 flops    70 x    22 x    22             14771680       0.0%    100.0%      0.0%
 flops    82 x    22 x    22             17303968       0.0%    100.0%      0.0%
 flops    70 x    22 x    70             42688800       0.0%    100.0%      0.0%
 flops    82 x    22 x    70             50006880       0.0%    100.0%      0.0%
 flops    70 x    22 x    82             50006880       0.0%    100.0%      0.0%
 flops    82 x    22 x    82             58579488       0.0%    100.0%      0.0%
 flops inhomo. stacks                           0       0.0%      0.0%      0.0%
 flops total                       300.198096E+06       0.0%    100.0%      0.0%
 flops max/rank                    172.131696E+06       0.0%    100.0%      0.0%
 matmuls inhomo. stacks                         0       0.0%      0.0%      0.0%
 matmuls total                               2061       0.0%    100.0%      0.0%
 number of processed stacks                  2061       0.0%    100.0%      0.0%
 average stack size                                     0.0       1.0       0.0
 marketing flops                   311.749440E+06
 -------------------------------------------------------------------------------
 # multiplications                            989
 max memory usage/rank             644.018176E+06
 # max total images/rank                        1
 # max 3D layers                                1
 # MPI messages exchanged                  356040
 MPI messages size (bytes):
  total size                       315.025920E+06
  min size                           0.000000E+00
  max size                          53.792000E+03
  average size                     884.804871E+00
 MPI breakdown and total messages size (bytes):
             size <=      128              338940                        0
       128 < size <=     8192                4600                 17811200
      8192 < size <=    32768                8540                114231040
     32768 < size <=   131072                3960                182983680
    131072 < size <=  4194304                   0                        0
   4194304 < size <= 16777216                   0                        0
  16777216 < size                               0                        0
 -------------------------------------------------------------------------------
 -                                                                             -
 -                      DBCSR MESSAGE PASSING PERFORMANCE                      -
 -                                                                             -
 -------------------------------------------------------------------------------
 ROUTINE             CALLS      AVE VOLUME [Bytes]
 MP_Bcast               13                     12.
 MP_Allreduce         5276                      8.
 MP_Alltoall          3724                   3341.
 MP_ISend            23724                   1843.
 MP_IRecv            23724                    723.
 -------------------------------------------------------------------------------

 -------------------------------------------------------------------------------
 -                                                                             -
 -                                GRID STATISTICS                              -
 -                                                                             -
 -------------------------------------------------------------------------------
 LP    KERNEL             BACKEND                              COUNT     PERCENT
 2     collocate ortho    REF                                  75724      13.99%
 2     integrate ortho    REF                                  74003      13.67%
 1     collocate ortho    REF                                  71192      13.15%
 1     integrate ortho    REF                                  69574      12.85%
 3     collocate ortho    REF                                  52800       9.76%
 3     integrate ortho    REF                                  51600       9.53%
 4     collocate ortho    REF                                  29612       5.47%
 4     integrate ortho    REF                                  28939       5.35%
 0     collocate ortho    REF                                  27456       5.07%
 0     integrate ortho    REF                                  26832       4.96%
 5     collocate ortho    REF                                  10604       1.96%
 5     integrate ortho    REF                                  10363       1.91%
 2     collocate general  REF                                   3096       0.57%
 2     integrate general  REF                                   3096       0.57%
 6     collocate ortho    REF                                   2728       0.50%
 6     integrate ortho    REF                                   2666       0.49%
 7     collocate ortho    REF                                    440       0.08%
 7     integrate ortho    REF                                    430       0.08%
 8     collocate ortho    REF                                     44       0.01%
 8     integrate ortho    REF                                     43       0.01%
 -------------------------------------------------------------------------------

 MEMORY| Estimated peak process memory [MiB]                                 615

 -------------------------------------------------------------------------------
 -                                                                             -
 -                         MESSAGE PASSING PERFORMANCE                         -
 -                                                                             -
 -------------------------------------------------------------------------------

 ROUTINE             CALLS      AVE VOLUME [Bytes]
 MP_Group                4
 MP_Bcast              818                 408523.
 MP_Allreduce         2349                 488129.
 MP_Sync               102
 MP_Alltoall           878                6431025.
 MP_ISendRecv         9135                 115968.
 MP_Wait             16574
 MP_comm_split          49
 MP_ISend             6920                 291600.
 MP_IRecv             6920                 291600.
 MP_Recv                15                   4864.
 -------------------------------------------------------------------------------


 -------------------------------------------------------------------------------
 -                                                                             -
 -                           R E F E R E N C E S                               -
 -                                                                             -
 -------------------------------------------------------------------------------
 
 CP2K version 10.0 (Development Version), the CP2K developers group (2022).
 CP2K is freely available from https://www.cp2k.org/ .

 Kuehne,Thomas D.; Iannuzzi,Marcella; Del Ben,Mauro;
 Rybkin,Vladimir V.; Seewald,Patrick; Stein,Frederick; Laino,Teodoro;
 Khaliullin,Rustam Z.; Schuett,Ole; Schiffmann,Florian; Golze,Dorothea;
 Wilhelm,Jan; Chulkov,Sergey; Bani-Hashemian,Mohammad Hossein;
 Weber,Valery; Borstnik,Urban; Taillefumier,Mathieu;
 Jakobovits,Alice Shoshana; Lazzaro,Alfio; Pabst,Hans; Mueller,Tiziano;
 Schade,Robert; Guidon,Manuel; Andermatt,Samuel; Holmberg,Nico;
 Schenter,Gregory K.; Hehn,Anna; Bussy,Augustin; Belleflamme,Fabian;
 Tabacchi,Gloria; Gloess,Andreas; Lass,Michael; Bethune,Iain;
 Mundy,Christopher J.; Plessl,Christian; Watkins,Matt;
 VandeVondele,Joost; Krack,Matthias; Hutter,Juerg. 
 The Journal of Chemical Physics, 152 (19), (2020). 
 CP2K: An electronic structure and molecular dynamics software package -
 Quickstep: Efficient and accurate electronic structure calculations.
 https://doi.org/10.1063/5.0007045

 Schuett, Ole; Messmer, Peter; Hutter, Juerg; VandeVondele, Joost. 
 Electronic Structure Calculations on Graphics Processing Units, John
 Wiley & Sons, Ltd, 173-190 (2016). 
 GPU-Accelerated Sparse Matrix-Matrix Multiplication for
 Linear Scaling Density Functional Theory.
 https://doi.org/10.1002/9781118670712.ch8

 Heinecke, A; Henry, G; Hutchinson, M; Pabst, H. 
 Proceedings of Intl. Supercomputing Conference, 981-991 (2016). 
 LIBXSMM: Accelerating Small Matrix Multiplications
 by Runtime Code Generation.
 https://doi.org/10.1109/SC.2016.83

 Borstnik, U; VandeVondele, J; Weber, V; Hutter, J. 
 PARALLEL COMPUTING, 40 (5-6), 47-58 (2014). 
 Sparse matrix multiplication: The distributed block-compressed sparse
 row library.
 https://doi.org/10.1016/j.parco.2014.03.012

 Hutter, J; Iannuzzi, M; Schiffmann, F; VandeVondele, J. 
 WIREs Comput Mol Sci., 4 (1), 15-25 (2014). 
 CP2K: atomistic simulations of condensed matter systems.
 https://doi.org/10.1002/wcms.1159

 Marek, A; Blum, V; Johanni, R; Havu, V; Lang, B; Auckenthaler, T;
 Heinecke, A; Bungartz, H; Lederer, H. 
 Journal of Physics: Condensed Matter, 26 (21), (2014). 
 The ELPA library: scalable parallel eigenvalue solutions for
 electronic structure
 theory and computational science.
 https://doi.org/10.1088/0953-8984/26/21/213201

 Krack, M. 
 THEORETICAL CHEMISTRY ACCOUNTS, 114 (1-3), 145-152 (2005). 
 Pseudopotentials for H to Kr optimized for gradient-corrected
 exchange-correlation functionals.
 https://doi.org/10.1007/s00214-005-0655-y

 Frigo, M; Johnson, SG. 
 PROCEEDINGS OF THE IEEE, 93 (2), 216-231 (2005). 
 The design and implementation of FFTW3.
 https://doi.org/10.1109/JPROC.2004.840301

 VandeVondele, J; Hutter, J. 
 JOURNAL OF CHEMICAL PHYSICS, 118 (10), 4365-4369 (2003). 
 An efficient orbital transformation method for electronic structure
 calculations.
 https://doi.org/10.1063/1.1543154

 Lippert, G; Hutter, J; Parrinello, M. 
 THEORETICAL CHEMISTRY ACCOUNTS, 103 (2), 124-140 (1999). 
 The Gaussian and augmented-plane-wave density functional method for ab
 initio molecular dynamics simulations.
 https://doi.org/10.1007/s002140050523

 Krack, M; Parrinello, M. 
 PHYSICAL CHEMISTRY CHEMICAL PHYSICS, 2 (10), 2105-2112 (2000). 
 All-electron ab-initio molecular dynamics.
 https://doi.org/10.1039/b001167n

 Hartwigsen, C; Goedecker, S; Hutter, J. 
 PHYSICAL REVIEW B, 58 (7), 3641-3662 (1998). 
 Relativistic separable dual-space Gaussian pseudopotentials from H to Rn.
 https://doi.org/10.1103/PhysRevB.58.3641

 Perdew, JP; Burke, K; Ernzerhof, M. 
 PHYSICAL REVIEW LETTERS, 77 (18), 3865-3868 (1996). 
 Generalized gradient approximation made simple.
 https://doi.org/10.1103/PhysRevLett.77.3865

 Goedecker, S; Teter, M; Hutter, J. 
 PHYSICAL REVIEW B, 54 (3), 1703-1710 (1996). 
 Separable dual-space Gaussian pseudopotentials.
 https://doi.org/10.1103/PhysRevB.54.1703


 -------------------------------------------------------------------------------
 -                                                                             -
 -                                T I M I N G                                  -
 -                                                                             -
 -------------------------------------------------------------------------------
 SUBROUTINE                       CALLS  ASD         SELF TIME        TOTAL TIME
                                MAXIMUM       AVERAGE  MAXIMUM  AVERAGE  MAXIMUM
 CP2K                                 1  1.0    0.012    0.037   50.460   50.461
 qs_energies                          1  2.0    0.000    0.000   50.127   50.128
 scf_env_do_scf                       1  3.0    0.000    0.000   49.155   49.155
 scf_env_do_scf_inner_loop           43  4.0    0.001    0.002   46.246   46.247
 qs_ks_update_qs_env                 46  5.0    0.000    0.000   41.375   41.382
 rebuild_ks_matrix                   43  6.0    0.000    0.000   41.363   41.366
 qs_ks_build_kohn_sham_matrix        43  7.0    0.009    0.011   41.363   41.366
 prepare_gapw_den                    43  8.0    0.001    0.002   11.274   11.368
 pw_transfer                        908 10.1    0.095    0.117   10.736   10.951
 fft_wrap_pw1pw2                    779 11.3    0.011    0.014   10.544   10.761
 fft_wrap_pw1pw2_300                518 12.7    0.719    0.812    9.872   10.158
 qs_vxc_create                       43  8.0    0.001    0.001    9.628    9.631
 xc_vxc_pw_create                    43  9.0    0.074    0.092    9.627    9.630
 mp_sum_d                          1604  7.8    8.437    8.810    8.437    8.810
 fft3d_ps                           779 13.3    4.230    5.227    8.084    8.536
 rs_pw_transfer                     434  9.5    0.011    0.014    6.804    7.306
 calculate_rho0_atom                 86  9.0    6.040    7.183    6.040    7.183
 qs_rho_update_rho                   44  5.0    0.001    0.001    6.943    6.953
 calculate_vxc_atom                  43  8.0    0.020    0.272    6.425    6.426
 gaVxcgb_GC                          86  9.0    0.166    5.985    0.166    5.985
 xc_pw_derive                       258 11.0    0.003    0.003    5.605    5.667
 calculate_rho_atom                  86  9.0    1.944    5.649    1.944    5.649
 calculate_rho_elec                  44  6.0    0.031    0.032    5.617    5.618
 xc_rho_set_and_dset_create          43 10.0    0.069    0.089    5.331    5.408
 sum_up_and_integrate                43  8.0    0.022    0.029    5.113    5.130
 integrate_v_rspace                  43  9.0    0.001    0.001    5.091    5.103
 density_rs2pw                       44  7.0    0.002    0.003    4.188    4.727
 integrate_vhg0_rspace               43  8.0    0.519    1.465    4.092    4.652
 xc_pw_divergence                    43 10.0    0.001    0.002    3.988    4.050
 mp_sum_dm                          262  7.7    3.489    3.863    3.489    3.863
 mp_sum_dv                          785 12.8    1.066    3.803    1.066    3.803
 mp_alltoall_z22v                   779 15.3    2.896    3.629    2.896    3.629
 potential_pw2rs                     43 10.0    0.003    0.004    3.403    3.406
 rs_pw_transfer_RS2PW_300            87 10.0    1.372    1.758    2.731    3.290
 init_scf_loop                        3  4.0    0.000    0.000    2.908    2.908
 mp_waitany                        6920 11.5    1.845    2.739    1.845    2.739
 xc_functional_eval                 215 10.9    0.001    0.001    2.572    2.718
 pbe_lda_eval                       215 11.9    2.571    2.717    2.571    2.717
 rs_pw_transfer_PW2RS_300            86 11.0    1.364    1.731    2.297    2.655
 yz_to_x                            391 13.9    0.449    0.590    2.105    2.497
 put_rho0_on_grid                    43  9.0    0.035    0.043    2.227    2.321
 grid_collocate_task_list            44  7.0    1.138    2.197    1.138    2.197
 dbcsr_multiply_generic             989 10.1    0.027    0.028    1.987    2.053
 x_to_yz                            388 14.7    0.480    0.563    1.720    1.983
 update_ks_atom                      43  8.0    0.049    1.247    0.688    1.765
 grid_integrate_task_list            43 10.0    0.672    1.684    0.672    1.684
 mp_waitall_1                     72950 13.9    1.260    1.660    1.260    1.660
 mp_alltoall_d11v                   903 11.9    1.052    1.649    1.052    1.649
 Vh_1c_gg_integrals                  43  8.0    0.056    1.593    1.596    1.627
 rs_gather_matrices                  43 10.0    0.001    0.010    1.015    1.609
 mp_sum_l                          5079 10.6    1.289    1.361    1.289    1.361
 calculate_rho_atom_coeff            44  6.0    0.081    1.214    1.325    1.335
 pw_gather_p                        391 12.9    0.861    1.133    0.861    1.133
 rs_pw_transfer_PW2RS_100            43 12.0    0.166    0.185    0.903    1.101
 -------------------------------------------------------------------------------

 The number of warnings for this run is : 0
 
 -------------------------------------------------------------------------------
  **** **** ******  **  PROGRAM ENDED AT                 2022-05-31 15:30:38.746
 ***** ** ***  *** **   PROGRAM RAN ON                                   tcopt10
 **    ****   ******    PROGRAM RAN BY                                    hutter
 ***** **    ** ** **   PROGRAM PROCESS ID                                  8038
  **** **  *******  **  PROGRAM STOPPED IN /data/hutter/GITHUB/BASIS/scMOLOPT/PB
                                           E/I
