 DBCSR| CPU Multiplication driver                                           XSMM
 DBCSR| Multrec recursion limit                                              512
 DBCSR| Multiplication stack size                                           1000
 DBCSR| Maximum elements for images                                    UNLIMITED
 DBCSR| Multiplicative factor virtual images                                   1
 DBCSR| Use multiplication densification                                       T
 DBCSR| Multiplication size stacks                                             3
 DBCSR| Use memory pool for CPU allocation                                     F
 DBCSR| Number of 3D layers                                               SINGLE
 DBCSR| Use MPI memory allocation                                              F
 DBCSR| Use RMA algorithm                                                      F
 DBCSR| Use Communication thread                                               T
 DBCSR| Communication thread load                                             87
 DBCSR| MPI: My node id                                                        0
 DBCSR| MPI: Number of nodes                                                  24
 DBCSR| OMP: Current number of threads                                         1
 DBCSR| OMP: Max number of threads                                             1
 DBCSR| Split modifier for TAS multiplication algorithm                  1.0E+00


  **** **** ******  **  PROGRAM STARTED AT               2022-05-12 12:35:16.292
 ***** ** ***  *** **   PROGRAM STARTED ON                               tcopt10
 **    ****   ******    PROGRAM STARTED BY                                hutter
 ***** **    ** ** **   PROGRAM PROCESS ID                                 61912
  **** **  *******  **  PROGRAM STARTED IN /data/hutter/GITHUB/BASIS/scMOLOPT/PB
                                           E/Mg

 CP2K| version string:                   CP2K version 10.0 (Development Version)
 CP2K| source code revision number:                                  git:13fcfd8
 CP2K| cp2kflags: omp libint fftw3 libxc elpa parallel mpi3 scalapack cosma xsmm
 CP2K|             spglib sirius libvori libbqb
 CP2K| is freely available from                            https://www.cp2k.org/
 CP2K| Program compiled at                      Tue 10 May 2022 02:27:21 PM CEST
 CP2K| Program compiled on                                               tcopt10
 CP2K| Program compiled for                                                local
 CP2K| Data directory path                   /data/hutter/GITHUB/TDLRI/cp2k/data
 CP2K| Input file name                                               Mg4-ref.inp

 GLOBAL| Force Environment number                                              1
 GLOBAL| Basis set file name                                        ../def2QZVPP
 GLOBAL| Potential file name                                        ../POTENTIAL
 GLOBAL| MM Potential file name                                     MM_POTENTIAL
 GLOBAL| Coordinate file name                                      __STD_INPUT__
 GLOBAL| Method name                                                        CP2K
 GLOBAL| Project name                                                  refMg4q10
 GLOBAL| Run type                                                         ENERGY
 GLOBAL| FFT library                                                       FFTW3
 GLOBAL| Diagonalization library                                       ScaLAPACK
 GLOBAL| Orthonormality check for eigenvectors                          DISABLED
 GLOBAL| Matrix multiplication library                                     COSMA
 GLOBAL| All-to-all communication in single precision                          F
 GLOBAL| FFTs using library dependent lengths                                  F
 GLOBAL| Grid backend                                                       AUTO
 GLOBAL| Global print level                                                  LOW
 GLOBAL| MPI I/O enabled                                                       T
 GLOBAL| Total number of message passing processes                            24
 GLOBAL| Number of threads for this process                                    1
 GLOBAL| This output is from process                                           0
 GLOBAL| Stack size for threads created by OpenMP (OMP_STACKSIZE)        default
 GLOBAL| CPU model name                          AMD EPYC 7401 24-Core Processor
 GLOBAL| CPUID                                                              1002

 MEMORY| system memory details [Kb]
 MEMORY|                        rank 0           min           max       average
 MEMORY| MemTotal            263969136     263969136     263969136     263969136
 MEMORY| MemFree             240000156     240000156     240000156     240000156
 MEMORY| Buffers                   136           136           136           136
 MEMORY| Cached               18906508      18906508      18906508      18906508
 MEMORY| Slab                  1421356       1421356       1421356       1421356
 MEMORY| SReclaimable           870724        870724        870724        870724
 MEMORY| MemLikelyFree       259777524     259777524     259777524     259777524


 GENERATE|  Preliminary Number of Bonds generated:                             0
 GENERATE|  Achieved consistency in connectivity generation.

 *******************************************************************************
 *******************************************************************************
 **                                                                           **
 **     #####                         ##              ##                      **
 **    ##   ##            ##          ##              ##                      **
 **   ##     ##                       ##            ######                    **
 **   ##     ##  ##   ##  ##   #####  ##  ##   ####   ##    #####    #####    **
 **   ##     ##  ##   ##  ##  ##      ## ##   ##      ##   ##   ##  ##   ##   **
 **   ##  ## ##  ##   ##  ##  ##      ####     ###    ##   ######   ######    **
 **    ##  ###   ##   ##  ##  ##      ## ##      ##   ##   ##       ##        **
 **     #######   #####   ##   #####  ##  ##  ####    ##    #####   ##        **
 **           ##                                                    ##        **
 **                                                                           **
 **                                                ... make the atoms dance   **
 **                                                                           **
 **            Copyright (C) by CP2K developers group (2000-2022)             **
 **                      J. Chem. Phys. 152, 194103 (2020)                    **
 **                                                                           **
 *******************************************************************************


 TOTAL NUMBERS AND MAXIMUM NUMBERS

  Total number of            - Atomic kinds:                                   1
                             - Atoms:                                          4
                             - Shell sets:                                    84
                             - Shells:                                        84
                             - Primitive Cartesian functions:                156
                             - Cartesian basis functions:                    296
                             - Spherical basis functions:                    252

  Maximum angular momentum of the orbital basis functions:                     3


 SCF PARAMETERS         Density guess:                                    ATOMIC
                        --------------------------------------------------------
                        max_scf:                                              20
                        max_scf_history:                                       0
                        max_diis:                                              4
                        --------------------------------------------------------
                        eps_scf:                                        1.00E-07
                        eps_scf_history:                                0.00E+00
                        eps_diis:                                       1.00E-01
                        eps_eigval:                                     1.00E-05
                        --------------------------------------------------------
                        level_shift [a.u.]:                             0.000000
                        --------------------------------------------------------
                        Outer loop SCF in use 
                        No variables optimised in outer loop
                        eps_scf                                         1.00E-07
                        max_scf                                               10
                        No outer loop optimization
                        step_size                                       5.00E-01

 Number of electrons:                                                         48
 Number of occupied orbitals:                                                 24
 Number of molecular orbitals:                                                24

 Number of orbital functions:                                                252
 Number of independent orbital functions:                                    252

 Extrapolation method: initial_guess


 SCF WAVEFUNCTION OPTIMIZATION

  ----------------------------------- OT ---------------------------------------
  Minimizer      : DIIS                : direct inversion
                                         in the iterative subspace
                                         using   7 DIIS vectors
                                         safer DIIS on
  Preconditioner : FULL_ALL            : diagonalization, state selective
  Precond_solver : DEFAULT
  stepsize       :    0.10000000                  energy_gap     :    0.08000000
  eps_taylor     :   0.10000E-15                  max_taylor     :             4
  ----------------------------------- OT ---------------------------------------

  Step     Update method      Time    Convergence         Total energy    Change
  ------------------------------------------------------------------------------
     1 OT DIIS     0.10E+00    0.7     0.01674008      -799.7369129675 -8.00E+02
     2 OT DIIS     0.10E+00    0.8     0.00777929      -799.8283408097 -9.14E-02
     3 OT DIIS     0.10E+00    0.8     0.00407950      -799.8494337414 -2.11E-02
     4 OT DIIS     0.10E+00    0.8     0.00069575      -799.8600432890 -1.06E-02
     5 OT DIIS     0.10E+00    0.7     0.00024311      -799.8602019054 -1.59E-04
     6 OT DIIS     0.10E+00    0.8     0.00004220      -799.8602465153 -4.46E-05
     7 OT DIIS     0.10E+00    0.8     0.00001268      -799.8602473994 -8.84E-07
     8 OT DIIS     0.10E+00    0.8     0.00000468      -799.8602474782 -7.88E-08
     9 OT DIIS     0.10E+00    0.8     0.00000056      -799.8602474906 -1.25E-08
    10 OT DIIS     0.10E+00    0.8     0.00000025      -799.8602474908 -1.59E-10
    11 OT DIIS     0.10E+00    0.8     0.00000003      -799.8602474909 -1.01E-10

  *** SCF run converged in    11 steps ***


  Electronic density on regular grids:        -27.9373346320       20.0626653680
  Core density on regular grids:               48.0000000000        0.0000000000
  Hard and soft densities (Lebedev):          -49.5211336926      -29.4584683546
  Total Rho_soft + Rho1_hard - Rho1_soft      -47.9999999701
  Total charge density (r-space):               0.0000000299
  Total Rho_soft + Rho0_soft (g-space):        -0.0000002472

  Overlap energy of the core charge distribution:               0.00000000000000
  Self energy of the core charge distribution:               -770.26287927318458
  Core Hamiltonian energy:                                    -85.38306018970985
  Hartree energy:                                              53.10699115941934
  Exchange-correlation energy:                                -16.67591295745081

  GAPW| Exc from hard and soft atomic rho1:                   -48.59273261509298
  GAPW| local Eh = 1 center integrals:                         67.94734638514363

  Total energy:                                              -799.86024749087528

  outer SCF iter =    1 RMS gradient =   0.32E-07 energy =       -799.8602474909
  outer SCF loop converged in   1 iterations or   11 steps


 ENERGY| Total FORCE_EVAL ( QS ) energy [a.u.]:             -799.860247490875281

 -------------------------------------------------------------------------------
 -                                                                             -
 -                                DBCSR STATISTICS                             -
 -                                                                             -
 -------------------------------------------------------------------------------
 COUNTER                                    TOTAL       BLAS       SMM       ACC
 flops    24 x    24 x    24              2571264       0.0%    100.0%      0.0%
 flops   126 x    24 x    24              8128512       0.0%    100.0%      0.0%
 flops    63 x    24 x    24              8128512       0.0%    100.0%      0.0%
 flops    24 x    24 x    63             13063680       0.0%    100.0%      0.0%
 flops    63 x    63 x    24             22861440       0.0%    100.0%      0.0%
 flops   126 x    24 x    63             36578304       0.0%    100.0%      0.0%
 flops    63 x    24 x    63            128024064       0.0%    100.0%      0.0%
 flops inhomo. stacks                           0       0.0%      0.0%      0.0%
 flops total                       219.355776E+06       0.0%    100.0%      0.0%
 flops max/rank                    112.923072E+06       0.0%    100.0%      0.0%
 matmuls inhomo. stacks                         0       0.0%      0.0%      0.0%
 matmuls total                               1329       0.0%    100.0%      0.0%
 number of processed stacks                  1185       0.0%    100.0%      0.0%
 average stack size                                     0.0       1.1       0.0
 marketing flops                   233.362944E+06
 -------------------------------------------------------------------------------
 # multiplications                            261
 max memory usage/rank             378.142720E+06
 # max total images/rank                        3
 # max 3D layers                                1
 # MPI messages exchanged                  119016
 MPI messages size (bytes):
  total size                       184.819968E+06
  min size                           0.000000E+00
  max size                          63.504000E+03
  average size                       1.552900E+03
 MPI breakdown and total messages size (bytes):
             size <=      128              111648                        0
       128 < size <=     8192                 912                  4202496
      8192 < size <=    32768                5376                112033152
     32768 < size <=   131072                1080                 68584320
    131072 < size <=  4194304                   0                        0
   4194304 < size <= 16777216                   0                        0
  16777216 < size                               0                        0
 -------------------------------------------------------------------------------

 *** WARNING in dbcsr_mm.F:290 :: Using a non-square number of MPI ranks ***
 *** might lead to poor performance. Used ranks: 24 Suggested: 25 49     ***

 -------------------------------------------------------------------------------
 -                                                                             -
 -                      DBCSR MESSAGE PASSING PERFORMANCE                      -
 -                                                                             -
 -------------------------------------------------------------------------------
 ROUTINE             CALLS      AVE VOLUME [Bytes]
 MP_Bcast                8                     12.
 MP_Allreduce         1400                      8.
 MP_Alltoall          1079                   4609.
 MP_ISend            10968                   2254.
 MP_IRecv            10978                   1025.
 -------------------------------------------------------------------------------

 -------------------------------------------------------------------------------
 -                                                                             -
 -                                GRID STATISTICS                              -
 -                                                                             -
 -------------------------------------------------------------------------------
 LP    KERNEL             BACKEND                              COUNT     PERCENT
 2     collocate ortho    REF                                  46800      15.26%
 2     integrate ortho    REF                                  42900      13.99%
 1     collocate ortho    REF                                  42096      13.73%
 1     integrate ortho    REF                                  38588      12.59%
 3     collocate ortho    REF                                  33312      10.87%
 3     integrate ortho    REF                                  30536       9.96%
 0     collocate ortho    REF                                  18816       6.14%
 0     integrate ortho    REF                                  17248       5.63%
 4     collocate ortho    REF                                  13872       4.52%
 4     integrate ortho    REF                                  12716       4.15%
 5     collocate ortho    REF                                   3408       1.11%
 5     integrate ortho    REF                                   3124       1.02%
 2     collocate general  REF                                   1056       0.34%
 2     integrate general  REF                                   1056       0.34%
 6     collocate ortho    REF                                    552       0.18%
 6     integrate ortho    REF                                    506       0.17%
 -------------------------------------------------------------------------------

 MEMORY| Estimated peak process memory [MiB]                                 361

 -------------------------------------------------------------------------------
 -                                                                             -
 -                         MESSAGE PASSING PERFORMANCE                         -
 -                                                                             -
 -------------------------------------------------------------------------------

 ROUTINE             CALLS      AVE VOLUME [Bytes]
 MP_Group                4
 MP_Bcast              207                 396358.
 MP_Allreduce          888                 187499.
 MP_Sync                32
 MP_Alltoall           238                9515259.
 MP_ISendRecv         1587                 191232.
 MP_Wait              2982
 MP_comm_split          14
 MP_ISend             1260                 429943.
 MP_IRecv             1260                 430046.
 MP_Recv                 5                   8064.
 -------------------------------------------------------------------------------


 -------------------------------------------------------------------------------
 -                                                                             -
 -                           R E F E R E N C E S                               -
 -                                                                             -
 -------------------------------------------------------------------------------
 
 CP2K version 10.0 (Development Version), the CP2K developers group (2022).
 CP2K is freely available from https://www.cp2k.org/ .

 Kuehne,Thomas D.; Iannuzzi,Marcella; Del Ben,Mauro;
 Rybkin,Vladimir V.; Seewald,Patrick; Stein,Frederick; Laino,Teodoro;
 Khaliullin,Rustam Z.; Schuett,Ole; Schiffmann,Florian; Golze,Dorothea;
 Wilhelm,Jan; Chulkov,Sergey; Bani-Hashemian,Mohammad Hossein;
 Weber,Valery; Borstnik,Urban; Taillefumier,Mathieu;
 Jakobovits,Alice Shoshana; Lazzaro,Alfio; Pabst,Hans; Mueller,Tiziano;
 Schade,Robert; Guidon,Manuel; Andermatt,Samuel; Holmberg,Nico;
 Schenter,Gregory K.; Hehn,Anna; Bussy,Augustin; Belleflamme,Fabian;
 Tabacchi,Gloria; Gloess,Andreas; Lass,Michael; Bethune,Iain;
 Mundy,Christopher J.; Plessl,Christian; Watkins,Matt;
 VandeVondele,Joost; Krack,Matthias; Hutter,Juerg. 
 The Journal of Chemical Physics, 152 (19), (2020). 
 CP2K: An electronic structure and molecular dynamics software package -
 Quickstep: Efficient and accurate electronic structure calculations.
 https://doi.org/10.1063/5.0007045

 Schuett, Ole; Messmer, Peter; Hutter, Juerg; VandeVondele, Joost. 
 Electronic Structure Calculations on Graphics Processing Units, John
 Wiley & Sons, Ltd, 173-190 (2016). 
 GPU-Accelerated Sparse Matrix-Matrix Multiplication for
 Linear Scaling Density Functional Theory.
 https://doi.org/10.1002/9781118670712.ch8

 Heinecke, A; Henry, G; Hutchinson, M; Pabst, H. 
 Proceedings of Intl. Supercomputing Conference, 981-991 (2016). 
 LIBXSMM: Accelerating Small Matrix Multiplications
 by Runtime Code Generation.
 https://doi.org/10.1109/SC.2016.83

 Borstnik, U; VandeVondele, J; Weber, V; Hutter, J. 
 PARALLEL COMPUTING, 40 (5-6), 47-58 (2014). 
 Sparse matrix multiplication: The distributed block-compressed sparse
 row library.
 https://doi.org/10.1016/j.parco.2014.03.012

 Hutter, J; Iannuzzi, M; Schiffmann, F; VandeVondele, J. 
 WIREs Comput Mol Sci., 4 (1), 15-25 (2014). 
 CP2K: atomistic simulations of condensed matter systems.
 https://doi.org/10.1002/wcms.1159

 Frigo, M; Johnson, SG. 
 PROCEEDINGS OF THE IEEE, 93 (2), 216-231 (2005). 
 The design and implementation of FFTW3.
 https://doi.org/10.1109/JPROC.2004.840301

 VandeVondele, J; Hutter, J. 
 JOURNAL OF CHEMICAL PHYSICS, 118 (10), 4365-4369 (2003). 
 An efficient orbital transformation method for electronic structure
 calculations.
 https://doi.org/10.1063/1.1543154

 Lippert, G; Hutter, J; Parrinello, M. 
 THEORETICAL CHEMISTRY ACCOUNTS, 103 (2), 124-140 (1999). 
 The Gaussian and augmented-plane-wave density functional method for ab
 initio molecular dynamics simulations.
 https://doi.org/10.1007/s002140050523

 Krack, M; Parrinello, M. 
 PHYSICAL CHEMISTRY CHEMICAL PHYSICS, 2 (10), 2105-2112 (2000). 
 All-electron ab-initio molecular dynamics.
 https://doi.org/10.1039/b001167n

 Perdew, JP; Burke, K; Ernzerhof, M. 
 PHYSICAL REVIEW LETTERS, 77 (18), 3865-3868 (1996). 
 Generalized gradient approximation made simple.
 https://doi.org/10.1103/PhysRevLett.77.3865


 -------------------------------------------------------------------------------
 -                                                                             -
 -                                T I M I N G                                  -
 -                                                                             -
 -------------------------------------------------------------------------------
 SUBROUTINE                       CALLS  ASD         SELF TIME        TOTAL TIME
                                MAXIMUM       AVERAGE  MAXIMUM  AVERAGE  MAXIMUM
 CP2K                                 1  1.0    0.005    0.025    8.997    8.999
 qs_energies                          1  2.0    0.000    0.000    8.864    8.865
 scf_env_do_scf                       1  3.0    0.000    0.000    8.497    8.498
 scf_env_do_scf_inner_loop           11  4.0    0.000    0.001    7.859    7.861
 qs_ks_update_qs_env                 12  5.0    0.000    0.000    6.683    6.685
 rebuild_ks_matrix                   11  6.0    0.000    0.000    6.681    6.683
 qs_ks_build_kohn_sham_matrix        11  7.0    0.002    0.003    6.681    6.683
 pw_transfer                        236 10.1    0.023    0.027    3.317    3.376
 fft_wrap_pw1pw2                    203 11.2    0.003    0.003    3.266    3.326
 fft_wrap_pw1pw2_300                134 12.6    0.185    0.209    3.031    3.118
 qs_vxc_create                       11  8.0    0.000    0.000    2.773    2.774
 xc_vxc_pw_create                    11  9.0    0.023    0.028    2.773    2.774
 fft3d_ps                           203 13.2    1.237    1.485    2.476    2.657
 xc_pw_derive                        66 11.0    0.001    0.001    1.642    1.709
 qs_rho_update_rho                   12  5.0    0.000    0.000    1.654    1.655
 xc_rho_set_and_dset_create          11 10.0    0.019    0.025    1.540    1.623
 calculate_rho_elec                  12  6.0    0.012    0.013    1.471    1.471
 mp_alltoall_z22v                   203 15.2    0.996    1.357    0.996    1.357
 xc_pw_divergence                    11 10.0    0.000    0.000    1.174    1.243
 prepare_gapw_den                    11  8.0    0.000    0.000    1.203    1.221
 rs_pw_transfer                     114  9.4    0.002    0.003    1.160    1.179
 density_rs2pw                       12  7.0    0.000    0.001    1.061    1.078
 sum_up_and_integrate                11  8.0    0.006    0.007    1.063    1.063
 integrate_v_rspace                  11  9.0    0.000    0.000    1.057    1.058
 yz_to_x                            103 13.8    0.115    0.156    0.674    0.874
 xc_functional_eval                  33 10.8    0.000    0.000    0.741    0.817
 pbe_lda_eval                        33 11.8    0.741    0.817    0.741    0.817
 potential_pw2rs                     11 10.0    0.001    0.001    0.730    0.731
 x_to_yz                            100 14.6    0.119    0.139    0.556    0.666
 integrate_vhg0_rspace               11  8.0    0.065    0.104    0.643    0.656
 init_scf_loop                        1  4.0    0.000    0.000    0.637    0.637
 calculate_rho0_atom                 11  9.0    0.506    0.596    0.506    0.596
 mp_sum_d                           726  4.5    0.450    0.579    0.450    0.579
 mp_sum_dm                          140  7.6    0.478    0.521    0.478    0.521
 put_rho0_on_grid                    11  9.0    0.012    0.014    0.489    0.507
 rs_pw_transfer_RS2PW_300            23 10.0    0.259    0.285    0.428    0.446
 rs_pw_transfer_PW2RS_300            22 11.0    0.245    0.268    0.412    0.439
 grid_collocate_task_list            12  7.0    0.370    0.391    0.370    0.391
 dbcsr_multiply_generic             261 10.1    0.006    0.007    0.361    0.385
 pw_gather_p                        103 12.8    0.305    0.384    0.305    0.384
 calculate_vxc_atom                  11  8.0    0.004    0.020    0.342    0.342
 mp_waitany                        1260 11.5    0.258    0.328    0.258    0.328
 grid_integrate_task_list            11 10.0    0.312    0.325    0.312    0.325
 pw_scatter_p                       100 13.6    0.290    0.309    0.290    0.309
 gaVxcgb_GC                          11  9.0    0.049    0.304    0.049    0.304
 mp_waitall_1                     16338 14.0    0.229    0.269    0.229    0.269
 calculate_rho_atom                  11  9.0    0.114    0.253    0.114    0.253
 qs_scf_new_mos                      11  5.0    0.000    0.000    0.247    0.248
 qs_scf_loop_do_ot                   11  6.0    0.000    0.000    0.247    0.248
 ot_scf_mini                         11  7.0    0.000    0.000    0.237    0.237
 mp_sum_dv                          131 12.5    0.094    0.229    0.094    0.229
 qs_energies_init_hamiltonians        1  3.0    0.000    0.000    0.220    0.220
 qs_env_update_s_mstruct              1  4.0    0.000    0.000    0.177    0.220
 qs_create_task_list                  1  5.0    0.000    0.000    0.177    0.220
 generate_qs_task_list                1  6.0    0.001    0.004    0.177    0.220
 distribute_tasks                     1  7.0    0.000    0.000    0.176    0.220
 get_current_loads                   10  8.8    0.000    0.000    0.175    0.219
 mp_alltoall_l                       11  9.7    0.175    0.219    0.175    0.219
 load_balance_distributed             1  8.0    0.000    0.000    0.175    0.219
 compute_load_list                    2  9.0    0.000    0.000    0.175    0.218
 build_core_hamiltonian_matrix        1  4.0    0.000    0.000    0.043    0.215
 fft_wrap_pw1pw2_100                 23 11.4    0.006    0.007    0.172    0.209
 build_core_ae                        1  5.0    0.032    0.193    0.032    0.193
 calculate_rho_atom_coeff            12  6.0    0.028    0.158    0.184    0.184
 mp_sum_l                          1593  9.2    0.153    0.181    0.153    0.181
 -------------------------------------------------------------------------------

 The number of warnings for this run is : 1
 
 -------------------------------------------------------------------------------
  **** **** ******  **  PROGRAM ENDED AT                 2022-05-12 12:35:25.638
 ***** ** ***  *** **   PROGRAM RAN ON                                   tcopt10
 **    ****   ******    PROGRAM RAN BY                                    hutter
 ***** **    ** ** **   PROGRAM PROCESS ID                                 61912
  **** **  *******  **  PROGRAM STOPPED IN /data/hutter/GITHUB/BASIS/scMOLOPT/PB
                                           E/Mg
