 DBCSR| CPU Multiplication driver                                           XSMM
 DBCSR| Multrec recursion limit                                              512
 DBCSR| Multiplication stack size                                           1000
 DBCSR| Maximum elements for images                                    UNLIMITED
 DBCSR| Multiplicative factor virtual images                                   1
 DBCSR| Use multiplication densification                                       T
 DBCSR| Multiplication size stacks                                             3
 DBCSR| Use memory pool for CPU allocation                                     F
 DBCSR| Number of 3D layers                                               SINGLE
 DBCSR| Use MPI memory allocation                                              F
 DBCSR| Use RMA algorithm                                                      F
 DBCSR| Use Communication thread                                               T
 DBCSR| Communication thread load                                             87
 DBCSR| MPI: My node id                                                        0
 DBCSR| MPI: Number of nodes                                                  24
 DBCSR| OMP: Current number of threads                                         1
 DBCSR| OMP: Max number of threads                                             1
 DBCSR| Split modifier for TAS multiplication algorithm                  1.0E+00


  **** **** ******  **  PROGRAM STARTED AT               2022-05-12 12:35:37.373
 ***** ** ***  *** **   PROGRAM STARTED ON                               tcopt10
 **    ****   ******    PROGRAM STARTED BY                                hutter
 ***** **    ** ** **   PROGRAM PROCESS ID                                 62019
  **** **  *******  **  PROGRAM STARTED IN /data/hutter/GITHUB/BASIS/scMOLOPT/PB
                                           E/Mg

 CP2K| version string:                   CP2K version 10.0 (Development Version)
 CP2K| source code revision number:                                  git:13fcfd8
 CP2K| cp2kflags: omp libint fftw3 libxc elpa parallel mpi3 scalapack cosma xsmm
 CP2K|             spglib sirius libvori libbqb
 CP2K| is freely available from                            https://www.cp2k.org/
 CP2K| Program compiled at                      Tue 10 May 2022 02:27:21 PM CEST
 CP2K| Program compiled on                                               tcopt10
 CP2K| Program compiled for                                                local
 CP2K| Data directory path                   /data/hutter/GITHUB/TDLRI/cp2k/data
 CP2K| Input file name                                             MgCl2-ref.inp

 GLOBAL| Force Environment number                                              1
 GLOBAL| Basis set file name                                        ../def2QZVPP
 GLOBAL| Potential file name                                        ../POTENTIAL
 GLOBAL| MM Potential file name                                     MM_POTENTIAL
 GLOBAL| Coordinate file name                                      __STD_INPUT__
 GLOBAL| Method name                                                        CP2K
 GLOBAL| Project name                                                refMgCl2q10
 GLOBAL| Run type                                                         ENERGY
 GLOBAL| FFT library                                                       FFTW3
 GLOBAL| Diagonalization library                                       ScaLAPACK
 GLOBAL| Orthonormality check for eigenvectors                          DISABLED
 GLOBAL| Matrix multiplication library                                     COSMA
 GLOBAL| All-to-all communication in single precision                          F
 GLOBAL| FFTs using library dependent lengths                                  F
 GLOBAL| Grid backend                                                       AUTO
 GLOBAL| Global print level                                                  LOW
 GLOBAL| MPI I/O enabled                                                       T
 GLOBAL| Total number of message passing processes                            24
 GLOBAL| Number of threads for this process                                    1
 GLOBAL| This output is from process                                           0
 GLOBAL| Stack size for threads created by OpenMP (OMP_STACKSIZE)        default
 GLOBAL| CPU model name                          AMD EPYC 7401 24-Core Processor
 GLOBAL| CPUID                                                              1002

 MEMORY| system memory details [Kb]
 MEMORY|                        rank 0           min           max       average
 MEMORY| MemTotal            263969136     263969136     263969136     263969136
 MEMORY| MemFree             239991728     239991728     239991728     239991728
 MEMORY| Buffers                   136           136           136           136
 MEMORY| Cached               18906636      18906636      18906636      18906636
 MEMORY| Slab                  1422612       1422612       1422612       1422612
 MEMORY| SReclaimable           870692        870692        870692        870692
 MEMORY| MemLikelyFree       259769192     259769192     259769192     259769192


 GENERATE|  Preliminary Number of Bonds generated:                             0
 GENERATE|  Achieved consistency in connectivity generation.

 *******************************************************************************
 *******************************************************************************
 **                                                                           **
 **     #####                         ##              ##                      **
 **    ##   ##            ##          ##              ##                      **
 **   ##     ##                       ##            ######                    **
 **   ##     ##  ##   ##  ##   #####  ##  ##   ####   ##    #####    #####    **
 **   ##     ##  ##   ##  ##  ##      ## ##   ##      ##   ##   ##  ##   ##   **
 **   ##  ## ##  ##   ##  ##  ##      ####     ###    ##   ######   ######    **
 **    ##  ###   ##   ##  ##  ##      ## ##      ##   ##   ##       ##        **
 **     #######   #####   ##   #####  ##  ##  ####    ##    #####   ##        **
 **           ##                                                    ##        **
 **                                                                           **
 **                                                ... make the atoms dance   **
 **                                                                           **
 **            Copyright (C) by CP2K developers group (2000-2022)             **
 **                      J. Chem. Phys. 152, 194103 (2020)                    **
 **                                                                           **
 *******************************************************************************


 TOTAL NUMBERS AND MAXIMUM NUMBERS

  Total number of            - Atomic kinds:                                   2
                             - Atoms:                                          3
                             - Shell sets:                                    65
                             - Shells:                                        65
                             - Primitive Cartesian functions:                121
                             - Cartesian basis functions:                    246
                             - Spherical basis functions:                    203

  Maximum angular momentum of the orbital basis functions:                     4


 SCF PARAMETERS         Density guess:                                    ATOMIC
                        --------------------------------------------------------
                        max_scf:                                              20
                        max_scf_history:                                       0
                        max_diis:                                              4
                        --------------------------------------------------------
                        eps_scf:                                        1.00E-07
                        eps_scf_history:                                0.00E+00
                        eps_diis:                                       1.00E-01
                        eps_eigval:                                     1.00E-05
                        --------------------------------------------------------
                        level_shift [a.u.]:                             0.000000
                        --------------------------------------------------------
                        Outer loop SCF in use 
                        No variables optimised in outer loop
                        eps_scf                                         1.00E-07
                        max_scf                                               10
                        No outer loop optimization
                        step_size                                       5.00E-01

 Number of electrons:                                                         46
 Number of occupied orbitals:                                                 23
 Number of molecular orbitals:                                                23

 Number of orbital functions:                                                203
 Number of independent orbital functions:                                    203

 Extrapolation method: initial_guess


 SCF WAVEFUNCTION OPTIMIZATION

  ----------------------------------- OT ---------------------------------------
  Minimizer      : DIIS                : direct inversion
                                         in the iterative subspace
                                         using   7 DIIS vectors
                                         safer DIIS on
  Preconditioner : FULL_ALL            : diagonalization, state selective
  Precond_solver : DEFAULT
  stepsize       :    0.10000000                  energy_gap     :    0.08000000
  eps_taylor     :   0.10000E-15                  max_taylor     :             4
  ----------------------------------- OT ---------------------------------------

  Step     Update method      Time    Convergence         Total energy    Change
  ------------------------------------------------------------------------------
     1 OT DIIS     0.10E+00    0.7     0.15442139     -1106.7091090975 -1.11E+03
     2 OT DIIS     0.10E+00    0.8     0.08853504     -1115.6510441260 -8.94E+00
     3 OT DIIS     0.10E+00    0.8     0.04211287     -1118.5627270684 -2.91E+00
     4 OT DIIS     0.10E+00    0.8     0.02058502     -1118.9913813821 -4.29E-01
     5 OT DIIS     0.10E+00    0.8     0.01517532     -1119.2939554216 -3.03E-01
     6 OT DIIS     0.10E+00    0.9     0.01038021     -1119.5431684789 -2.49E-01
     7 OT DIIS     0.10E+00    0.8     0.01032342     -1119.5449226745 -1.75E-03
     8 OT DIIS     0.10E+00    0.8     0.00854379     -1119.7144855745 -1.70E-01
     9 OT DIIS     0.10E+00    0.8     0.00601118     -1119.8083965999 -9.39E-02
    10 OT DIIS     0.10E+00    0.8     0.00773408     -1119.8325696701 -2.42E-02
    11 OT DIIS     0.10E+00    0.8     0.00807786     -1119.8303691486  2.20E-03
    12 OT DIIS     0.10E+00    0.8     0.01130663     -1119.7752346856  5.51E-02
    13 OT DIIS     0.10E+00    0.8     0.00950521     -1119.9053222128 -1.30E-01
    14 OT SD       0.10E+00    0.9     0.00453435     -1119.9462932117 -4.10E-02
    15 OT DIIS     0.10E+00    0.8     0.00383483     -1119.9548495556 -8.56E-03
    16 OT DIIS     0.10E+00    0.8     0.00441093     -1120.0285553185 -7.37E-02
    17 OT DIIS     0.10E+00    0.8     0.00571378     -1120.0446974820 -1.61E-02
    18 OT SD       0.10E+00    0.8     0.00437674     -1120.0456996886 -1.00E-03
    19 OT DIIS     0.10E+00    0.9     0.00275777     -1120.0524974713 -6.80E-03
    20 OT SD       0.10E+00    0.8     0.00250193     -1120.0621646147 -9.67E-03

  Leaving inner SCF loop after reaching    20 steps.


  Electronic density on regular grids:        -23.1778480333       22.8221519667
  Core density on regular grids:               46.0000000000        0.0000000000
  Hard and soft densities (Lebedev):          -53.2482105515      -30.4260589678
  Total Rho_soft + Rho1_hard - Rho1_soft      -45.9999996169
  Total charge density (r-space):               0.0000003831
  Total Rho_soft + Rho0_soft (g-space):        -0.0000001458

  Overlap energy of the core charge distribution:               0.00000000000000
  Self energy of the core charge distribution:               -590.25057261171469
  Core Hamiltonian energy:                                   -552.39082345186773
  Hartree energy:                                              78.75050615092420
  Exchange-correlation energy:                                -11.65530874348663

  GAPW| Exc from hard and soft atomic rho1:                   -60.85729697829716
  GAPW| local Eh = 1 center integrals:                         16.34133101976131

  Total energy:                                             -1120.06216461468057

  outer SCF iter =    1 RMS gradient =   0.25E-02 energy =      -1120.0621646147

  ----------------------------------- OT ---------------------------------------
  Minimizer      : DIIS                : direct inversion
                                         in the iterative subspace
                                         using   7 DIIS vectors
                                         safer DIIS on
  Preconditioner : FULL_ALL            : diagonalization, state selective
  Precond_solver : DEFAULT
  stepsize       :    0.10000000                  energy_gap     :    0.08000000
  eps_taylor     :   0.10000E-15                  max_taylor     :             4
  ----------------------------------- OT ---------------------------------------

  Step     Update method      Time    Convergence         Total energy    Change
  ------------------------------------------------------------------------------
     1 OT DIIS     0.10E+00    1.6     0.01964811     -1120.0650385901 -2.87E-03
     2 OT DIIS     0.10E+00    0.8     0.00742717     -1120.1783322192 -1.13E-01
     3 OT DIIS     0.10E+00    0.8     0.00182501     -1120.1935138749 -1.52E-02
     4 OT DIIS     0.10E+00    0.9     0.00079399     -1120.1945345348 -1.02E-03
     5 OT DIIS     0.10E+00    0.8     0.00028070     -1120.1948217219 -2.87E-04
     6 OT DIIS     0.10E+00    0.8     0.00005196     -1120.1948638691 -4.21E-05
     7 OT DIIS     0.10E+00    0.9     0.00001648     -1120.1948651719 -1.30E-06
     8 OT DIIS     0.10E+00    0.8     0.00000505     -1120.1948653012 -1.29E-07
     9 OT DIIS     0.10E+00    0.8     0.00000234     -1120.1948653088 -7.62E-09
    10 OT DIIS     0.10E+00    0.8     0.00000049     -1120.1948653105 -1.74E-09
    11 OT DIIS     0.10E+00    0.8     0.00000014     -1120.1948653111 -5.60E-10
    12 OT DIIS     0.10E+00    0.8     0.00000005     -1120.1948653112 -7.82E-11

  *** SCF run converged in    12 steps ***


  Electronic density on regular grids:        -23.1679951901       22.8320048099
  Core density on regular grids:               46.0000000000        0.0000000000
  Hard and soft densities (Lebedev):          -53.0189834994      -30.1869792488
  Total Rho_soft + Rho1_hard - Rho1_soft      -45.9999994407
  Total charge density (r-space):               0.0000005593
  Total Rho_soft + Rho0_soft (g-space):         0.0000000305

  Overlap energy of the core charge distribution:               0.00000000000000
  Self energy of the core charge distribution:               -590.25057261171469
  Core Hamiltonian energy:                                   -552.51065081974946
  Hartree energy:                                              78.80878748066725
  Exchange-correlation energy:                                -11.68660606675384

  GAPW| Exc from hard and soft atomic rho1:                   -60.86122282086028
  GAPW| local Eh = 1 center integrals:                         16.30539952724323

  Total energy:                                             -1120.19486531116809

  outer SCF iter =    2 RMS gradient =   0.54E-07 energy =      -1120.1948653112
  outer SCF loop converged in   2 iterations or   32 steps


 ENERGY| Total FORCE_EVAL ( QS ) energy [a.u.]:            -1120.194865311168087

 -------------------------------------------------------------------------------
 -                                                                             -
 -                                DBCSR STATISTICS                             -
 -                                                                             -
 -------------------------------------------------------------------------------
 COUNTER                                    TOTAL       BLAS       SMM       ACC
 flops    63 x    63 x    23              6024942       0.0%    100.0%      0.0%
 flops    63 x    70 x    23              6694380       0.0%    100.0%      0.0%
 flops    70 x    63 x    23              6694380       0.0%    100.0%      0.0%
 flops    23 x    23 x    23              6716184       0.0%    100.0%      0.0%
 flops    23 x    23 x    63              8665020       0.0%    100.0%      0.0%
 flops    63 x    23 x    23             10797948       0.0%    100.0%      0.0%
 flops    23 x    23 x    70             19255600       0.0%    100.0%      0.0%
 flops    70 x    70 x    23             22314600       0.0%    100.0%      0.0%
 flops   140 x    23 x    23             23995440       0.0%    100.0%      0.0%
 flops    63 x    23 x    63             26655804       0.0%    100.0%      0.0%
 flops   140 x    23 x    63             27588960       0.0%    100.0%      0.0%
 flops    70 x    23 x    63             31646160       0.0%    100.0%      0.0%
 flops    63 x    23 x    70             59235120       0.0%    100.0%      0.0%
 flops   140 x    23 x    70             61308800       0.0%    100.0%      0.0%
 flops    70 x    23 x    70             70324800       0.0%    100.0%      0.0%
 flops inhomo. stacks                           0       0.0%      0.0%      0.0%
 flops total                       387.918138E+06       0.0%    100.0%      0.0%
 flops max/rank                    271.815564E+06       0.0%    100.0%      0.0%
 matmuls inhomo. stacks                         0       0.0%      0.0%      0.0%
 matmuls total                               2298       0.0%    100.0%      0.0%
 number of processed stacks                  1998       0.0%    100.0%      0.0%
 average stack size                                     0.0       1.2       0.0
 marketing flops                   409.175872E+06
 -------------------------------------------------------------------------------
 # multiplications                            749
 max memory usage/rank             426.876928E+06
 # max total images/rank                        3
 # max 3D layers                                1
 # MPI messages exchanged                  341544
 MPI messages size (bytes):
  total size                       347.383872E+06
  min size                           0.000000E+00
  max size                          78.400000E+03
  average size                       1.017098E+03
 MPI breakdown and total messages size (bytes):
             size <=      128              327888                        0
       128 < size <=     8192                2694                 11401008
      8192 < size <=    32768                7312                118501264
     32768 < size <=   131072                3650                217481600
    131072 < size <=  4194304                   0                        0
   4194304 < size <= 16777216                   0                        0
  16777216 < size                               0                        0
 -------------------------------------------------------------------------------

 *** WARNING in dbcsr_mm.F:290 :: Using a non-square number of MPI ranks ***
 *** might lead to poor performance. Used ranks: 24 Suggested: 25 49     ***

 -------------------------------------------------------------------------------
 -                                                                             -
 -                      DBCSR MESSAGE PASSING PERFORMANCE                      -
 -                                                                             -
 -------------------------------------------------------------------------------
 ROUTINE             CALLS      AVE VOLUME [Bytes]
 MP_Bcast               16                     12.
 MP_Allreduce         4011                      8.
 MP_Alltoall          2801                   3980.
 MP_ISend            31466                   1900.
 MP_IRecv            31482                    553.
 -------------------------------------------------------------------------------

 -------------------------------------------------------------------------------
 -                                                                             -
 -                                GRID STATISTICS                              -
 -                                                                             -
 -------------------------------------------------------------------------------
 LP    KERNEL             BACKEND                              COUNT     PERCENT
 2     collocate ortho    REF                                  29733      13.38%
 2     integrate ortho    REF                                  28832      12.97%
 1     collocate ortho    REF                                  26466      11.91%
 1     integrate ortho    REF                                  25664      11.55%
 3     collocate ortho    REF                                  22836      10.28%
 3     integrate ortho    REF                                  22144       9.96%
 4     collocate ortho    REF                                  12837       5.78%
 4     integrate ortho    REF                                  12448       5.60%
 0     collocate ortho    REF                                  10890       4.90%
 0     integrate ortho    REF                                  10560       4.75%
 5     collocate ortho    REF                                   5148       2.32%
 5     integrate ortho    REF                                   4992       2.25%
 2     collocate general  REF                                   2304       1.04%
 2     integrate general  REF                                   2304       1.04%
 6     collocate ortho    REF                                   2013       0.91%
 6     integrate ortho    REF                                   1952       0.88%
 7     collocate ortho    REF                                    462       0.21%
 7     integrate ortho    REF                                    448       0.20%
 8     collocate ortho    REF                                     99       0.04%
 8     integrate ortho    REF                                     96       0.04%
 -------------------------------------------------------------------------------

 MEMORY| Estimated peak process memory [MiB]                                 408

 -------------------------------------------------------------------------------
 -                                                                             -
 -                         MESSAGE PASSING PERFORMANCE                         -
 -                                                                             -
 -------------------------------------------------------------------------------

 ROUTINE             CALLS      AVE VOLUME [Bytes]
 MP_Group                4
 MP_Bcast              632                 264866.
 MP_Allreduce         1984                 194776.
 MP_Sync                80
 MP_Alltoall           658                9913422.
 MP_ISendRecv         4485                 191232.
 MP_Wait              8484
 MP_comm_split          38
 MP_ISend             3612                 488296.
 MP_IRecv             3612                 488332.
 MP_Recv                10                   6496.
 -------------------------------------------------------------------------------


 -------------------------------------------------------------------------------
 -                                                                             -
 -                           R E F E R E N C E S                               -
 -                                                                             -
 -------------------------------------------------------------------------------
 
 CP2K version 10.0 (Development Version), the CP2K developers group (2022).
 CP2K is freely available from https://www.cp2k.org/ .

 Kuehne,Thomas D.; Iannuzzi,Marcella; Del Ben,Mauro;
 Rybkin,Vladimir V.; Seewald,Patrick; Stein,Frederick; Laino,Teodoro;
 Khaliullin,Rustam Z.; Schuett,Ole; Schiffmann,Florian; Golze,Dorothea;
 Wilhelm,Jan; Chulkov,Sergey; Bani-Hashemian,Mohammad Hossein;
 Weber,Valery; Borstnik,Urban; Taillefumier,Mathieu;
 Jakobovits,Alice Shoshana; Lazzaro,Alfio; Pabst,Hans; Mueller,Tiziano;
 Schade,Robert; Guidon,Manuel; Andermatt,Samuel; Holmberg,Nico;
 Schenter,Gregory K.; Hehn,Anna; Bussy,Augustin; Belleflamme,Fabian;
 Tabacchi,Gloria; Gloess,Andreas; Lass,Michael; Bethune,Iain;
 Mundy,Christopher J.; Plessl,Christian; Watkins,Matt;
 VandeVondele,Joost; Krack,Matthias; Hutter,Juerg. 
 The Journal of Chemical Physics, 152 (19), (2020). 
 CP2K: An electronic structure and molecular dynamics software package -
 Quickstep: Efficient and accurate electronic structure calculations.
 https://doi.org/10.1063/5.0007045

 Schuett, Ole; Messmer, Peter; Hutter, Juerg; VandeVondele, Joost. 
 Electronic Structure Calculations on Graphics Processing Units, John
 Wiley & Sons, Ltd, 173-190 (2016). 
 GPU-Accelerated Sparse Matrix-Matrix Multiplication for
 Linear Scaling Density Functional Theory.
 https://doi.org/10.1002/9781118670712.ch8

 Heinecke, A; Henry, G; Hutchinson, M; Pabst, H. 
 Proceedings of Intl. Supercomputing Conference, 981-991 (2016). 
 LIBXSMM: Accelerating Small Matrix Multiplications
 by Runtime Code Generation.
 https://doi.org/10.1109/SC.2016.83

 Borstnik, U; VandeVondele, J; Weber, V; Hutter, J. 
 PARALLEL COMPUTING, 40 (5-6), 47-58 (2014). 
 Sparse matrix multiplication: The distributed block-compressed sparse
 row library.
 https://doi.org/10.1016/j.parco.2014.03.012

 Hutter, J; Iannuzzi, M; Schiffmann, F; VandeVondele, J. 
 WIREs Comput Mol Sci., 4 (1), 15-25 (2014). 
 CP2K: atomistic simulations of condensed matter systems.
 https://doi.org/10.1002/wcms.1159

 Frigo, M; Johnson, SG. 
 PROCEEDINGS OF THE IEEE, 93 (2), 216-231 (2005). 
 The design and implementation of FFTW3.
 https://doi.org/10.1109/JPROC.2004.840301

 VandeVondele, J; Hutter, J. 
 JOURNAL OF CHEMICAL PHYSICS, 118 (10), 4365-4369 (2003). 
 An efficient orbital transformation method for electronic structure
 calculations.
 https://doi.org/10.1063/1.1543154

 Lippert, G; Hutter, J; Parrinello, M. 
 THEORETICAL CHEMISTRY ACCOUNTS, 103 (2), 124-140 (1999). 
 The Gaussian and augmented-plane-wave density functional method for ab
 initio molecular dynamics simulations.
 https://doi.org/10.1007/s002140050523

 Krack, M; Parrinello, M. 
 PHYSICAL CHEMISTRY CHEMICAL PHYSICS, 2 (10), 2105-2112 (2000). 
 All-electron ab-initio molecular dynamics.
 https://doi.org/10.1039/b001167n

 Perdew, JP; Burke, K; Ernzerhof, M. 
 PHYSICAL REVIEW LETTERS, 77 (18), 3865-3868 (1996). 
 Generalized gradient approximation made simple.
 https://doi.org/10.1103/PhysRevLett.77.3865


 -------------------------------------------------------------------------------
 -                                                                             -
 -                                T I M I N G                                  -
 -                                                                             -
 -------------------------------------------------------------------------------
 SUBROUTINE                       CALLS  ASD         SELF TIME        TOTAL TIME
                                MAXIMUM       AVERAGE  MAXIMUM  AVERAGE  MAXIMUM
 CP2K                                 1  1.0    0.010    0.030   27.134   27.136
 qs_energies                          1  2.0    0.000    0.000   26.904   26.905
 scf_env_do_scf                       1  3.0    0.000    0.000   26.640   26.640
 scf_env_do_scf_inner_loop           32  4.0    0.001    0.002   25.229   25.229
 qs_ks_update_qs_env                 34  5.0    0.000    0.000   21.719   21.725
 rebuild_ks_matrix                   32  6.0    0.000    0.000   21.712   21.715
 qs_ks_build_kohn_sham_matrix        32  7.0    0.006    0.008   21.712   21.715
 pw_transfer                        677 10.1    0.065    0.073   10.198   10.813
 fft_wrap_pw1pw2                    581 11.3    0.007    0.008   10.052   10.658
 fft_wrap_pw1pw2_300                386 12.7    0.608    0.652    9.500   10.151
 qs_vxc_create                       32  8.0    0.001    0.001    8.919    8.921
 xc_vxc_pw_create                    32  9.0    0.075    0.087    8.918    8.920
 fft3d_ps                           581 13.3    4.142    4.702    7.602    8.150
 xc_pw_derive                       192 11.0    0.002    0.002    5.142    5.826
 xc_rho_set_and_dset_create          32 10.0    0.055    0.063    5.284    5.690
 prepare_gapw_den                    32  8.0    0.001    0.001    4.290    4.319
 xc_pw_divergence                    32 10.0    0.001    0.001    3.473    4.131
 qs_rho_update_rho                   33  5.0    0.001    0.001    4.086    4.091
 rs_pw_transfer                     324  9.5    0.007    0.009    3.883    3.981
 calculate_rho_elec                  33  6.0    0.035    0.038    3.800    3.801
 mp_alltoall_z22v                   581 15.3    2.596    3.789    2.596    3.789
 density_rs2pw                       33  7.0    0.002    0.002    3.081    3.198
 xc_functional_eval                  96 10.8    0.000    0.001    2.676    3.034
 pbe_lda_eval                        96 11.8    2.675    3.033    2.675    3.033
 sum_up_and_integrate                32  8.0    0.017    0.020    2.822    2.826
 integrate_v_rspace                  32  9.0    0.001    0.001    2.805    2.809
 mp_sum_d                          1311  7.2    2.306    2.771    2.306    2.771
 yz_to_x                            292 13.9    0.404    0.561    1.836    2.564
 potential_pw2rs                     32 10.0    0.003    0.003    2.464    2.467
 calculate_vxc_atom                  32  8.0    0.022    0.131    1.981    1.987
 x_to_yz                            289 14.7    0.441    0.540    1.605    1.891
 integrate_vhg0_rspace               32  8.0    0.260    0.325    1.819    1.870
 calculate_rho_atom                  64  9.0    1.030    1.806    1.030    1.806
 gaVxcgb_GC                          32  9.0    0.192    1.786    0.192    1.786
 put_rho0_on_grid                    32  9.0    0.038    0.042    1.611    1.640
 rs_pw_transfer_PW2RS_300            64 11.0    0.844    0.916    1.410    1.489
 rs_pw_transfer_RS2PW_300            65 10.0    0.842    0.931    1.346    1.432
 init_scf_loop                        2  4.0    0.000    0.000    1.410    1.410
 calculate_rho0_atom                 64  9.0    1.140    1.369    1.140    1.369
 mp_sum_dm                          294  7.7    0.985    1.101    0.985    1.101
 pw_gather_p                        292 12.9    0.896    1.025    0.896    1.025
 dbcsr_multiply_generic             749 10.1    0.022    0.023    0.975    1.005
 mp_waitany                        3612 11.5    0.805    0.966    0.805    0.966
 pw_scatter_p                       289 13.7    0.915    0.961    0.915    0.961
 mp_waitall_1                     46816 14.0    0.798    0.949    0.798    0.949
 qs_scf_new_mos                      32  5.0    0.000    0.000    0.864    0.867
 qs_scf_loop_do_ot                   32  6.0    0.000    0.000    0.864    0.867
 mp_sum_dv                          610 12.8    0.512    0.858    0.512    0.858
 ot_scf_mini                         32  7.0    0.000    0.000    0.827    0.830
 rs_pw_transfer_PW2RS_100            32 12.0    0.109    0.121    0.561    0.635
 grid_collocate_task_list            33  7.0    0.578    0.627    0.578    0.627
 -------------------------------------------------------------------------------

 The number of warnings for this run is : 1
 
 -------------------------------------------------------------------------------
  **** **** ******  **  PROGRAM ENDED AT                 2022-05-12 12:36:04.935
 ***** ** ***  *** **   PROGRAM RAN ON                                   tcopt10
 **    ****   ******    PROGRAM RAN BY                                    hutter
 ***** **    ** ** **   PROGRAM PROCESS ID                                 62019
  **** **  *******  **  PROGRAM STOPPED IN /data/hutter/GITHUB/BASIS/scMOLOPT/PB
                                           E/Mg
