 DBCSR| CPU Multiplication driver                                           XSMM
 DBCSR| Multrec recursion limit                                              512
 DBCSR| Multiplication stack size                                           1000
 DBCSR| Maximum elements for images                                    UNLIMITED
 DBCSR| Multiplicative factor virtual images                                   1
 DBCSR| Use multiplication densification                                       T
 DBCSR| Multiplication size stacks                                             3
 DBCSR| Use memory pool for CPU allocation                                     F
 DBCSR| Number of 3D layers                                               SINGLE
 DBCSR| Use MPI memory allocation                                              F
 DBCSR| Use RMA algorithm                                                      F
 DBCSR| Use Communication thread                                               T
 DBCSR| Communication thread load                                             87
 DBCSR| MPI: My node id                                                        0
 DBCSR| MPI: Number of nodes                                                  24
 DBCSR| OMP: Current number of threads                                         1
 DBCSR| OMP: Max number of threads                                             1
 DBCSR| Split modifier for TAS multiplication algorithm                  1.0E+00


  **** **** ******  **  PROGRAM STARTED AT               2022-05-12 12:36:52.896
 ***** ** ***  *** **   PROGRAM STARTED ON                               tcopt10
 **    ****   ******    PROGRAM STARTED BY                                hutter
 ***** **    ** ** **   PROGRAM PROCESS ID                                 62288
  **** **  *******  **  PROGRAM STARTED IN /data/hutter/GITHUB/BASIS/scMOLOPT/PB
                                           E/Mg

 CP2K| version string:                   CP2K version 10.0 (Development Version)
 CP2K| source code revision number:                                  git:13fcfd8
 CP2K| cp2kflags: omp libint fftw3 libxc elpa parallel mpi3 scalapack cosma xsmm
 CP2K|             spglib sirius libvori libbqb
 CP2K| is freely available from                            https://www.cp2k.org/
 CP2K| Program compiled at                      Tue 10 May 2022 02:27:21 PM CEST
 CP2K| Program compiled on                                               tcopt10
 CP2K| Program compiled for                                                local
 CP2K| Data directory path                   /data/hutter/GITHUB/TDLRI/cp2k/data
 CP2K| Input file name                                               MgF-ref.inp

 GLOBAL| Force Environment number                                              1
 GLOBAL| Basis set file name                                        ../def2QZVPP
 GLOBAL| Potential file name                                        ../POTENTIAL
 GLOBAL| MM Potential file name                                     MM_POTENTIAL
 GLOBAL| Coordinate file name                                      __STD_INPUT__
 GLOBAL| Method name                                                        CP2K
 GLOBAL| Project name                                                  refMgFq10
 GLOBAL| Run type                                                         ENERGY
 GLOBAL| FFT library                                                       FFTW3
 GLOBAL| Diagonalization library                                       ScaLAPACK
 GLOBAL| Orthonormality check for eigenvectors                          DISABLED
 GLOBAL| Matrix multiplication library                                     COSMA
 GLOBAL| All-to-all communication in single precision                          F
 GLOBAL| FFTs using library dependent lengths                                  F
 GLOBAL| Grid backend                                                       AUTO
 GLOBAL| Global print level                                                  LOW
 GLOBAL| MPI I/O enabled                                                       T
 GLOBAL| Total number of message passing processes                            24
 GLOBAL| Number of threads for this process                                    1
 GLOBAL| This output is from process                                           0
 GLOBAL| Stack size for threads created by OpenMP (OMP_STACKSIZE)        default
 GLOBAL| CPU model name                          AMD EPYC 7401 24-Core Processor
 GLOBAL| CPUID                                                              1002

 MEMORY| system memory details [Kb]
 MEMORY|                        rank 0           min           max       average
 MEMORY| MemTotal            263969136     263969136     263969136     263969136
 MEMORY| MemFree             239981748     239981748     239981748     239981748
 MEMORY| Buffers                   136           136           136           136
 MEMORY| Cached               18906544      18906544      18906544      18906544
 MEMORY| Slab                  1423148       1423148       1423148       1423148
 MEMORY| SReclaimable           870932        870932        870932        870932
 MEMORY| MemLikelyFree       259759360     259759360     259759360     259759360


 GENERATE|  Preliminary Number of Bonds generated:                             0
 GENERATE|  Achieved consistency in connectivity generation.

 *******************************************************************************
 *******************************************************************************
 **                                                                           **
 **     #####                         ##              ##                      **
 **    ##   ##            ##          ##              ##                      **
 **   ##     ##                       ##            ######                    **
 **   ##     ##  ##   ##  ##   #####  ##  ##   ####   ##    #####    #####    **
 **   ##     ##  ##   ##  ##  ##      ## ##   ##      ##   ##   ##  ##   ##   **
 **   ##  ## ##  ##   ##  ##  ##      ####     ###    ##   ######   ######    **
 **    ##  ###   ##   ##  ##  ##      ## ##      ##   ##   ##       ##        **
 **     #######   #####   ##   #####  ##  ##  ####    ##    #####   ##        **
 **           ##                                                    ##        **
 **                                                                           **
 **                                                ... make the atoms dance   **
 **                                                                           **
 **            Copyright (C) by CP2K developers group (2000-2022)             **
 **                      J. Chem. Phys. 152, 194103 (2020)                    **
 **                                                                           **
 *******************************************************************************


 TOTAL NUMBERS AND MAXIMUM NUMBERS

  Total number of            - Atomic kinds:                                   2
                             - Atoms:                                          2
                             - Shell sets:                                    38
                             - Shells:                                        38
                             - Primitive Cartesian functions:                 68
                             - Cartesian basis functions:                    146
                             - Spherical basis functions:                    120

  Maximum angular momentum of the orbital basis functions:                     4


 SCF PARAMETERS         Density guess:                                    ATOMIC
                        --------------------------------------------------------
                        max_scf:                                              20
                        max_scf_history:                                       0
                        max_diis:                                              4
                        --------------------------------------------------------
                        eps_scf:                                        1.00E-07
                        eps_scf_history:                                0.00E+00
                        eps_diis:                                       1.00E-01
                        eps_eigval:                                     1.00E-05
                        --------------------------------------------------------
                        level_shift [a.u.]:                             0.000000
                        --------------------------------------------------------
                        Outer loop SCF in use 
                        No variables optimised in outer loop
                        eps_scf                                         1.00E-07
                        max_scf                                               10
                        No outer loop optimization
                        step_size                                       5.00E-01

 Spin 1

 Number of electrons:                                                         11
 Number of occupied orbitals:                                                 11
 Number of molecular orbitals:                                                11

 Spin 2

 Number of electrons:                                                         10
 Number of occupied orbitals:                                                 10
 Number of molecular orbitals:                                                10

 Number of orbital functions:                                                120
 Number of independent orbital functions:                                    120

 Extrapolation method: initial_guess


 SCF WAVEFUNCTION OPTIMIZATION

  ----------------------------------- OT ---------------------------------------
  Minimizer      : DIIS                : direct inversion
                                         in the iterative subspace
                                         using   7 DIIS vectors
                                         safer DIIS on
  Preconditioner : FULL_ALL            : diagonalization, state selective
  Precond_solver : DEFAULT
  stepsize       :    0.10000000                  energy_gap     :    0.08000000
  eps_taylor     :   0.10000E-15                  max_taylor     :             4
  ----------------------------------- OT ---------------------------------------

  Step     Update method      Time    Convergence         Total energy    Change
  ------------------------------------------------------------------------------
     1 OT DIIS     0.10E+00    1.2     0.10283403      -293.6390710205 -2.94E+02
     2 OT DIIS     0.10E+00    1.5     0.08125407      -296.0268363696 -2.39E+00
     3 OT DIIS     0.10E+00    1.4     0.02492851      -299.2729792323 -3.25E+00
     4 OT DIIS     0.10E+00    1.4     0.02101687      -299.2833010524 -1.03E-02
     5 OT DIIS     0.10E+00    1.4     0.01667221      -299.4065679273 -1.23E-01
     6 OT DIIS     0.10E+00    1.4     0.01008641      -299.5790197385 -1.72E-01
     7 OT DIIS     0.10E+00    1.4     0.00911793      -299.6209597105 -4.19E-02
     8 OT DIIS     0.10E+00    1.4     0.00656685      -299.6843045442 -6.33E-02
     9 OT SD       0.10E+00    1.4     0.00644284      -299.7003016680 -1.60E-02
    10 OT DIIS     0.10E+00    1.4     0.00475088      -299.7091707214 -8.87E-03
    11 OT DIIS     0.10E+00    1.4     0.00416140      -299.7246084831 -1.54E-02
    12 OT DIIS     0.10E+00    1.4     0.00211047      -299.7493935291 -2.48E-02
    13 OT SD       0.10E+00    1.4     0.00320010      -299.7550408922 -5.65E-03
    14 OT DIIS     0.10E+00    1.4     0.00238629      -299.7572629339 -2.22E-03
    15 OT DIIS     0.10E+00    1.4     0.00139243      -299.7664943699 -9.23E-03
    16 OT DIIS     0.10E+00    1.4     0.00137004      -299.7681664262 -1.67E-03
    17 OT DIIS     0.10E+00    1.4     0.00131119      -299.7703248618 -2.16E-03
    18 OT DIIS     0.10E+00    1.4     0.00127185      -299.7759448436 -5.62E-03
    19 OT DIIS     0.10E+00    1.4     0.00122015      -299.7760973760 -1.53E-04
    20 OT DIIS     0.10E+00    1.4     0.00117343      -299.7781067329 -2.01E-03

  Leaving inner SCF loop after reaching    20 steps.


  Electronic density on regular grids:        -13.5025672721        7.4974327279
  Core density on regular grids:               21.0000000000        0.0000000000
  Hard and soft densities (Lebedev):          -28.8084518254      -21.3110187822
  Total Rho_soft + Rho1_hard - Rho1_soft      -21.0000003152
  Total charge density (r-space):              -0.0000003152
  Total Rho_soft + Rho0_soft (g-space):        -0.0000004544

  Overlap energy of the core charge distribution:               0.00000000000000
  Self energy of the core charge distribution:               -297.12910950309436
  Core Hamiltonian energy:                                    -25.85411454292251
  Hartree energy:                                              26.86929425213337
  Exchange-correlation energy:                                 -8.32375556074289

  GAPW| Exc from hard and soft atomic rho1:                   -18.42507256392901
  GAPW| local Eh = 1 center integrals:                         23.08465118569932

  Total energy:                                              -299.77810673285603

  outer SCF iter =    1 RMS gradient =   0.12E-02 energy =       -299.7781067329

  ----------------------------------- OT ---------------------------------------
  Minimizer      : DIIS                : direct inversion
                                         in the iterative subspace
                                         using   7 DIIS vectors
                                         safer DIIS on
  Preconditioner : FULL_ALL            : diagonalization, state selective
  Precond_solver : DEFAULT
  stepsize       :    0.10000000                  energy_gap     :    0.08000000
  eps_taylor     :   0.10000E-15                  max_taylor     :             4
  ----------------------------------- OT ---------------------------------------

  Step     Update method      Time    Convergence         Total energy    Change
  ------------------------------------------------------------------------------
     1 OT DIIS     0.10E+00    2.8     0.00481464      -299.7880029425 -9.90E-03
     2 OT DIIS     0.10E+00    1.4     0.00380394      -299.7932085292 -5.21E-03
     3 OT DIIS     0.10E+00    1.4     0.00094518      -299.8012753602 -8.07E-03
     4 OT DIIS     0.10E+00    1.4     0.00072882      -299.8014386675 -1.63E-04
     5 OT DIIS     0.10E+00    1.4     0.00027363      -299.8015332261 -9.46E-05
     6 OT DIIS     0.10E+00    1.4     0.00016134      -299.8015488938 -1.57E-05
     7 OT DIIS     0.10E+00    1.4     0.00004123      -299.8015612864 -1.24E-05
     8 OT DIIS     0.10E+00    1.4     0.00003218      -299.8015616420 -3.56E-07
     9 OT DIIS     0.10E+00    1.4     0.00000584      -299.8015620686 -4.27E-07
    10 OT DIIS     0.10E+00    1.4     0.00000148      -299.8015620856 -1.71E-08
    11 OT DIIS     0.10E+00    1.4     0.00000109      -299.8015620862 -5.67E-10
    12 OT DIIS     0.10E+00    1.4     0.00000044      -299.8015620866 -4.38E-10
    13 OT DIIS     0.10E+00    1.4     0.00000016      -299.8015620867 -4.30E-11
    14 OT DIIS     0.10E+00    1.4     0.00000005      -299.8015620867 -1.15E-11

  *** SCF run converged in    14 steps ***


  Electronic density on regular grids:        -13.5105627030        7.4894372970
  Core density on regular grids:               21.0000000000        0.0000000000
  Hard and soft densities (Lebedev):          -28.5414778690      -21.0520401466
  Total Rho_soft + Rho1_hard - Rho1_soft      -21.0000004254
  Total charge density (r-space):              -0.0000004254
  Total Rho_soft + Rho0_soft (g-space):        -0.0000005646

  Overlap energy of the core charge distribution:               0.00000000000000
  Self energy of the core charge distribution:               -297.12910950309436
  Core Hamiltonian energy:                                    -25.89947212908957
  Hartree energy:                                              26.88473984029957
  Exchange-correlation energy:                                 -8.33247360329433

  GAPW| Exc from hard and soft atomic rho1:                   -18.41529608813835
  GAPW| local Eh = 1 center integrals:                         23.09004939662842

  Total energy:                                              -299.80156208668859

  outer SCF iter =    2 RMS gradient =   0.53E-07 energy =       -299.8015620867
  outer SCF loop converged in   2 iterations or   34 steps


  Integrated absolute spin density  :                               1.0033330921
  Ideal and single determinant S**2 :                    0.750000       0.750328

 ENERGY| Total FORCE_EVAL ( QS ) energy [a.u.]:             -299.801562086688591

 -------------------------------------------------------------------------------
 -                                                                             -
 -                                DBCSR STATISTICS                             -
 -                                                                             -
 -------------------------------------------------------------------------------
 COUNTER                                    TOTAL       BLAS       SMM       ACC
 flops    10 x    10 x    10               582000       0.0%    100.0%      0.0%
 flops    11 x    11 x    11               803924       0.0%    100.0%      0.0%
 flops    10 x    10 x    57              1573200       0.0%    100.0%      0.0%
 flops    10 x    10 x    63              1738800       0.0%    100.0%      0.0%
 flops    11 x    11 x    57              1903572       0.0%    100.0%      0.0%
 flops    11 x    11 x    63              2103948       0.0%    100.0%      0.0%
 flops    57 x    57 x    10              2274300       0.0%    100.0%      0.0%
 flops    57 x    57 x    11              2501730       0.0%    100.0%      0.0%
 flops    57 x    63 x    10              2513700       0.0%    100.0%      0.0%
 flops    57 x    63 x    11              2765070       0.0%    100.0%      0.0%
 flops    63 x    63 x    10              2778300       0.0%    100.0%      0.0%
 flops    63 x    63 x    11              3056130       0.0%    100.0%      0.0%
 flops   120 x    10 x    10              4128000       0.0%    100.0%      0.0%
 flops   120 x    11 x    11              4994880       0.0%    100.0%      0.0%
 flops    57 x    10 x    57              5393340       0.0%    100.0%      0.0%
 flops    57 x    11 x    57              5861196       0.0%    100.0%      0.0%
 flops    57 x    10 x    63              5961060       0.0%    100.0%      0.0%
 flops    63 x    10 x    57              5961060       0.0%    100.0%      0.0%
 flops    57 x    11 x    63              6478164       0.0%    100.0%      0.0%
 flops    63 x    11 x    57              6478164       0.0%    100.0%      0.0%
 flops    63 x    10 x    63              6588540       0.0%    100.0%      0.0%
 flops    63 x    11 x    63              7160076       0.0%    100.0%      0.0%
 flops   120 x    10 x    57              9849600       0.0%    100.0%      0.0%
 flops   120 x    11 x    57             10834560       0.0%    100.0%      0.0%
 flops   120 x    10 x    63             10886400       0.0%    100.0%      0.0%
 flops   120 x    11 x    63             11975040       0.0%    100.0%      0.0%
 flops inhomo. stacks                           0       0.0%      0.0%      0.0%
 flops total                       127.144754E+06       0.0%    100.0%      0.0%
 flops max/rank                    127.144754E+06       0.0%    100.0%      0.0%
 matmuls inhomo. stacks                         0       0.0%      0.0%      0.0%
 matmuls total                               2647       0.0%    100.0%      0.0%
 number of processed stacks                  2647       0.0%    100.0%      0.0%
 average stack size                                     0.0       1.0       0.0
 marketing flops                   132.530096E+06
 -------------------------------------------------------------------------------
 # multiplications                           1596
 max memory usage/rank             429.006848E+06
 # max total images/rank                        3
 # max 3D layers                                1
 # MPI messages exchanged                  727776
 MPI messages size (bytes):
  total size                       237.679136E+06
  min size                           0.000000E+00
  max size                          60.480000E+03
  average size                     326.582825E+00
 MPI breakdown and total messages size (bytes):
             size <=      128              710360                        0
       128 < size <=     8192               12046                 36712736
      8192 < size <=    32768                2280                 22982400
     32768 < size <=   131072                3090                177984000
    131072 < size <=  4194304                   0                        0
   4194304 < size <= 16777216                   0                        0
  16777216 < size                               0                        0
 -------------------------------------------------------------------------------

 *** WARNING in dbcsr_mm.F:290 :: Using a non-square number of MPI ranks ***
 *** might lead to poor performance. Used ranks: 24 Suggested: 25 49     ***

 -------------------------------------------------------------------------------
 -                                                                             -
 -                      DBCSR MESSAGE PASSING PERFORMANCE                      -
 -                                                                             -
 -------------------------------------------------------------------------------
 ROUTINE             CALLS      AVE VOLUME [Bytes]
 MP_Bcast               27                     12.
 MP_Allreduce         8519                      8.
 MP_Alltoall          5722                   2580.
 MP_ISend            67016                    814.
 MP_IRecv            67016                     59.
 -------------------------------------------------------------------------------

 -------------------------------------------------------------------------------
 -                                                                             -
 -                                GRID STATISTICS                              -
 -                                                                             -
 -------------------------------------------------------------------------------
 LP    KERNEL             BACKEND                              COUNT     PERCENT
 2     collocate ortho    REF                                  37800      14.07%
 2     integrate ortho    REF                                  36720      13.67%
 1     collocate ortho    REF                                  33180      12.35%
 1     integrate ortho    REF                                  32232      12.00%
 3     collocate ortho    REF                                  28840      10.74%
 3     integrate ortho    REF                                  28016      10.43%
 0     collocate ortho    REF                                  14560       5.42%
 0     integrate ortho    REF                                  14144       5.27%
 4     collocate ortho    REF                                  13790       5.13%
 4     integrate ortho    REF                                  13396       4.99%
 5     collocate ortho    REF                                   4480       1.67%
 5     integrate ortho    REF                                   4352       1.62%
 2     collocate general  REF                                   1632       0.61%
 2     integrate general  REF                                   1632       0.61%
 6     collocate ortho    REF                                   1540       0.57%
 6     integrate ortho    REF                                   1496       0.56%
 7     collocate ortho    REF                                    350       0.13%
 7     integrate ortho    REF                                    340       0.13%
 8     collocate ortho    REF                                     70       0.03%
 8     integrate ortho    REF                                     68       0.03%
 -------------------------------------------------------------------------------

 MEMORY| Estimated peak process memory [MiB]                                 410

 -------------------------------------------------------------------------------
 -                                                                             -
 -                         MESSAGE PASSING PERFORMANCE                         -
 -                                                                             -
 -------------------------------------------------------------------------------

 ROUTINE             CALLS      AVE VOLUME [Bytes]
 MP_Group                4
 MP_Bcast              929                 180911.
 MP_Allreduce         2666                  71029.
 MP_Sync               132
 MP_Alltoall          1316                9726064.
 MP_ISendRecv         9522                 191232.
 MP_Wait             15908
 MP_comm_split          64
 MP_ISend             5768                 488292.
 MP_IRecv             5768                 488337.
 MP_Recv                18                   1920.
 -------------------------------------------------------------------------------


 -------------------------------------------------------------------------------
 -                                                                             -
 -                           R E F E R E N C E S                               -
 -                                                                             -
 -------------------------------------------------------------------------------
 
 CP2K version 10.0 (Development Version), the CP2K developers group (2022).
 CP2K is freely available from https://www.cp2k.org/ .

 Kuehne,Thomas D.; Iannuzzi,Marcella; Del Ben,Mauro;
 Rybkin,Vladimir V.; Seewald,Patrick; Stein,Frederick; Laino,Teodoro;
 Khaliullin,Rustam Z.; Schuett,Ole; Schiffmann,Florian; Golze,Dorothea;
 Wilhelm,Jan; Chulkov,Sergey; Bani-Hashemian,Mohammad Hossein;
 Weber,Valery; Borstnik,Urban; Taillefumier,Mathieu;
 Jakobovits,Alice Shoshana; Lazzaro,Alfio; Pabst,Hans; Mueller,Tiziano;
 Schade,Robert; Guidon,Manuel; Andermatt,Samuel; Holmberg,Nico;
 Schenter,Gregory K.; Hehn,Anna; Bussy,Augustin; Belleflamme,Fabian;
 Tabacchi,Gloria; Gloess,Andreas; Lass,Michael; Bethune,Iain;
 Mundy,Christopher J.; Plessl,Christian; Watkins,Matt;
 VandeVondele,Joost; Krack,Matthias; Hutter,Juerg. 
 The Journal of Chemical Physics, 152 (19), (2020). 
 CP2K: An electronic structure and molecular dynamics software package -
 Quickstep: Efficient and accurate electronic structure calculations.
 https://doi.org/10.1063/5.0007045

 Schuett, Ole; Messmer, Peter; Hutter, Juerg; VandeVondele, Joost. 
 Electronic Structure Calculations on Graphics Processing Units, John
 Wiley & Sons, Ltd, 173-190 (2016). 
 GPU-Accelerated Sparse Matrix-Matrix Multiplication for
 Linear Scaling Density Functional Theory.
 https://doi.org/10.1002/9781118670712.ch8

 Heinecke, A; Henry, G; Hutchinson, M; Pabst, H. 
 Proceedings of Intl. Supercomputing Conference, 981-991 (2016). 
 LIBXSMM: Accelerating Small Matrix Multiplications
 by Runtime Code Generation.
 https://doi.org/10.1109/SC.2016.83

 Borstnik, U; VandeVondele, J; Weber, V; Hutter, J. 
 PARALLEL COMPUTING, 40 (5-6), 47-58 (2014). 
 Sparse matrix multiplication: The distributed block-compressed sparse
 row library.
 https://doi.org/10.1016/j.parco.2014.03.012

 Hutter, J; Iannuzzi, M; Schiffmann, F; VandeVondele, J. 
 WIREs Comput Mol Sci., 4 (1), 15-25 (2014). 
 CP2K: atomistic simulations of condensed matter systems.
 https://doi.org/10.1002/wcms.1159

 Frigo, M; Johnson, SG. 
 PROCEEDINGS OF THE IEEE, 93 (2), 216-231 (2005). 
 The design and implementation of FFTW3.
 https://doi.org/10.1109/JPROC.2004.840301

 VandeVondele, J; Hutter, J. 
 JOURNAL OF CHEMICAL PHYSICS, 118 (10), 4365-4369 (2003). 
 An efficient orbital transformation method for electronic structure
 calculations.
 https://doi.org/10.1063/1.1543154

 Lippert, G; Hutter, J; Parrinello, M. 
 THEORETICAL CHEMISTRY ACCOUNTS, 103 (2), 124-140 (1999). 
 The Gaussian and augmented-plane-wave density functional method for ab
 initio molecular dynamics simulations.
 https://doi.org/10.1007/s002140050523

 Krack, M; Parrinello, M. 
 PHYSICAL CHEMISTRY CHEMICAL PHYSICS, 2 (10), 2105-2112 (2000). 
 All-electron ab-initio molecular dynamics.
 https://doi.org/10.1039/b001167n

 Perdew, JP; Burke, K; Ernzerhof, M. 
 PHYSICAL REVIEW LETTERS, 77 (18), 3865-3868 (1996). 
 Generalized gradient approximation made simple.
 https://doi.org/10.1103/PhysRevLett.77.3865


 -------------------------------------------------------------------------------
 -                                                                             -
 -                                T I M I N G                                  -
 -                                                                             -
 -------------------------------------------------------------------------------
 SUBROUTINE                       CALLS  ASD         SELF TIME        TOTAL TIME
                                MAXIMUM       AVERAGE  MAXIMUM  AVERAGE  MAXIMUM
 CP2K                                 1  1.0    0.012    0.026   48.833   48.834
 qs_energies                          1  2.0    0.000    0.000   48.614   48.614
 scf_env_do_scf                       1  3.0    0.000    0.000   48.217   48.218
 scf_env_do_scf_inner_loop           34  4.0    0.001    0.002   45.915   45.915
 qs_ks_update_qs_env                 36  5.0    0.000    0.000   38.409   38.413
 rebuild_ks_matrix                   34  6.0    0.000    0.000   38.403   38.405
 qs_ks_build_kohn_sham_matrix        34  7.0    0.007    0.009   38.403   38.405
 pw_transfer                       1268 10.3    0.119    0.137   20.376   21.072
 fft_wrap_pw1pw2                   1166 11.3    0.015    0.016   20.171   20.851
 fft_wrap_pw1pw2_300                752 12.8    1.199    1.265   19.007   19.755
 qs_vxc_create                       34  8.0    0.001    0.001   18.182   18.183
 xc_vxc_pw_create                    34  9.0    0.226    0.285   18.182   18.182
 fft3d_ps                          1166 13.3    8.173    9.149   15.374   16.717
 xc_pw_derive                       408 11.0    0.004    0.005   11.273   12.170
 xc_rho_set_and_dset_create          34 10.0    0.194    0.223    9.835   10.362
 xc_pw_divergence                    68 10.0    0.002    0.003    7.853    8.723
 qs_rho_update_rho                   35  5.0    0.001    0.001    8.353    8.356
 mp_alltoall_z22v                  1166 15.3    5.520    8.071    5.520    8.071
 calculate_rho_elec                  70  6.0    0.075    0.081    7.926    7.926
 rs_pw_transfer                     620  9.5    0.012    0.015    6.841    7.236
 density_rs2pw                       70  7.0    0.003    0.004    6.599    6.959
 mp_sum_d                          1978  8.4    5.863    6.400    5.863    6.400
 sum_up_and_integrate                34  8.0    0.040    0.044    5.929    5.933
 integrate_v_rspace                  68  9.0    0.002    0.003    5.889    5.895
 yz_to_x                            586 13.9    0.792    1.132    3.930    5.547
 potential_pw2rs                     68 10.0    0.006    0.007    5.217    5.224
 prepare_gapw_den                    34  8.0    0.001    0.001    5.165    5.200
 calculate_vxc_atom                  34  8.0    0.032    0.429    5.177    5.177
 xc_functional_eval                 170 10.9    0.001    0.001    4.157    4.616
 pbe_lsd_eval                       170 11.9    4.156    4.615    4.156    4.615
 gaVxcgb_GC                          68  9.0    0.190    4.552    0.190    4.552
 x_to_yz                            580 14.8    0.855    1.037    3.238    3.826
 calculate_rho_atom                  68  9.0    0.835    2.809    0.835    2.809
 rs_pw_transfer_RS2PW_300           104  9.7    1.403    1.598    2.232    2.654
 rs_pw_transfer_PW2RS_300           102 11.3    1.358    1.482    2.234    2.376
 init_scf_loop                        2  4.0    0.000    0.000    2.301    2.301
 pw_gather_p                        586 12.9    1.748    2.018    1.748    2.018
 mp_sum_dv                          840 12.9    1.628    1.954    1.628    1.954
 mp_waitany                        5768 11.5    1.302    1.884    1.302    1.884
 pw_scatter_p                       580 13.8    1.786    1.880    1.786    1.880
 dbcsr_multiply_generic            1596 10.1    0.045    0.046    1.853    1.879
 mp_waitall_1                     99516 14.1    1.616    1.849    1.616    1.849
 put_rho0_on_grid                    34  9.0    0.040    0.046    1.733    1.768
 integrate_vhg0_rspace               34  8.0    0.140    0.325    1.577    1.605
 qs_scf_new_mos                      34  5.0    0.000    0.000    1.557    1.558
 qs_scf_loop_do_ot                   34  6.0    0.000    0.000    1.557    1.558
 ot_scf_mini                         34  7.0    0.001    0.001    1.491    1.492
 rs_pw_transfer_PW2RS_100            68 12.0    0.234    0.270    1.171    1.338
 grid_collocate_task_list            70  7.0    1.031    1.123    1.031    1.123
 calculate_rho0_atom                 68  9.0    0.971    1.115    0.971    1.115
 fft_wrap_pw1pw2_100                138 11.5    0.038    0.046    0.878    1.114
 ot_mini                             34  8.0    0.000    0.000    0.984    0.985
 -------------------------------------------------------------------------------

 The number of warnings for this run is : 1
 
 -------------------------------------------------------------------------------
  **** **** ******  **  PROGRAM ENDED AT                 2022-05-12 12:37:42.120
 ***** ** ***  *** **   PROGRAM RAN ON                                   tcopt10
 **    ****   ******    PROGRAM RAN BY                                    hutter
 ***** **    ** ** **   PROGRAM PROCESS ID                                 62288
  **** **  *******  **  PROGRAM STOPPED IN /data/hutter/GITHUB/BASIS/scMOLOPT/PB
                                           E/Mg
