
  **** **** ******  **  PROGRAM STARTED AT               2021-01-22 17:51:01.727
 ***** ** ***  *** **   PROGRAM STARTED ON                               tcopt10
 **    ****   ******    PROGRAM STARTED BY                                hutter
 ***** **    ** ** **   PROGRAM PROCESS ID                                 87901
  **** **  *******  **  PROGRAM STARTED IN /data/hutter/GITHUB/BASIS/MOLOPT/PBE/
                                           Ni

 CP2K| version string:                    CP2K version 9.0 (Development Version)
 CP2K| source code revision number:                                  git:7d6847f
 CP2K| cp2kflags: omp libint fftw3 libxc elpa parallel mpi3 scalapack xsmm spgli
 CP2K|            b sirius libvori libbqb
 CP2K| is freely available from                            https://www.cp2k.org/
 CP2K| Program compiled at                          Fre Jan 15 16:26:00 CET 2021
 CP2K| Program compiled on                                               tcopt10
 CP2K| Program compiled for                                                local
 CP2K| Data directory path                 /data/hutter/GITHUB/CURRENT/cp2k/data
 CP2K| Input file name                                               opt-all.inp

 GLOBAL| Method name                                              OPTIMIZE_BASIS
 GLOBAL| Project name                                                     molopt
 GLOBAL| Preferred FFT library                                             FFTW3
 GLOBAL| Preferred diagonalization lib.                                     ELPA
 GLOBAL| Run type                                                   ENERGY_FORCE
 GLOBAL| All-to-all communication in single precision                          F
 GLOBAL| FFTs using library dependent lengths                                  F
 GLOBAL| Global print level                                               MEDIUM
 GLOBAL| MPI I/O enabled                                                       T
 GLOBAL| Total number of message passing processes                            48
 GLOBAL| Number of threads for this process                                    1
 GLOBAL| This output is from process                                           0
 GLOBAL| CPU model name                          AMD EPYC 7401 24-Core Processor
 GLOBAL| CPUID                                                              1002

 MEMORY| system memory details [Kb]
 MEMORY|                        rank 0           min           max       average
 MEMORY| MemTotal            263969964     263969964     263969964     263969964
 MEMORY| MemFree             258727992     258727992     258727992     258727992
 MEMORY| Buffers                    20            20            20            20
 MEMORY| Cached                1205716       1205716       1205716       1205716
 MEMORY| Slab                   608196        608196        608196        608196
 MEMORY| SReclaimable           244592        244592        244592        244592
 MEMORY| MemLikelyFree       260178320     260178320     260178320     260178320


 *** Fundamental physical constants (SI units) ***

 *** Literature: B. J. Mohr and B. N. Taylor,
 ***             CODATA recommended values of the fundamental physical
 ***             constants: 2006, Web Version 5.1
 ***             http://physics.nist.gov/constants

 Speed of light in vacuum [m/s]                             2.99792458000000E+08
 Magnetic constant or permeability of vacuum [N/A**2]       1.25663706143592E-06
 Electric constant or permittivity of vacuum [F/m]          8.85418781762039E-12
 Planck constant (h) [J*s]                                  6.62606896000000E-34
 Planck constant (h-bar) [J*s]                              1.05457162825177E-34
 Elementary charge [C]                                      1.60217648700000E-19
 Electron mass [kg]                                         9.10938215000000E-31
 Electron g factor [ ]                                     -2.00231930436220E+00
 Proton mass [kg]                                           1.67262163700000E-27
 Fine-structure constant                                    7.29735253760000E-03
 Rydberg constant [1/m]                                     1.09737315685270E+07
 Avogadro constant [1/mol]                                  6.02214179000000E+23
 Boltzmann constant [J/K]                                   1.38065040000000E-23
 Atomic mass unit [kg]                                      1.66053878200000E-27
 Bohr radius [m]                                            5.29177208590000E-11

 *** Conversion factors ***

 [u] -> [a.u.]                                              1.82288848426455E+03
 [Angstrom] -> [Bohr] = [a.u.]                              1.88972613288564E+00
 [a.u.] = [Bohr] -> [Angstrom]                              5.29177208590000E-01
 [a.u.] -> [s]                                              2.41888432650478E-17
 [a.u.] -> [fs]                                             2.41888432650478E-02
 [a.u.] -> [J]                                              4.35974393937059E-18
 [a.u.] -> [N]                                              8.23872205491840E-08
 [a.u.] -> [K]                                              3.15774647902944E+05
 [a.u.] -> [kJ/mol]                                         2.62549961709828E+03
 [a.u.] -> [kcal/mol]                                       6.27509468713739E+02
 [a.u.] -> [Pa]                                             2.94210107994716E+13
 [a.u.] -> [bar]                                            2.94210107994716E+08
 [a.u.] -> [atm]                                            2.90362800883016E+08
 [a.u.] -> [eV]                                             2.72113838565563E+01
 [a.u.] -> [Hz]                                             6.57968392072181E+15
 [a.u.] -> [1/cm] (wave numbers)                            2.19474631370540E+05
 [a.u./Bohr**2] -> [1/cm]                                   5.14048714338585E+03
 
 DBCSR| CPU Multiplication driver                                           XSMM
 DBCSR| Multrec recursion limit                                              512
 DBCSR| Multiplication stack size                                           1000
 DBCSR| Maximum elements for images                                    UNLIMITED
 DBCSR| Multiplicative factor virtual images                                   1
 DBCSR| Use multiplication densification                                       T
 DBCSR| Multiplication size stacks                                             3
 DBCSR| Use memory pool for CPU allocation                                     F
 DBCSR| Number of 3D layers                                               SINGLE
 DBCSR| Use MPI memory allocation                                              F
 DBCSR| Use RMA algorithm                                                      F
 DBCSR| Use Communication thread                                               T
 DBCSR| Communication thread load                                             87
 DBCSR| MPI: My node id                                                        0
 DBCSR| MPI: Number of nodes                                                  48
 DBCSR| OMP: Current number of threads                                         1
 DBCSR| OMP: Max number of threads                                             1
 DBCSR| Split modifier for TAS multiplication algorithm                  1.0E+00

 BASOPT| Total number of calculations     18

 BASOPT| Content of basis combination      1
 BASOPT|     Element:   NI    Basis set:    TZV2P-MOLOPT-PBE-GTH-Q18
 BASOPT|     Element:    S    Basis set:    TZV2P-MOLOPT-PBE-GTH-Q6
 BASOPT|     Element:   CL    Basis set:    TZV2P-MOLOPT-PBE-GTH-Q7
 BASOPT|     Element:    O    Basis set:    TZV2P-MOLOPT-PBE-GTH-Q6
 BASOPT|     Element:    C    Basis set:    TZV2P-MOLOPT-PBE-GTH-Q4
 BASOPT|     Element:    F    Basis set:    TZV2P-MOLOPT-PBE-GTH-Q7

 BASOPT| Content of basis combination      2
 BASOPT|     Element:   NI    Basis set:    TZVP-MOLOPT-PBE-GTH-q18
 BASOPT|     Element:    S    Basis set:    TZVP-MOLOPT-PBE-GTH-q6
 BASOPT|     Element:   CL    Basis set:    TZVP-MOLOPT-PBE-GTH-q7
 BASOPT|     Element:    O    Basis set:    TZVP-MOLOPT-PBE-GTH-q6
 BASOPT|     Element:    C    Basis set:    TZVP-MOLOPT-PBE-GTH-q4
 BASOPT|     Element:    F    Basis set:    TZVP-MOLOPT-PBE-GTH-q7

 BASOPT| Content of basis combination      3
 BASOPT|     Element:   NI    Basis set:    DZVP-MOLOPT-PBE-GTH-q18
 BASOPT|     Element:    S    Basis set:    DZVP-MOLOPT-PBE-GTH-q6
 BASOPT|     Element:   CL    Basis set:    DZVP-MOLOPT-PBE-GTH-q7
 BASOPT|     Element:    O    Basis set:    DZVP-MOLOPT-PBE-GTH-q6
 BASOPT|     Element:    C    Basis set:    DZVP-MOLOPT-PBE-GTH-q4
 BASOPT|     Element:    F    Basis set:    DZVP-MOLOPT-PBE-GTH-q7

 BASOPT| Information at iteration number:       0
 BASOPT| Training set | Combination | Rho difference | Condition num. | Time
 BASOPT| -----------------------------------------------------------------------
 BASOPT|        1     |       1     | 0.23236961E-02 | 0.13572148E+04 |    0.041
 BASOPT|        1     |       2     | 0.28131638E-02 | 0.79982509E+03 |    0.036
 BASOPT|        1     |       3     | 0.32230277E+00 | 0.94654815E+02 |    0.031
 BASOPT|        2     |       1     | 0.57057578E-02 | 0.13078150E+04 |    0.062
 BASOPT|        2     |       2     | 0.68316332E-02 | 0.72435011E+03 |    0.048
 BASOPT|        2     |       3     | 0.32069807E+00 | 0.59452937E+02 |    0.045
 BASOPT|        3     |       1     | 0.21195632E-02 | 0.70433898E+03 |    0.076
 BASOPT|        3     |       2     | 0.27068291E-02 | 0.39499109E+03 |    0.053
 BASOPT|        3     |       3     | 0.34666272E+00 | 0.17295967E+03 |    0.050
 BASOPT|        4     |       1     | 0.40746133E-02 | 0.29817823E+04 |    0.086
 BASOPT|        4     |       2     | 0.51308489E-02 | 0.61146807E+03 |    0.063
 BASOPT|        4     |       3     | 0.33204827E+00 | 0.64783941E+02 |    0.053
 BASOPT|        5     |       1     | 0.25327342E-02 | 0.64793485E+03 |    0.163
 BASOPT|        5     |       2     | 0.35231486E-02 | 0.43376892E+03 |    0.121
 BASOPT|        5     |       3     | 0.19356063E+00 | 0.10291828E+03 |    0.101
 BASOPT|        6     |       1     | 0.44858518E-02 | 0.14224335E+06 |    1.175
 BASOPT|        6     |       2     | 0.67717457E-02 | 0.18813081E+05 |    0.754
 BASOPT|        6     |       3     | 0.87250084E-01 | 0.16377898E+04 |    0.627
 BASOPT| -----------------------------------------------------------------------
 BASOPT| Total residuum value: -.60512852E+04

 BASOPT| Information at iteration number:     100
 BASOPT| Training set | Combination | Rho difference | Condition num. | Time
 BASOPT| -----------------------------------------------------------------------
 BASOPT|        1     |       1     | 0.26435745E-02 | 0.12442863E+04 |    4.697
 BASOPT|        1     |       2     | 0.30979089E-02 | 0.74596349E+03 |    3.858
 BASOPT|        1     |       3     | 0.32262377E+00 | 0.88848120E+02 |    3.360
 BASOPT|        2     |       1     | 0.59399861E-02 | 0.13257220E+04 |    7.286
 BASOPT|        2     |       2     | 0.70210068E-02 | 0.72638262E+03 |    5.653
 BASOPT|        2     |       3     | 0.32090830E+00 | 0.57990976E+02 |    5.234
 BASOPT|        3     |       1     | 0.23783846E-02 | 0.69737464E+03 |    8.026
 BASOPT|        3     |       2     | 0.29934943E-02 | 0.39102576E+03 |    5.958
 BASOPT|        3     |       3     | 0.34693441E+00 | 0.17219522E+03 |    5.232
 BASOPT|        4     |       1     | 0.43390733E-02 | 0.29516815E+04 |   10.012
 BASOPT|        4     |       2     | 0.54327825E-02 | 0.62332625E+03 |    7.162
 BASOPT|        4     |       3     | 0.33251164E+00 | 0.64504735E+02 |    6.101
 BASOPT|        5     |       1     | 0.26451252E-02 | 0.59689420E+03 |   19.393
 BASOPT|        5     |       2     | 0.36438422E-02 | 0.39470550E+03 |   14.037
 BASOPT|        5     |       3     | 0.19438575E+00 | 0.10249750E+03 |   11.879
 BASOPT|        6     |       1     | 0.46488338E-02 | 0.14145477E+06 |  141.878
 BASOPT|        6     |       2     | 0.70341134E-02 | 0.18708834E+05 |   90.177
 BASOPT|        6     |       3     | 0.87442452E-01 | 0.13649705E+04 |   74.623
 BASOPT| -----------------------------------------------------------------------
 BASOPT| Total residuum value: -.60508836E+04

 BASOPT| Information at iteration number:     200
 BASOPT| Training set | Combination | Rho difference | Condition num. | Time
 BASOPT| -----------------------------------------------------------------------
 BASOPT|        1     |       1     | 0.38527337E-02 | 0.14509467E+04 |    9.367
 BASOPT|        1     |       2     | 0.42830626E-02 | 0.79067629E+03 |    7.695
 BASOPT|        1     |       3     | 0.13762010E-01 | 0.83121349E+02 |    6.703
 BASOPT|        2     |       1     | 0.76935077E-02 | 0.79053149E+03 |   14.555
 BASOPT|        2     |       2     | 0.86777697E-02 | 0.45336240E+03 |   11.286
 BASOPT|        2     |       3     | 0.24933202E-01 | 0.56105346E+02 |   10.455
 BASOPT|        3     |       1     | 0.35050656E-02 | 0.69494845E+03 |   16.014
 BASOPT|        3     |       2     | 0.41139216E-02 | 0.39092168E+03 |   11.892
 BASOPT|        3     |       3     | 0.82957513E-02 | 0.17336105E+03 |   10.429
 BASOPT|        4     |       1     | 0.54885365E-02 | 0.13283424E+04 |   19.984
 BASOPT|        4     |       2     | 0.65294486E-02 | 0.42347806E+03 |   14.292
 BASOPT|        4     |       3     | 0.13051946E-01 | 0.63857908E+02 |   12.182
 BASOPT|        5     |       1     | 0.39047016E-02 | 0.70110114E+03 |   38.749
 BASOPT|        5     |       2     | 0.49052839E-02 | 0.46220810E+03 |   28.011
 BASOPT|        5     |       3     | 0.99633860E-02 | 0.96625516E+02 |   23.730
 BASOPT|        6     |       1     | 0.57461327E-02 | 0.11201688E+05 |  283.498
 BASOPT|        6     |       2     | 0.79282515E-02 | 0.77005556E+04 |  180.201
 BASOPT|        6     |       3     | 0.14915924E-01 | 0.16893898E+04 |  149.162
 BASOPT| -----------------------------------------------------------------------
 BASOPT| Total residuum value: -.60779882E+04

 BASOPT| Information at iteration number:     300
 BASOPT| Training set | Combination | Rho difference | Condition num. | Time
 BASOPT| -----------------------------------------------------------------------
 BASOPT|        1     |       1     | 0.36581003E-02 | 0.13956994E+04 |   14.044
 BASOPT|        1     |       2     | 0.40667789E-02 | 0.74833888E+03 |   11.535
 BASOPT|        1     |       3     | 0.90202773E-02 | 0.82773129E+02 |   10.050
 BASOPT|        2     |       1     | 0.74751834E-02 | 0.77406010E+03 |   21.822
 BASOPT|        2     |       2     | 0.84672552E-02 | 0.44871452E+03 |   16.917
 BASOPT|        2     |       3     | 0.11443923E-01 | 0.54629849E+02 |   15.678
 BASOPT|        3     |       1     | 0.32811943E-02 | 0.68035662E+03 |   23.998
 BASOPT|        3     |       2     | 0.39460300E-02 | 0.37851612E+03 |   17.830
 BASOPT|        3     |       3     | 0.14474475E-01 | 0.16436502E+03 |   15.630
 BASOPT|        4     |       1     | 0.53266457E-02 | 0.17035724E+04 |   29.955
 BASOPT|        4     |       2     | 0.63852719E-02 | 0.43746829E+03 |   21.429
 BASOPT|        4     |       3     | 0.11868689E-01 | 0.60447287E+02 |   18.270
 BASOPT|        5     |       1     | 0.36627121E-02 | 0.63723650E+03 |   58.158
 BASOPT|        5     |       2     | 0.46908777E-02 | 0.42193537E+03 |   41.961
 BASOPT|        5     |       3     | 0.17602072E-01 | 0.94637108E+02 |   35.585
 BASOPT|        6     |       1     | 0.56433059E-02 | 0.13987163E+05 |  425.250
 BASOPT|        6     |       2     | 0.78283963E-02 | 0.10147938E+05 |  270.287
 BASOPT|        6     |       3     | 0.15593547E-01 | 0.15622765E+04 |  223.672
 BASOPT| -----------------------------------------------------------------------
 BASOPT| Total residuum value: -.60788629E+04

 BASOPT| Information at iteration number:     400
 BASOPT| Training set | Combination | Rho difference | Condition num. | Time
 BASOPT| -----------------------------------------------------------------------
 BASOPT|        1     |       1     | 0.34242627E-02 | 0.14406609E+04 |   18.714
 BASOPT|        1     |       2     | 0.39312009E-02 | 0.79929522E+03 |   15.375
 BASOPT|        1     |       3     | 0.69027971E-02 | 0.83808447E+02 |   13.400
 BASOPT|        2     |       1     | 0.71351602E-02 | 0.82960190E+03 |   29.091
 BASOPT|        2     |       2     | 0.82253020E-02 | 0.48049222E+03 |   22.552
 BASOPT|        2     |       3     | 0.11411394E-01 | 0.56074903E+02 |   20.904
 BASOPT|        3     |       1     | 0.30635472E-02 | 0.71073263E+03 |   31.983
 BASOPT|        3     |       2     | 0.37899023E-02 | 0.39898554E+03 |   23.769
 BASOPT|        3     |       3     | 0.97995060E-02 | 0.17299011E+03 |   20.830
 BASOPT|        4     |       1     | 0.51004302E-02 | 0.12570376E+04 |   39.927
 BASOPT|        4     |       2     | 0.62081743E-02 | 0.42367643E+03 |   28.574
 BASOPT|        4     |       3     | 0.90399671E-02 | 0.63440322E+02 |   24.358
 BASOPT|        5     |       1     | 0.34663557E-02 | 0.67944742E+03 |   77.575
 BASOPT|        5     |       2     | 0.45172393E-02 | 0.44749732E+03 |   55.917
 BASOPT|        5     |       3     | 0.13630992E-01 | 0.97773360E+02 |   47.429
 BASOPT|        6     |       1     | 0.58130202E-02 | 0.11185462E+05 |  567.076
 BASOPT|        6     |       2     | 0.79601764E-02 | 0.76502496E+04 |  360.387
 BASOPT|        6     |       3     | 0.14802085E-01 | 0.16771481E+04 |  298.191
 BASOPT| -----------------------------------------------------------------------
 BASOPT| Total residuum value: -.60782753E+04

 BASOPT| Information at iteration number:     500
 BASOPT| Training set | Combination | Rho difference | Condition num. | Time
 BASOPT| -----------------------------------------------------------------------
 BASOPT|        1     |       1     | 0.33439232E-02 | 0.14569526E+04 |   23.382
 BASOPT|        1     |       2     | 0.37934044E-02 | 0.78458167E+03 |   19.215
 BASOPT|        1     |       3     | 0.76069644E-02 | 0.83371808E+02 |   16.746
 BASOPT|        2     |       1     | 0.70737232E-02 | 0.83570814E+03 |   36.360
 BASOPT|        2     |       2     | 0.80902633E-02 | 0.48398839E+03 |   28.188
 BASOPT|        2     |       3     | 0.10666549E-01 | 0.55303381E+02 |   26.142
 BASOPT|        3     |       1     | 0.30178075E-02 | 0.73724172E+03 |   39.969
 BASOPT|        3     |       2     | 0.37034528E-02 | 0.40275331E+03 |   29.707
 BASOPT|        3     |       3     | 0.12303741E-01 | 0.16860352E+03 |   26.027
 BASOPT|        4     |       1     | 0.50344863E-02 | 0.16999087E+04 |   49.895
 BASOPT|        4     |       2     | 0.60885326E-02 | 0.46099934E+03 |   35.724
 BASOPT|        4     |       3     | 0.10277882E-01 | 0.62212762E+02 |   30.442
 BASOPT|        5     |       1     | 0.34315624E-02 | 0.65598852E+03 |   96.997
 BASOPT|        5     |       2     | 0.44522327E-02 | 0.43264959E+03 |   69.876
 BASOPT|        5     |       3     | 0.15578320E-01 | 0.96096944E+02 |   59.275
 BASOPT|        6     |       1     | 0.54770153E-02 | 0.12952250E+05 |  708.855
 BASOPT|        6     |       2     | 0.76105567E-02 | 0.95692526E+04 |  450.469
 BASOPT|        6     |       3     | 0.14906077E-01 | 0.15268440E+04 |  372.699
 BASOPT| -----------------------------------------------------------------------
 BASOPT| Total residuum value: -.60791956E+04

 BASOPT| Information at iteration number:     600
 BASOPT| Training set | Combination | Rho difference | Condition num. | Time
 BASOPT| -----------------------------------------------------------------------
 BASOPT|        1     |       1     | 0.32261969E-02 | 0.14919709E+04 |   28.059
 BASOPT|        1     |       2     | 0.36542673E-02 | 0.79946476E+03 |   23.055
 BASOPT|        1     |       3     | 0.64689949E-02 | 0.84499448E+02 |   20.097
 BASOPT|        2     |       1     | 0.69479064E-02 | 0.81727768E+03 |   43.628
 BASOPT|        2     |       2     | 0.79482099E-02 | 0.46756799E+03 |   33.823
 BASOPT|        2     |       3     | 0.10877275E-01 | 0.56185531E+02 |   31.383
 BASOPT|        3     |       1     | 0.28505686E-02 | 0.73847098E+03 |   47.964
 BASOPT|        3     |       2     | 0.35127377E-02 | 0.40544218E+03 |   35.642
 BASOPT|        3     |       3     | 0.95172956E-02 | 0.17304856E+03 |   31.225
 BASOPT|        4     |       1     | 0.48458247E-02 | 0.15406597E+04 |   59.865
 BASOPT|        4     |       2     | 0.58782342E-02 | 0.45041308E+03 |   42.873
 BASOPT|        4     |       3     | 0.86493993E-02 | 0.63458307E+02 |   36.523
 BASOPT|        5     |       1     | 0.32729397E-02 | 0.67034551E+03 |  116.420
 BASOPT|        5     |       2     | 0.42625384E-02 | 0.44066436E+03 |   83.826
 BASOPT|        5     |       3     | 0.13663196E-01 | 0.97319376E+02 |   71.124
 BASOPT|        6     |       1     | 0.52683429E-02 | 0.10431685E+05 |  850.588
 BASOPT|        6     |       2     | 0.73772396E-02 | 0.72451910E+04 |  540.561
 BASOPT|        6     |       3     | 0.14378219E-01 | 0.16745247E+04 |  447.217
 BASOPT| -----------------------------------------------------------------------
 BASOPT| Total residuum value: -.60794849E+04

 BASOPT| Information at iteration number:     700
 BASOPT| Training set | Combination | Rho difference | Condition num. | Time
 BASOPT| -----------------------------------------------------------------------
 BASOPT|        1     |       1     | 0.28670289E-02 | 0.14898202E+04 |   32.728
 BASOPT|        1     |       2     | 0.32739579E-02 | 0.81443302E+03 |   26.895
 BASOPT|        1     |       3     | 0.59177738E-02 | 0.83745685E+02 |   23.440
 BASOPT|        2     |       1     | 0.65528627E-02 | 0.84839900E+03 |   50.899
 BASOPT|        2     |       2     | 0.75562179E-02 | 0.48554891E+03 |   39.459
 BASOPT|        2     |       3     | 0.10540657E-01 | 0.55915191E+02 |   36.625
 BASOPT|        3     |       1     | 0.25235812E-02 | 0.75755326E+03 |   55.955
 BASOPT|        3     |       2     | 0.31724563E-02 | 0.42158253E+03 |   41.580
 BASOPT|        3     |       3     | 0.87471127E-02 | 0.17778332E+03 |   36.426
 BASOPT|        4     |       1     | 0.44960586E-02 | 0.15085119E+04 |   69.839
 BASOPT|        4     |       2     | 0.55472705E-02 | 0.45945031E+03 |   50.016
 BASOPT|        4     |       3     | 0.81039314E-02 | 0.64463875E+02 |   42.608
 BASOPT|        5     |       1     | 0.30034033E-02 | 0.65846585E+03 |  135.843
 BASOPT|        5     |       2     | 0.39792987E-02 | 0.43186481E+03 |   97.796
 BASOPT|        5     |       3     | 0.13081773E-01 | 0.98768404E+02 |   82.970
 BASOPT|        6     |       1     | 0.50080343E-02 | 0.11453151E+05 |  992.383
 BASOPT|        6     |       2     | 0.71145149E-02 | 0.83525038E+04 |  630.667
 BASOPT|        6     |       3     | 0.14189938E-01 | 0.16143410E+04 |  521.737
 BASOPT| -----------------------------------------------------------------------
 BASOPT| Total residuum value: -.60797045E+04

 BASOPT| Information at iteration number:     800
 BASOPT| Training set | Combination | Rho difference | Condition num. | Time
 BASOPT| -----------------------------------------------------------------------
 BASOPT|        1     |       1     | 0.28960232E-02 | 0.14882827E+04 |   37.398
 BASOPT|        1     |       2     | 0.32745429E-02 | 0.82092083E+03 |   30.737
 BASOPT|        1     |       3     | 0.60639333E-02 | 0.83854802E+02 |   26.777
 BASOPT|        2     |       1     | 0.65756438E-02 | 0.85092197E+03 |   58.171
 BASOPT|        2     |       2     | 0.75634192E-02 | 0.48791903E+03 |   45.099
 BASOPT|        2     |       3     | 0.10181978E-01 | 0.56383098E+02 |   41.867
 BASOPT|        3     |       1     | 0.25471294E-02 | 0.75164140E+03 |   63.946
 BASOPT|        3     |       2     | 0.31717561E-02 | 0.42493189E+03 |   47.519
 BASOPT|        3     |       3     | 0.96373119E-02 | 0.18123306E+03 |   41.628
 BASOPT|        4     |       1     | 0.45158456E-02 | 0.13936963E+04 |   79.813
 BASOPT|        4     |       2     | 0.55583193E-02 | 0.45841580E+03 |   57.161
 BASOPT|        4     |       3     | 0.85175003E-02 | 0.65645629E+02 |   48.692
 BASOPT|        5     |       1     | 0.30410891E-02 | 0.65521003E+03 |  155.267
 BASOPT|        5     |       2     | 0.40043926E-02 | 0.43205334E+03 |  111.763
 BASOPT|        5     |       3     | 0.14036933E-01 | 0.10012387E+03 |   94.822
 BASOPT|        6     |       1     | 0.49761633E-02 | 0.11101630E+05 | 1134.188
 BASOPT|        6     |       2     | 0.71213122E-02 | 0.79630516E+04 |  720.773
 BASOPT|        6     |       3     | 0.14445706E-01 | 0.16491686E+04 |  596.274
 BASOPT| -----------------------------------------------------------------------
 BASOPT| Total residuum value: -.60797339E+04

 BASOPT| Information at iteration number:     900
 BASOPT| Training set | Combination | Rho difference | Condition num. | Time
 BASOPT| -----------------------------------------------------------------------
 BASOPT|        1     |       1     | 0.27106865E-02 | 0.14877025E+04 |   42.067
 BASOPT|        1     |       2     | 0.30967622E-02 | 0.81932611E+03 |   34.577
 BASOPT|        1     |       3     | 0.58034814E-02 | 0.83420107E+02 |   30.110
 BASOPT|        2     |       1     | 0.63728040E-02 | 0.86361557E+03 |   65.441
 BASOPT|        2     |       2     | 0.73923144E-02 | 0.49357402E+03 |   50.740
 BASOPT|        2     |       3     | 0.99474917E-02 | 0.55987206E+02 |   47.107
 BASOPT|        3     |       1     | 0.23925704E-02 | 0.74269532E+03 |   71.943
 BASOPT|        3     |       2     | 0.30104321E-02 | 0.41564910E+03 |   53.460
 BASOPT|        3     |       3     | 0.93313754E-02 | 0.17588479E+03 |   46.838
 BASOPT|        4     |       1     | 0.43474555E-02 | 0.13530972E+04 |   89.790
 BASOPT|        4     |       2     | 0.54223303E-02 | 0.45469189E+03 |   64.312
 BASOPT|        4     |       3     | 0.82648173E-02 | 0.64242357E+02 |   54.789
 BASOPT|        5     |       1     | 0.29031484E-02 | 0.65643887E+03 |  174.700
 BASOPT|        5     |       2     | 0.38519423E-02 | 0.43229140E+03 |  125.729
 BASOPT|        5     |       3     | 0.13531760E-01 | 0.98536126E+02 |  106.668
 BASOPT|        6     |       1     | 0.48884695E-02 | 0.10892225E+05 | 1276.039
 BASOPT|        6     |       2     | 0.70046039E-02 | 0.77746342E+04 |  810.877
 BASOPT|        6     |       3     | 0.14237813E-01 | 0.16607931E+04 |  670.782
 BASOPT| -----------------------------------------------------------------------
 BASOPT| Total residuum value: -.60797777E+04

 BASOPT| Information at iteration number:    1000
 BASOPT| Training set | Combination | Rho difference | Condition num. | Time
 BASOPT| -----------------------------------------------------------------------
 BASOPT|        1     |       1     | 0.27021087E-02 | 0.14894870E+04 |   46.735
 BASOPT|        1     |       2     | 0.30894402E-02 | 0.81849519E+03 |   38.416
 BASOPT|        1     |       3     | 0.58289666E-02 | 0.83814870E+02 |   33.447
 BASOPT|        2     |       1     | 0.63638996E-02 | 0.85861008E+03 |   72.710
 BASOPT|        2     |       2     | 0.73824364E-02 | 0.49077828E+03 |   56.384
 BASOPT|        2     |       3     | 0.98857522E-02 | 0.56219649E+02 |   52.345
 BASOPT|        3     |       1     | 0.23814251E-02 | 0.74328512E+03 |   79.933
 BASOPT|        3     |       2     | 0.30048401E-02 | 0.41615301E+03 |   59.401
 BASOPT|        3     |       3     | 0.94876414E-02 | 0.17691426E+03 |   52.045
 BASOPT|        4     |       1     | 0.43342892E-02 | 0.13981733E+04 |   99.769
 BASOPT|        4     |       2     | 0.54087045E-02 | 0.45856249E+03 |   71.458
 BASOPT|        4     |       3     | 0.83326590E-02 | 0.64642591E+02 |   60.884
 BASOPT|        5     |       1     | 0.28912190E-02 | 0.65711892E+03 |  194.129
 BASOPT|        5     |       2     | 0.38388729E-02 | 0.43297657E+03 |  139.696
 BASOPT|        5     |       3     | 0.13638525E-01 | 0.98830689E+02 |  118.513
 BASOPT|        6     |       1     | 0.48767518E-02 | 0.10833529E+05 | 1417.888
 BASOPT|        6     |       2     | 0.69833895E-02 | 0.77241005E+04 |  900.982
 BASOPT|        6     |       3     | 0.14240125E-01 | 0.16691879E+04 |  745.328
 BASOPT| -----------------------------------------------------------------------
 BASOPT| Total residuum value: -.60798309E+04

 BASOPT| Information at iteration number:    1100
 BASOPT| Training set | Combination | Rho difference | Condition num. | Time
 BASOPT| -----------------------------------------------------------------------
 BASOPT|        1     |       1     | 0.27201981E-02 | 0.14810676E+04 |   51.404
 BASOPT|        1     |       2     | 0.30996327E-02 | 0.80573502E+03 |   42.257
 BASOPT|        1     |       3     | 0.57323732E-02 | 0.83882191E+02 |   36.782
 BASOPT|        2     |       1     | 0.63876596E-02 | 0.84649235E+03 |   79.979
 BASOPT|        2     |       2     | 0.73982108E-02 | 0.48443240E+03 |   62.026
 BASOPT|        2     |       3     | 0.10037573E-01 | 0.56155510E+02 |   57.583
 BASOPT|        3     |       1     | 0.23936588E-02 | 0.74020550E+03 |   87.928
 BASOPT|        3     |       2     | 0.30069965E-02 | 0.41180374E+03 |   65.343
 BASOPT|        3     |       3     | 0.90530181E-02 | 0.17566827E+03 |   57.245
 BASOPT|        4     |       1     | 0.43475552E-02 | 0.14261497E+04 |  109.747
 BASOPT|        4     |       2     | 0.54169719E-02 | 0.45760764E+03 |   78.602
 BASOPT|        4     |       3     | 0.81348089E-02 | 0.64382069E+02 |   66.970
 BASOPT|        5     |       1     | 0.28947437E-02 | 0.65175210E+03 |  213.553
 BASOPT|        5     |       2     | 0.38311639E-02 | 0.42829918E+03 |  153.665
 BASOPT|        5     |       3     | 0.13366573E-01 | 0.98470253E+02 |  130.357
 BASOPT|        6     |       1     | 0.48750152E-02 | 0.11165167E+05 | 1559.827
 BASOPT|        6     |       2     | 0.69977860E-02 | 0.80419974E+04 |  991.082
 BASOPT|        6     |       3     | 0.14235168E-01 | 0.16687000E+04 |  819.906
 BASOPT| -----------------------------------------------------------------------
 BASOPT| Total residuum value: -.60798589E+04

 BASOPT| Information at iteration number:    1200
 BASOPT| Training set | Combination | Rho difference | Condition num. | Time
 BASOPT| -----------------------------------------------------------------------
 BASOPT|        1     |       1     | 0.26896779E-02 | 0.14721153E+04 |   56.067
 BASOPT|        1     |       2     | 0.30667038E-02 | 0.79340983E+03 |   46.099
 BASOPT|        1     |       3     | 0.57147376E-02 | 0.83856020E+02 |   40.119
 BASOPT|        2     |       1     | 0.63593453E-02 | 0.83290486E+03 |   87.249
 BASOPT|        2     |       2     | 0.73688089E-02 | 0.47669902E+03 |   67.666
 BASOPT|        2     |       3     | 0.99920080E-02 | 0.56130695E+02 |   62.818
 BASOPT|        3     |       1     | 0.23730679E-02 | 0.73946168E+03 |   95.920
 BASOPT|        3     |       2     | 0.29857679E-02 | 0.40929369E+03 |   71.281
 BASOPT|        3     |       3     | 0.90690304E-02 | 0.17596293E+03 |   62.454
 BASOPT|        4     |       1     | 0.43223299E-02 | 0.14674952E+04 |  119.724
 BASOPT|        4     |       2     | 0.53917036E-02 | 0.45599772E+03 |   85.748
 BASOPT|        4     |       3     | 0.81354033E-02 | 0.64452879E+02 |   73.054
 BASOPT|        5     |       1     | 0.28721580E-02 | 0.64371609E+03 |  232.972
 BASOPT|        5     |       2     | 0.38000932E-02 | 0.42151836E+03 |  167.639
 BASOPT|        5     |       3     | 0.13370844E-01 | 0.98647031E+02 |  142.201
 BASOPT|        6     |       1     | 0.48600981E-02 | 0.11655212E+05 | 1701.748
 BASOPT|        6     |       2     | 0.69755223E-02 | 0.85071794E+04 | 1081.179
 BASOPT|        6     |       3     | 0.14216259E-01 | 0.16614443E+04 |  894.471
 BASOPT| -----------------------------------------------------------------------
 BASOPT| Total residuum value: -.60798743E+04

 BASOPT| Information at iteration number:    1300
 BASOPT| Training set | Combination | Rho difference | Condition num. | Time
 BASOPT| -----------------------------------------------------------------------
 BASOPT|        1     |       1     | 0.26772389E-02 | 0.14505968E+04 |   60.739
 BASOPT|        1     |       2     | 0.30470895E-02 | 0.76718909E+03 |   49.940
 BASOPT|        1     |       3     | 0.57648418E-02 | 0.83732498E+02 |   43.466
 BASOPT|        2     |       1     | 0.63613740E-02 | 0.80023026E+03 |   94.518
 BASOPT|        2     |       2     | 0.73643804E-02 | 0.45733824E+03 |   73.305
 BASOPT|        2     |       3     | 0.98662371E-02 | 0.56179863E+02 |   68.048
 BASOPT|        3     |       1     | 0.23687536E-02 | 0.73214210E+03 |  103.909
 BASOPT|        3     |       2     | 0.29740769E-02 | 0.40027984E+03 |   77.217
 BASOPT|        3     |       3     | 0.93541333E-02 | 0.17597251E+03 |   67.656
 BASOPT|        4     |       1     | 0.43129114E-02 | 0.15728741E+04 |  129.701
 BASOPT|        4     |       2     | 0.53780600E-02 | 0.45137761E+03 |   92.886
 BASOPT|        4     |       3     | 0.82632119E-02 | 0.64598688E+02 |   79.135
 BASOPT|        5     |       1     | 0.28528967E-02 | 0.62841039E+03 |  252.395
 BASOPT|        5     |       2     | 0.37656816E-02 | 0.40906118E+03 |  181.620
 BASOPT|        5     |       3     | 0.13620593E-01 | 0.98694561E+02 |  154.052
 BASOPT|        6     |       1     | 0.48218671E-02 | 0.12343469E+05 | 1843.563
 BASOPT|        6     |       2     | 0.69320087E-02 | 0.91784468E+04 | 1171.272
 BASOPT|        6     |       3     | 0.14250244E-01 | 0.16264252E+04 |  969.072
 BASOPT| -----------------------------------------------------------------------
 BASOPT| Total residuum value: -.60799058E+04

 BASOPT| Information at iteration number:    1400
 BASOPT| Training set | Combination | Rho difference | Condition num. | Time
 BASOPT| -----------------------------------------------------------------------
 BASOPT|        1     |       1     | 0.26811331E-02 | 0.14294988E+04 |   65.403
 BASOPT|        1     |       2     | 0.30404366E-02 | 0.74349011E+03 |   53.777
 BASOPT|        1     |       3     | 0.56724168E-02 | 0.83853868E+02 |   46.818
 BASOPT|        2     |       1     | 0.63928087E-02 | 0.76436326E+03 |  101.788
 BASOPT|        2     |       2     | 0.73933608E-02 | 0.43644399E+03 |   78.942
 BASOPT|        2     |       3     | 0.99268783E-02 | 0.56409764E+02 |   73.277
 BASOPT|        3     |       1     | 0.23675318E-02 | 0.72507614E+03 |  111.900
 BASOPT|        3     |       2     | 0.29604198E-02 | 0.39184985E+03 |   83.154
 BASOPT|        3     |       3     | 0.91041831E-02 | 0.17585041E+03 |   72.857
 BASOPT|        4     |       1     | 0.43184448E-02 | 0.15998129E+04 |  139.680
 BASOPT|        4     |       2     | 0.53827109E-02 | 0.44509213E+03 |  100.023
 BASOPT|        4     |       3     | 0.81511202E-02 | 0.64898061E+02 |   85.217
 BASOPT|        5     |       1     | 0.28308569E-02 | 0.61771258E+03 |  271.821
 BASOPT|        5     |       2     | 0.37262455E-02 | 0.40148390E+03 |  195.568
 BASOPT|        5     |       3     | 0.13486946E-01 | 0.98822750E+02 |  165.910
 BASOPT|        6     |       1     | 0.48182703E-02 | 0.12223041E+05 | 1985.321
 BASOPT|        6     |       2     | 0.69399404E-02 | 0.90948896E+04 | 1261.385
 BASOPT|        6     |       3     | 0.14252493E-01 | 0.16441112E+04 | 1043.571
 BASOPT| -----------------------------------------------------------------------
 BASOPT| Total residuum value: -.60799348E+04

 BASOPT| Information at iteration number:    1500
 BASOPT| Training set | Combination | Rho difference | Condition num. | Time
 BASOPT| -----------------------------------------------------------------------
 BASOPT|        1     |       1     | 0.26835701E-02 | 0.13833613E+04 |   70.072
 BASOPT|        1     |       2     | 0.30312122E-02 | 0.70366761E+03 |   57.613
 BASOPT|        1     |       3     | 0.55281444E-02 | 0.83789362E+02 |   50.165
 BASOPT|        2     |       1     | 0.64175809E-02 | 0.70663152E+03 |  109.057
 BASOPT|        2     |       2     | 0.74120653E-02 | 0.40394145E+03 |   84.581
 BASOPT|        2     |       3     | 0.99904035E-02 | 0.56653136E+02 |   78.506
 BASOPT|        3     |       1     | 0.23687619E-02 | 0.71058870E+03 |  119.886
 BASOPT|        3     |       2     | 0.29493845E-02 | 0.38156019E+03 |   89.093
 BASOPT|        3     |       3     | 0.87467549E-02 | 0.17798947E+03 |   78.059
 BASOPT|        4     |       1     | 0.43108031E-02 | 0.15935632E+04 |  149.657
 BASOPT|        4     |       2     | 0.53690388E-02 | 0.43329872E+03 |  107.161
 BASOPT|        4     |       3     | 0.79752021E-02 | 0.65982024E+02 |   91.304
 BASOPT|        5     |       1     | 0.28166636E-02 | 0.58942926E+03 |  291.239
 BASOPT|        5     |       2     | 0.36874608E-02 | 0.38336594E+03 |  209.461
 BASOPT|        5     |       3     | 0.13292588E-01 | 0.99721233E+02 |  177.762
 BASOPT|        6     |       1     | 0.48002841E-02 | 0.12791406E+05 | 2127.017
 BASOPT|        6     |       2     | 0.69241930E-02 | 0.96539438E+04 | 1351.513
 BASOPT|        6     |       3     | 0.14229130E-01 | 0.16295282E+04 | 1118.083
 BASOPT| -----------------------------------------------------------------------
 BASOPT| Total residuum value: -.60799714E+04

 BASOPT| Information at iteration number:    1600
 BASOPT| Training set | Combination | Rho difference | Condition num. | Time
 BASOPT| -----------------------------------------------------------------------
 BASOPT|        1     |       1     | 0.26939795E-02 | 0.13648443E+04 |   74.730
 BASOPT|        1     |       2     | 0.30378409E-02 | 0.69026382E+03 |   61.447
 BASOPT|        1     |       3     | 0.55575323E-02 | 0.83745578E+02 |   53.509
 BASOPT|        2     |       1     | 0.64381085E-02 | 0.68990187E+03 |  116.327
 BASOPT|        2     |       2     | 0.74341808E-02 | 0.39503818E+03 |   90.217
 BASOPT|        2     |       3     | 0.10005750E-01 | 0.56621264E+02 |   83.749
 BASOPT|        3     |       1     | 0.23747401E-02 | 0.70461510E+03 |  127.876
 BASOPT|        3     |       2     | 0.29495191E-02 | 0.37838576E+03 |   95.029
 BASOPT|        3     |       3     | 0.87921392E-02 | 0.17750477E+03 |   83.263
 BASOPT|        4     |       1     | 0.43193037E-02 | 0.15800019E+04 |  159.634
 BASOPT|        4     |       2     | 0.53800452E-02 | 0.43098505E+03 |  114.299
 BASOPT|        4     |       3     | 0.80094741E-02 | 0.65939433E+02 |   97.380
 BASOPT|        5     |       1     | 0.28140080E-02 | 0.58041508E+03 |  310.651
 BASOPT|        5     |       2     | 0.36783257E-02 | 0.37838135E+03 |  223.199
 BASOPT|        5     |       3     | 0.13375713E-01 | 0.99627153E+02 |  189.622
 BASOPT|        6     |       1     | 0.48018136E-02 | 0.13010631E+05 | 2268.719
 BASOPT|        6     |       2     | 0.69371159E-02 | 0.98439307E+04 | 1441.621
 BASOPT|        6     |       3     | 0.14263593E-01 | 0.16167991E+04 | 1192.622
 BASOPT| -----------------------------------------------------------------------
 BASOPT| Total residuum value: -.60799821E+04

 BASOPT| Information at iteration number:    1700
 BASOPT| Training set | Combination | Rho difference | Condition num. | Time
 BASOPT| -----------------------------------------------------------------------
 BASOPT|        1     |       1     | 0.26974592E-02 | 0.13378019E+04 |   79.396
 BASOPT|        1     |       2     | 0.30333378E-02 | 0.66981383E+03 |   65.280
 BASOPT|        1     |       3     | 0.55164311E-02 | 0.83613843E+02 |   56.852
 BASOPT|        2     |       1     | 0.64483255E-02 | 0.66175490E+03 |  123.596
 BASOPT|        2     |       2     | 0.74420142E-02 | 0.37911925E+03 |   95.824
 BASOPT|        2     |       3     | 0.99634274E-02 | 0.56675919E+02 |   88.989
 BASOPT|        3     |       1     | 0.23822811E-02 | 0.70046701E+03 |  135.866
 BASOPT|        3     |       2     | 0.29439439E-02 | 0.37483410E+03 |  100.962
 BASOPT|        3     |       3     | 0.87768656E-02 | 0.17873228E+03 |   88.460
 BASOPT|        4     |       1     | 0.43185036E-02 | 0.15354221E+04 |  169.609
 BASOPT|        4     |       2     | 0.53741072E-02 | 0.42505961E+03 |  121.436
 BASOPT|        4     |       3     | 0.79970381E-02 | 0.66558184E+02 |  103.462
 BASOPT|        5     |       1     | 0.28169012E-02 | 0.56525652E+03 |  330.076
 BASOPT|        5     |       2     | 0.36633500E-02 | 0.36869341E+03 |  236.929
 BASOPT|        5     |       3     | 0.13425152E-01 | 0.10008528E+03 |  201.465
 BASOPT|        6     |       1     | 0.47940770E-02 | 0.13644026E+05 | 2410.395
 BASOPT|        6     |       2     | 0.69298314E-02 | 0.10437849E+05 | 1531.754
 BASOPT|        6     |       3     | 0.14294983E-01 | 0.15893029E+04 | 1267.167
 BASOPT| -----------------------------------------------------------------------
 BASOPT| Total residuum value: -.60799979E+04

 BASOPT| Information at iteration number:    1800
 BASOPT| Training set | Combination | Rho difference | Condition num. | Time
 BASOPT| -----------------------------------------------------------------------
 BASOPT|        1     |       1     | 0.27026364E-02 | 0.13317807E+04 |   84.064
 BASOPT|        1     |       2     | 0.30364798E-02 | 0.66486602E+03 |   69.114
 BASOPT|        1     |       3     | 0.55587293E-02 | 0.83602566E+02 |   60.193
 BASOPT|        2     |       1     | 0.64617947E-02 | 0.65463831E+03 |  130.866
 BASOPT|        2     |       2     | 0.74559999E-02 | 0.37481756E+03 |  101.371
 BASOPT|        2     |       3     | 0.99552556E-02 | 0.56640681E+02 |   94.224
 BASOPT|        3     |       1     | 0.23854985E-02 | 0.70027734E+03 |  143.856
 BASOPT|        3     |       2     | 0.29426131E-02 | 0.37368000E+03 |  106.899
 BASOPT|        3     |       3     | 0.88802172E-02 | 0.17736261E+03 |   93.664
 BASOPT|        4     |       1     | 0.43221474E-02 | 0.15068010E+04 |  179.583
 BASOPT|        4     |       2     | 0.53786548E-02 | 0.42431323E+03 |  128.574
 BASOPT|        4     |       3     | 0.80528302E-02 | 0.66175960E+02 |  109.543
 BASOPT|        5     |       1     | 0.28171450E-02 | 0.56579918E+03 |  349.503
 BASOPT|        5     |       2     | 0.36605177E-02 | 0.36931703E+03 |  250.668
 BASOPT|        5     |       3     | 0.13506350E-01 | 0.99603579E+02 |  213.307
 BASOPT|        6     |       1     | 0.47914070E-02 | 0.13186223E+05 | 2552.092
 BASOPT|        6     |       2     | 0.69313803E-02 | 0.10019100E+05 | 1621.856
 BASOPT|        6     |       3     | 0.14294248E-01 | 0.16106589E+04 | 1341.768
 BASOPT| -----------------------------------------------------------------------
 BASOPT| Total residuum value: -.60800033E+04

 BASOPT| Information at iteration number:    1900
 BASOPT| Training set | Combination | Rho difference | Condition num. | Time
 BASOPT| -----------------------------------------------------------------------
 BASOPT|        1     |       1     | 0.27183181E-02 | 0.13055245E+04 |   88.723
 BASOPT|        1     |       2     | 0.30473344E-02 | 0.64523522E+03 |   72.949
 BASOPT|        1     |       3     | 0.55718440E-02 | 0.83290529E+02 |   63.536
 BASOPT|        2     |       1     | 0.65007548E-02 | 0.62667265E+03 |  138.132
 BASOPT|        2     |       2     | 0.74952953E-02 | 0.35807164E+03 |  106.913
 BASOPT|        2     |       3     | 0.10029581E-01 | 0.56533792E+02 |   99.463
 BASOPT|        3     |       1     | 0.23897709E-02 | 0.70553314E+03 |  151.849
 BASOPT|        3     |       2     | 0.29312283E-02 | 0.37262872E+03 |  112.835
 BASOPT|        3     |       3     | 0.88053346E-02 | 0.17622678E+03 |   98.864
 BASOPT|        4     |       1     | 0.43283530E-02 | 0.14501781E+04 |  189.557
 BASOPT|        4     |       2     | 0.53785159E-02 | 0.42222886E+03 |  135.712
 BASOPT|        4     |       3     | 0.80357014E-02 | 0.65978519E+02 |  115.623
 BASOPT|        5     |       1     | 0.28105497E-02 | 0.56020986E+03 |  368.923
 BASOPT|        5     |       2     | 0.36361099E-02 | 0.36525776E+03 |  264.401
 BASOPT|        5     |       3     | 0.13485963E-01 | 0.98957538E+02 |  225.146
 BASOPT|        6     |       1     | 0.47930420E-02 | 0.12797559E+05 | 2693.800
 BASOPT|        6     |       2     | 0.69336256E-02 | 0.97296550E+04 | 1711.965
 BASOPT|        6     |       3     | 0.14265293E-01 | 0.15829203E+04 | 1416.367
 BASOPT| -----------------------------------------------------------------------
 BASOPT| Total residuum value: -.60800184E+04

 BASOPT| Information at iteration number:    2000
 BASOPT| Training set | Combination | Rho difference | Condition num. | Time
 BASOPT| -----------------------------------------------------------------------
 BASOPT|        1     |       1     | 0.27268740E-02 | 0.13019765E+04 |   93.380
 BASOPT|        1     |       2     | 0.30542492E-02 | 0.64210353E+03 |   76.787
 BASOPT|        1     |       3     | 0.56275201E-02 | 0.83206082E+02 |   66.883
 BASOPT|        2     |       1     | 0.65210437E-02 | 0.62002986E+03 |  145.401
 BASOPT|        2     |       2     | 0.75162979E-02 | 0.35335633E+03 |  112.458
 BASOPT|        2     |       3     | 0.99885683E-02 | 0.56556809E+02 |  104.702
 BASOPT|        3     |       1     | 0.23876284E-02 | 0.70934353E+03 |  159.840
 BASOPT|        3     |       2     | 0.29235393E-02 | 0.37338256E+03 |  118.772
 BASOPT|        3     |       3     | 0.89828016E-02 | 0.17640659E+03 |  104.069
 BASOPT|        4     |       1     | 0.43305511E-02 | 0.14318051E+04 |  199.531
 BASOPT|        4     |       2     | 0.53776206E-02 | 0.42148700E+03 |  142.851
 BASOPT|        4     |       3     | 0.81200669E-02 | 0.66036537E+02 |  121.709
 BASOPT|        5     |       1     | 0.28039474E-02 | 0.56089245E+03 |  388.343
 BASOPT|        5     |       2     | 0.36226280E-02 | 0.36516632E+03 |  278.135
 BASOPT|        5     |       3     | 0.13665400E-01 | 0.98889882E+02 |  236.989
 BASOPT|        6     |       1     | 0.47976771E-02 | 0.12378144E+05 | 2835.528
 BASOPT|        6     |       2     | 0.69341679E-02 | 0.93852024E+04 | 1802.092
 BASOPT|        6     |       3     | 0.14301988E-01 | 0.15764328E+04 | 1490.941
 BASOPT| -----------------------------------------------------------------------
 BASOPT| Total residuum value: -.60800229E+04

 BASOPT| Information at iteration number:    2100
 BASOPT| Training set | Combination | Rho difference | Condition num. | Time
 BASOPT| -----------------------------------------------------------------------
 BASOPT|        1     |       1     | 0.27267241E-02 | 0.12882816E+04 |   98.030
 BASOPT|        1     |       2     | 0.30514680E-02 | 0.63269534E+03 |   80.621
 BASOPT|        1     |       3     | 0.55626595E-02 | 0.82959856E+02 |   70.228
 BASOPT|        2     |       1     | 0.65332230E-02 | 0.60574002E+03 |  152.670
 BASOPT|        2     |       2     | 0.75298033E-02 | 0.34395044E+03 |  118.002
 BASOPT|        2     |       3     | 0.10053006E-01 | 0.56553110E+02 |  109.942
 BASOPT|        3     |       1     | 0.23813463E-02 | 0.71227091E+03 |  167.837
 BASOPT|        3     |       2     | 0.29113277E-02 | 0.37368615E+03 |  124.706
 BASOPT|        3     |       3     | 0.87739796E-02 | 0.17648886E+03 |  109.275
 BASOPT|        4     |       1     | 0.43236361E-02 | 0.14137182E+04 |  209.505
 BASOPT|        4     |       2     | 0.53665588E-02 | 0.42073886E+03 |  149.987
 BASOPT|        4     |       3     | 0.80264609E-02 | 0.66031533E+02 |  127.789
 BASOPT|        5     |       1     | 0.27989401E-02 | 0.55737862E+03 |  407.762
 BASOPT|        5     |       2     | 0.36069561E-02 | 0.36257628E+03 |  291.865
 BASOPT|        5     |       3     | 0.13497278E-01 | 0.98636530E+02 |  248.830
 BASOPT|        6     |       1     | 0.47982941E-02 | 0.12161697E+05 | 2977.309
 BASOPT|        6     |       2     | 0.69247557E-02 | 0.91706912E+04 | 1892.228
 BASOPT|        6     |       3     | 0.14264082E-01 | 0.15853541E+04 | 1565.501
 BASOPT| -----------------------------------------------------------------------
 BASOPT| Total residuum value: -.60800332E+04

 BASOPT| Information at iteration number:    2200
 BASOPT| Training set | Combination | Rho difference | Condition num. | Time
 BASOPT| -----------------------------------------------------------------------
 BASOPT|        1     |       1     | 0.27650559E-02 | 0.12798836E+04 |  102.672
 BASOPT|        1     |       2     | 0.30844741E-02 | 0.62691764E+03 |   84.455
 BASOPT|        1     |       3     | 0.55554895E-02 | 0.82862634E+02 |   73.574
 BASOPT|        2     |       1     | 0.65948765E-02 | 0.59690355E+03 |  159.938
 BASOPT|        2     |       2     | 0.75924618E-02 | 0.33811734E+03 |  123.548
 BASOPT|        2     |       3     | 0.10174560E-01 | 0.56564612E+02 |  115.187
 BASOPT|        3     |       1     | 0.23961294E-02 | 0.71426697E+03 |  175.843
 BASOPT|        3     |       2     | 0.29176345E-02 | 0.37421367E+03 |  130.641
 BASOPT|        3     |       3     | 0.86165451E-02 | 0.17629804E+03 |  114.480
 BASOPT|        4     |       1     | 0.43497625E-02 | 0.14361008E+04 |  219.479
 BASOPT|        4     |       2     | 0.53911931E-02 | 0.42470775E+03 |  157.125
 BASOPT|        4     |       3     | 0.79785069E-02 | 0.66022148E+02 |  133.866
 BASOPT|        5     |       1     | 0.28044807E-02 | 0.55622952E+03 |  427.188
 BASOPT|        5     |       2     | 0.36029726E-02 | 0.36196615E+03 |  305.597
 BASOPT|        5     |       3     | 0.13403849E-01 | 0.98424025E+02 |  260.668
 BASOPT|        6     |       1     | 0.48003960E-02 | 0.11779950E+05 | 3119.056
 BASOPT|        6     |       2     | 0.69237546E-02 | 0.88075490E+04 | 1982.337
 BASOPT|        6     |       3     | 0.14281335E-01 | 0.16046376E+04 | 1640.073
 BASOPT| -----------------------------------------------------------------------
 BASOPT| Total residuum value: -.60800410E+04

 BASOPT| Information at iteration number:    2300
 BASOPT| Training set | Combination | Rho difference | Condition num. | Time
 BASOPT| -----------------------------------------------------------------------
 BASOPT|        1     |       1     | 0.27649805E-02 | 0.12809432E+04 |  107.315
 BASOPT|        1     |       2     | 0.30847460E-02 | 0.62764767E+03 |   88.290
 BASOPT|        1     |       3     | 0.55518091E-02 | 0.82836746E+02 |   76.919
 BASOPT|        2     |       1     | 0.65966878E-02 | 0.59587873E+03 |  167.213
 BASOPT|        2     |       2     | 0.75932530E-02 | 0.33708790E+03 |  129.096
 BASOPT|        2     |       3     | 0.10200426E-01 | 0.56571756E+02 |  120.429
 BASOPT|        3     |       1     | 0.23937131E-02 | 0.71730216E+03 |  183.847
 BASOPT|        3     |       2     | 0.29155777E-02 | 0.37618335E+03 |  136.576
 BASOPT|        3     |       3     | 0.85667143E-02 | 0.17641806E+03 |  119.685
 BASOPT|        4     |       1     | 0.43441339E-02 | 0.14433881E+04 |  229.454
 BASOPT|        4     |       2     | 0.53834435E-02 | 0.42744333E+03 |  164.267
 BASOPT|        4     |       3     | 0.79517026E-02 | 0.66038114E+02 |  139.951
 BASOPT|        5     |       1     | 0.28049138E-02 | 0.55797390E+03 |  446.616
 BASOPT|        5     |       2     | 0.36020414E-02 | 0.36313132E+03 |  319.327
 BASOPT|        5     |       3     | 0.13347012E-01 | 0.98399836E+02 |  272.533
 BASOPT|        6     |       1     | 0.47941637E-02 | 0.11610908E+05 | 3260.866
 BASOPT|        6     |       2     | 0.69091876E-02 | 0.86684573E+04 | 2072.460
 BASOPT|        6     |       3     | 0.14245459E-01 | 0.16053827E+04 | 1714.640
 BASOPT| -----------------------------------------------------------------------
 BASOPT| Total residuum value: -.60800446E+04

 BASOPT| Information at iteration number:    2400
 BASOPT| Training set | Combination | Rho difference | Condition num. | Time
 BASOPT| -----------------------------------------------------------------------
 BASOPT|        1     |       1     | 0.27824588E-02 | 0.12696395E+04 |  111.961
 BASOPT|        1     |       2     | 0.31001419E-02 | 0.62172161E+03 |   92.124
 BASOPT|        1     |       3     | 0.55525706E-02 | 0.82618247E+02 |   80.266
 BASOPT|        2     |       1     | 0.66291919E-02 | 0.58917652E+03 |  174.494
 BASOPT|        2     |       2     | 0.76274756E-02 | 0.33335295E+03 |  134.645
 BASOPT|        2     |       3     | 0.10225890E-01 | 0.56510065E+02 |  125.672
 BASOPT|        3     |       1     | 0.24002889E-02 | 0.71816538E+03 |  191.850
 BASOPT|        3     |       2     | 0.29184243E-02 | 0.37719641E+03 |  142.508
 BASOPT|        3     |       3     | 0.85439412E-02 | 0.17585930E+03 |  124.894
 BASOPT|        4     |       1     | 0.43588326E-02 | 0.14635563E+04 |  239.436
 BASOPT|        4     |       2     | 0.53973390E-02 | 0.43240767E+03 |  171.404
 BASOPT|        4     |       3     | 0.79539548E-02 | 0.65948686E+02 |  146.033
 BASOPT|        5     |       1     | 0.28040168E-02 | 0.55555618E+03 |  466.045
 BASOPT|        5     |       2     | 0.35984108E-02 | 0.36235948E+03 |  333.053
 BASOPT|        5     |       3     | 0.13342810E-01 | 0.98151519E+02 |  284.375
 BASOPT|        6     |       1     | 0.47903480E-02 | 0.11577826E+05 | 3402.581
 BASOPT|        6     |       2     | 0.69051550E-02 | 0.86193705E+04 | 2162.582
 BASOPT|        6     |       3     | 0.14266457E-01 | 0.16035315E+04 | 1789.129
 BASOPT| -----------------------------------------------------------------------
 BASOPT| Total residuum value: -.60800506E+04

 BASOPT| Information at iteration number:    2500
 BASOPT| Training set | Combination | Rho difference | Condition num. | Time
 BASOPT| -----------------------------------------------------------------------
 BASOPT|        1     |       1     | 0.27907500E-02 | 0.12615575E+04 |  116.610
 BASOPT|        1     |       2     | 0.31086954E-02 | 0.61751472E+03 |   95.960
 BASOPT|        1     |       3     | 0.56448534E-02 | 0.82581869E+02 |   83.606
 BASOPT|        2     |       1     | 0.66471190E-02 | 0.58420722E+03 |  181.774
 BASOPT|        2     |       2     | 0.76478666E-02 | 0.33030956E+03 |  140.197
 BASOPT|        2     |       3     | 0.10104044E-01 | 0.56495600E+02 |  130.906
 BASOPT|        3     |       1     | 0.24026598E-02 | 0.71789566E+03 |  199.838
 BASOPT|        3     |       2     | 0.29195540E-02 | 0.37767414E+03 |  148.443
 BASOPT|        3     |       3     | 0.88999643E-02 | 0.17535827E+03 |  130.103
 BASOPT|        4     |       1     | 0.43638207E-02 | 0.14631065E+04 |  249.417
 BASOPT|        4     |       2     | 0.54039779E-02 | 0.43456599E+03 |  178.538
 BASOPT|        4     |       3     | 0.81125921E-02 | 0.65852814E+02 |  152.118
 BASOPT|        5     |       1     | 0.28030266E-02 | 0.55367949E+03 |  485.483
 BASOPT|        5     |       2     | 0.35968801E-02 | 0.36159760E+03 |  346.782
 BASOPT|        5     |       3     | 0.13668328E-01 | 0.97939862E+02 |  296.220
 BASOPT|        6     |       1     | 0.47857475E-02 | 0.11572190E+05 | 3544.220
 BASOPT|        6     |       2     | 0.69009995E-02 | 0.86169428E+04 | 2252.734
 BASOPT|        6     |       3     | 0.14335968E-01 | 0.15995960E+04 | 1863.639
 BASOPT| -----------------------------------------------------------------------
 BASOPT| Total residuum value: -.60800551E+04

 BASOPT| Information at iteration number:    2600
 BASOPT| Training set | Combination | Rho difference | Condition num. | Time
 BASOPT| -----------------------------------------------------------------------
 BASOPT|        1     |       1     | 0.27918192E-02 | 0.12603682E+04 |  121.279
 BASOPT|        1     |       2     | 0.31096173E-02 | 0.61719221E+03 |   99.798
 BASOPT|        1     |       3     | 0.56069283E-02 | 0.82554654E+02 |   86.945
 BASOPT|        2     |       1     | 0.66537527E-02 | 0.58295948E+03 |  189.057
 BASOPT|        2     |       2     | 0.76549959E-02 | 0.32921381E+03 |  145.750
 BASOPT|        2     |       3     | 0.10174167E-01 | 0.56517395E+02 |  136.143
 BASOPT|        3     |       1     | 0.24004760E-02 | 0.71889141E+03 |  207.828
 BASOPT|        3     |       2     | 0.29172903E-02 | 0.37866530E+03 |  154.380
 BASOPT|        3     |       3     | 0.87285345E-02 | 0.17548648E+03 |  135.303
 BASOPT|        4     |       1     | 0.43635775E-02 | 0.14579616E+04 |  259.399
 BASOPT|        4     |       2     | 0.54026664E-02 | 0.43562236E+03 |  185.675
 BASOPT|        4     |       3     | 0.80363851E-02 | 0.65903793E+02 |  158.209
 BASOPT|        5     |       1     | 0.27997297E-02 | 0.55346624E+03 |  504.913
 BASOPT|        5     |       2     | 0.35935011E-02 | 0.36172347E+03 |  360.514
 BASOPT|        5     |       3     | 0.13532677E-01 | 0.97922900E+02 |  308.067
 BASOPT|        6     |       1     | 0.47853228E-02 | 0.11495848E+05 | 3685.903
 BASOPT|        6     |       2     | 0.68970565E-02 | 0.85343137E+04 | 2342.844
 BASOPT|        6     |       3     | 0.14299070E-01 | 0.16068518E+04 | 1938.153
 BASOPT| -----------------------------------------------------------------------
 BASOPT| Total residuum value: -.60800611E+04

 BASOPT| Information at iteration number:    2700
 BASOPT| Training set | Combination | Rho difference | Condition num. | Time
 BASOPT| -----------------------------------------------------------------------
 BASOPT|        1     |       1     | 0.27938131E-02 | 0.12499486E+04 |  125.923
 BASOPT|        1     |       2     | 0.31111276E-02 | 0.61195180E+03 |  103.634
 BASOPT|        1     |       3     | 0.56015626E-02 | 0.82572545E+02 |   90.282
 BASOPT|        2     |       1     | 0.66647528E-02 | 0.57742935E+03 |  196.341
 BASOPT|        2     |       2     | 0.76679759E-02 | 0.32584793E+03 |  151.300
 BASOPT|        2     |       3     | 0.10182618E-01 | 0.56577299E+02 |  141.377
 BASOPT|        3     |       1     | 0.24029569E-02 | 0.71867774E+03 |  215.815
 BASOPT|        3     |       2     | 0.29184405E-02 | 0.37893723E+03 |  160.314
 BASOPT|        3     |       3     | 0.87080121E-02 | 0.17529026E+03 |  140.511
 BASOPT|        4     |       1     | 0.43687547E-02 | 0.14715001E+04 |  269.388
 BASOPT|        4     |       2     | 0.54074100E-02 | 0.43904639E+03 |  192.810
 BASOPT|        4     |       3     | 0.80289846E-02 | 0.65991813E+02 |  164.294
 BASOPT|        5     |       1     | 0.27992373E-02 | 0.55004204E+03 |  524.337
 BASOPT|        5     |       2     | 0.35933004E-02 | 0.36024227E+03 |  374.244
 BASOPT|        5     |       3     | 0.13548589E-01 | 0.97857581E+02 |  319.917
 BASOPT|        6     |       1     | 0.47756246E-02 | 0.11729942E+05 | 3827.634
 BASOPT|        6     |       2     | 0.68850939E-02 | 0.87145241E+04 | 2432.960
 BASOPT|        6     |       3     | 0.14305391E-01 | 0.16253536E+04 | 2012.684
 BASOPT| -----------------------------------------------------------------------
 BASOPT| Total residuum value: -.60800705E+04

 BASOPT| Information at iteration number:    2800
 BASOPT| Training set | Combination | Rho difference | Condition num. | Time
 BASOPT| -----------------------------------------------------------------------
 BASOPT|        1     |       1     | 0.28029312E-02 | 0.12364570E+04 |  130.561
 BASOPT|        1     |       2     | 0.31193318E-02 | 0.60531743E+03 |  107.481
 BASOPT|        1     |       3     | 0.56159765E-02 | 0.82381320E+02 |   93.619
 BASOPT|        2     |       1     | 0.66813861E-02 | 0.57201169E+03 |  203.623
 BASOPT|        2     |       2     | 0.76880542E-02 | 0.32323564E+03 |  156.849
 BASOPT|        2     |       3     | 0.10201965E-01 | 0.56525422E+02 |  146.611
 BASOPT|        3     |       1     | 0.24100363E-02 | 0.71917572E+03 |  223.812
 BASOPT|        3     |       2     | 0.29226872E-02 | 0.37855647E+03 |  166.247
 BASOPT|        3     |       3     | 0.87195290E-02 | 0.17466526E+03 |  145.719
 BASOPT|        4     |       1     | 0.43852175E-02 | 0.15129669E+04 |  279.379
 BASOPT|        4     |       2     | 0.54237143E-02 | 0.44310458E+03 |  199.945
 BASOPT|        4     |       3     | 0.80542183E-02 | 0.65879343E+02 |  170.373
 BASOPT|        5     |       1     | 0.27972171E-02 | 0.54561245E+03 |  543.766
 BASOPT|        5     |       2     | 0.35921940E-02 | 0.35792111E+03 |  387.979
 BASOPT|        5     |       3     | 0.13593775E-01 | 0.97678309E+02 |  331.765
 BASOPT|        6     |       1     | 0.47662670E-02 | 0.12189606E+05 | 3969.433
 BASOPT|        6     |       2     | 0.68790143E-02 | 0.90928265E+04 | 2523.077
 BASOPT|        6     |       3     | 0.14319739E-01 | 0.16298986E+04 | 2087.221
 BASOPT| -----------------------------------------------------------------------
 BASOPT| Total residuum value: -.60800760E+04

 BASOPT| Information at iteration number:    2900
 BASOPT| Training set | Combination | Rho difference | Condition num. | Time
 BASOPT| -----------------------------------------------------------------------
 BASOPT|        1     |       1     | 0.27900340E-02 | 0.12318083E+04 |  135.204
 BASOPT|        1     |       2     | 0.31067870E-02 | 0.60264901E+03 |  111.315
 BASOPT|        1     |       3     | 0.55334643E-02 | 0.82347270E+02 |   96.960
 BASOPT|        2     |       1     | 0.66639493E-02 | 0.56883338E+03 |  210.902
 BASOPT|        2     |       2     | 0.76699070E-02 | 0.32130776E+03 |  162.400
 BASOPT|        2     |       3     | 0.10252146E-01 | 0.56482741E+02 |  151.846
 BASOPT|        3     |       1     | 0.24050038E-02 | 0.71949768E+03 |  231.804
 BASOPT|        3     |       2     | 0.29201851E-02 | 0.37899015E+03 |  172.179
 BASOPT|        3     |       3     | 0.84681163E-02 | 0.17440568E+03 |  150.927
 BASOPT|        4     |       1     | 0.43731561E-02 | 0.15243204E+04 |  289.427
 BASOPT|        4     |       2     | 0.54107929E-02 | 0.44449973E+03 |  207.079
 BASOPT|        4     |       3     | 0.79296948E-02 | 0.65772862E+02 |  176.459
 BASOPT|        5     |       1     | 0.27993170E-02 | 0.54378359E+03 |  563.187
 BASOPT|        5     |       2     | 0.35950155E-02 | 0.35699252E+03 |  401.716
 BASOPT|        5     |       3     | 0.13341464E-01 | 0.97549894E+02 |  343.610
 BASOPT|        6     |       1     | 0.47571790E-02 | 0.12342349E+05 | 4111.306
 BASOPT|        6     |       2     | 0.68649098E-02 | 0.92292608E+04 | 2613.204
 BASOPT|        6     |       3     | 0.14265573E-01 | 0.16304534E+04 | 2161.783
 BASOPT| -----------------------------------------------------------------------
 BASOPT| Total residuum value: -.60800807E+04

 BASOPT| Information at iteration number:    3000
 BASOPT| Training set | Combination | Rho difference | Condition num. | Time
 BASOPT| -----------------------------------------------------------------------
 BASOPT|        1     |       1     | 0.28020337E-02 | 0.12249988E+04 |  139.852
 BASOPT|        1     |       2     | 0.31170981E-02 | 0.59748527E+03 |  115.146
 BASOPT|        1     |       3     | 0.55836594E-02 | 0.82546819E+02 |  100.291
 BASOPT|        2     |       1     | 0.66859571E-02 | 0.56178501E+03 |  218.187
 BASOPT|        2     |       2     | 0.76928333E-02 | 0.31640137E+03 |  167.946
 BASOPT|        2     |       3     | 0.10248849E-01 | 0.56614108E+02 |  157.081
 BASOPT|        3     |       1     | 0.24084512E-02 | 0.72455813E+03 |  239.795
 BASOPT|        3     |       2     | 0.29209034E-02 | 0.38078892E+03 |  178.113
 BASOPT|        3     |       3     | 0.85716137E-02 | 0.17491421E+03 |  156.129
 BASOPT|        4     |       1     | 0.43798195E-02 | 0.15539697E+04 |  299.437
 BASOPT|        4     |       2     | 0.54131737E-02 | 0.44793285E+03 |  214.213
 BASOPT|        4     |       3     | 0.79794734E-02 | 0.65951880E+02 |  182.545
 BASOPT|        5     |       1     | 0.27999560E-02 | 0.54130304E+03 |  582.618
 BASOPT|        5     |       2     | 0.35915530E-02 | 0.35522644E+03 |  415.451
 BASOPT|        5     |       3     | 0.13465823E-01 | 0.97673674E+02 |  355.454
 BASOPT|        6     |       1     | 0.47504494E-02 | 0.12538340E+05 | 4253.166
 BASOPT|        6     |       2     | 0.68502212E-02 | 0.94171710E+04 | 2703.329
 BASOPT|        6     |       3     | 0.14262796E-01 | 0.16438675E+04 | 2236.295
 BASOPT| -----------------------------------------------------------------------
 BASOPT| Total residuum value: -.60800896E+04

 BASOPT| Information at iteration number:    3100
 BASOPT| Training set | Combination | Rho difference | Condition num. | Time
 BASOPT| -----------------------------------------------------------------------
 BASOPT|        1     |       1     | 0.28197792E-02 | 0.12038308E+04 |  144.495
 BASOPT|        1     |       2     | 0.31319713E-02 | 0.58524379E+03 |  118.977
 BASOPT|        1     |       3     | 0.55736177E-02 | 0.82534633E+02 |  103.623
 BASOPT|        2     |       1     | 0.67187540E-02 | 0.54914517E+03 |  225.469
 BASOPT|        2     |       2     | 0.77306878E-02 | 0.30882372E+03 |  173.495
 BASOPT|        2     |       3     | 0.10300342E-01 | 0.56586197E+02 |  162.317
 BASOPT|        3     |       1     | 0.24147333E-02 | 0.72874680E+03 |  247.792
 BASOPT|        3     |       2     | 0.29221062E-02 | 0.38056935E+03 |  184.048
 BASOPT|        3     |       3     | 0.84718209E-02 | 0.17391600E+03 |  161.332
 BASOPT|        4     |       1     | 0.43956422E-02 | 0.16355509E+04 |  309.442
 BASOPT|        4     |       2     | 0.54276541E-02 | 0.45462682E+03 |  221.347
 BASOPT|        4     |       3     | 0.79469316E-02 | 0.65717576E+02 |  188.635
 BASOPT|        5     |       1     | 0.27981655E-02 | 0.53490039E+03 |  602.051
 BASOPT|        5     |       2     | 0.35837236E-02 | 0.35114934E+03 |  429.181
 BASOPT|        5     |       3     | 0.13411537E-01 | 0.97297416E+02 |  367.300
 BASOPT|        6     |       1     | 0.47382204E-02 | 0.13050431E+05 | 4395.052
 BASOPT|        6     |       2     | 0.68347070E-02 | 0.98748728E+04 | 2793.453
 BASOPT|        6     |       3     | 0.14283355E-01 | 0.16584886E+04 | 2310.836
 BASOPT| -----------------------------------------------------------------------
 BASOPT| Total residuum value: -.60801057E+04

 BASOPT| Information at iteration number:    3200
 BASOPT| Training set | Combination | Rho difference | Condition num. | Time
 BASOPT| -----------------------------------------------------------------------
 BASOPT|        1     |       1     | 0.28169074E-02 | 0.11925918E+04 |  149.142
 BASOPT|        1     |       2     | 0.31285557E-02 | 0.57720077E+03 |  122.808
 BASOPT|        1     |       3     | 0.55886572E-02 | 0.82468672E+02 |  106.954
 BASOPT|        2     |       1     | 0.67150455E-02 | 0.54119995E+03 |  232.749
 BASOPT|        2     |       2     | 0.77272032E-02 | 0.30440462E+03 |  179.042
 BASOPT|        2     |       3     | 0.10239374E-01 | 0.56468705E+02 |  167.556
 BASOPT|        3     |       1     | 0.24113230E-02 | 0.72903248E+03 |  255.790
 BASOPT|        3     |       2     | 0.29170502E-02 | 0.37782592E+03 |  189.982
 BASOPT|        3     |       3     | 0.85768956E-02 | 0.17297231E+03 |  166.532
 BASOPT|        4     |       1     | 0.43928095E-02 | 0.16921908E+04 |  319.453
 BASOPT|        4     |       2     | 0.54209665E-02 | 0.45404112E+03 |  228.476
 BASOPT|        4     |       3     | 0.79917102E-02 | 0.65349938E+02 |  194.732
 BASOPT|        5     |       1     | 0.27957398E-02 | 0.52984668E+03 |  621.481
 BASOPT|        5     |       2     | 0.35769817E-02 | 0.34768201E+03 |  442.911
 BASOPT|        5     |       3     | 0.13476015E-01 | 0.96973550E+02 |  379.138
 BASOPT|        6     |       1     | 0.47271179E-02 | 0.13402131E+05 | 4536.851
 BASOPT|        6     |       2     | 0.68218714E-02 | 0.10166364E+05 | 2883.560
 BASOPT|        6     |       3     | 0.14288551E-01 | 0.16606786E+04 | 2385.359
 BASOPT| -----------------------------------------------------------------------
 BASOPT| Total residuum value: -.60801129E+04

 BASOPT| Information at iteration number:    3300
 BASOPT| Training set | Combination | Rho difference | Condition num. | Time
 BASOPT| -----------------------------------------------------------------------
 BASOPT|        1     |       1     | 0.28218942E-02 | 0.11904519E+04 |  153.789
 BASOPT|        1     |       2     | 0.31329604E-02 | 0.57543912E+03 |  126.639
 BASOPT|        1     |       3     | 0.56303667E-02 | 0.82502560E+02 |  110.291
 BASOPT|        2     |       1     | 0.67247923E-02 | 0.53879969E+03 |  240.033
 BASOPT|        2     |       2     | 0.77376166E-02 | 0.30273404E+03 |  184.589
 BASOPT|        2     |       3     | 0.10220729E-01 | 0.56435977E+02 |  172.792
 BASOPT|        3     |       1     | 0.24111604E-02 | 0.73020198E+03 |  263.787
 BASOPT|        3     |       2     | 0.29145806E-02 | 0.37784780E+03 |  195.917
 BASOPT|        3     |       3     | 0.86830558E-02 | 0.17283639E+03 |  171.733
 BASOPT|        4     |       1     | 0.43957647E-02 | 0.16887064E+04 |  329.439
 BASOPT|        4     |       2     | 0.54222214E-02 | 0.45355762E+03 |  235.608
 BASOPT|        4     |       3     | 0.80437537E-02 | 0.65281793E+02 |  200.819
 BASOPT|        5     |       1     | 0.27914199E-02 | 0.52835772E+03 |  640.914
 BASOPT|        5     |       2     | 0.35703440E-02 | 0.34661567E+03 |  456.656
 BASOPT|        5     |       3     | 0.13588810E-01 | 0.96937704E+02 |  390.978
 BASOPT|        6     |       1     | 0.47241946E-02 | 0.13486778E+05 | 4678.706
 BASOPT|        6     |       2     | 0.68177069E-02 | 0.10260118E+05 | 2973.670
 BASOPT|        6     |       3     | 0.14307733E-01 | 0.16541583E+04 | 2459.894
 BASOPT| -----------------------------------------------------------------------
 BASOPT| Total residuum value: -.60801165E+04

 BASOPT| Information at iteration number:    3400
 BASOPT| Training set | Combination | Rho difference | Condition num. | Time
 BASOPT| -----------------------------------------------------------------------
 BASOPT|        1     |       1     | 0.28316665E-02 | 0.11822289E+04 |  158.436
 BASOPT|        1     |       2     | 0.31403366E-02 | 0.56989208E+03 |  130.469
 BASOPT|        1     |       3     | 0.56222695E-02 | 0.82180439E+02 |  113.632
 BASOPT|        2     |       1     | 0.67393287E-02 | 0.53116765E+03 |  247.311
 BASOPT|        2     |       2     | 0.77536077E-02 | 0.29698759E+03 |  190.140
 BASOPT|        2     |       3     | 0.10232471E-01 | 0.56139648E+02 |  178.035
 BASOPT|        3     |       1     | 0.24123440E-02 | 0.73005889E+03 |  271.781
 BASOPT|        3     |       2     | 0.29137742E-02 | 0.37547151E+03 |  201.857
 BASOPT|        3     |       3     | 0.86380099E-02 | 0.17171727E+03 |  176.937
 BASOPT|        4     |       1     | 0.43993439E-02 | 0.17112456E+04 |  339.429
 BASOPT|        4     |       2     | 0.54235239E-02 | 0.44960595E+03 |  242.744
 BASOPT|        4     |       3     | 0.80287704E-02 | 0.64666508E+02 |  206.910
 BASOPT|        5     |       1     | 0.27922930E-02 | 0.52286735E+03 |  660.342
 BASOPT|        5     |       2     | 0.35658427E-02 | 0.34263351E+03 |  470.388
 BASOPT|        5     |       3     | 0.13510760E-01 | 0.96449768E+02 |  402.818
 BASOPT|        6     |       1     | 0.47168686E-02 | 0.13758555E+05 | 4820.554
 BASOPT|        6     |       2     | 0.68055841E-02 | 0.10471395E+05 | 3063.773
 BASOPT|        6     |       3     | 0.14294443E-01 | 0.16136075E+04 | 2534.467
 BASOPT| -----------------------------------------------------------------------
 BASOPT| Total residuum value: -.60801319E+04

 BASOPT| Information at iteration number:    3500
 BASOPT| Training set | Combination | Rho difference | Condition num. | Time
 BASOPT| -----------------------------------------------------------------------
 BASOPT|        1     |       1     | 0.28863844E-02 | 0.11782600E+04 |  163.076
 BASOPT|        1     |       2     | 0.31921037E-02 | 0.56612691E+03 |  134.301
 BASOPT|        1     |       3     | 0.57457619E-02 | 0.82197270E+02 |  116.965
 BASOPT|        2     |       1     | 0.68304362E-02 | 0.52538031E+03 |  254.581
 BASOPT|        2     |       2     | 0.78481029E-02 | 0.29190363E+03 |  195.695
 BASOPT|        2     |       3     | 0.10323390E-01 | 0.55977613E+02 |  183.278
 BASOPT|        3     |       1     | 0.24310064E-02 | 0.72743225E+03 |  279.776
 BASOPT|        3     |       2     | 0.29226956E-02 | 0.37212152E+03 |  207.805
 BASOPT|        3     |       3     | 0.87665568E-02 | 0.16960729E+03 |  182.148
 BASOPT|        4     |       1     | 0.44421923E-02 | 0.17072222E+04 |  349.406
 BASOPT|        4     |       2     | 0.54615432E-02 | 0.44532723E+03 |  249.879
 BASOPT|        4     |       3     | 0.81213946E-02 | 0.63828084E+02 |  212.999
 BASOPT|        5     |       1     | 0.27868162E-02 | 0.52376218E+03 |  679.778
 BASOPT|        5     |       2     | 0.35529127E-02 | 0.34273447E+03 |  484.118
 BASOPT|        5     |       3     | 0.13663240E-01 | 0.95594053E+02 |  414.660
 BASOPT|        6     |       1     | 0.47214444E-02 | 0.13290358E+05 | 4962.324
 BASOPT|        6     |       2     | 0.68062654E-02 | 0.10060848E+05 | 3153.875
 BASOPT|        6     |       3     | 0.14337284E-01 | 0.16227642E+04 | 2609.012
 BASOPT| -----------------------------------------------------------------------
 BASOPT| Total residuum value: -.60801482E+04

 BASOPT| Information at iteration number:    3600
 BASOPT| Training set | Combination | Rho difference | Condition num. | Time
 BASOPT| -----------------------------------------------------------------------
 BASOPT|        1     |       1     | 0.28995386E-02 | 0.11677182E+04 |  167.717
 BASOPT|        1     |       2     | 0.32023903E-02 | 0.56126640E+03 |  138.132
 BASOPT|        1     |       3     | 0.57391495E-02 | 0.81816005E+02 |  120.303
 BASOPT|        2     |       1     | 0.68663327E-02 | 0.52050212E+03 |  261.853
 BASOPT|        2     |       2     | 0.78860994E-02 | 0.28772979E+03 |  201.248
 BASOPT|        2     |       3     | 0.10502880E-01 | 0.55747209E+02 |  188.525
 BASOPT|        3     |       1     | 0.24358727E-02 | 0.71838434E+03 |  287.773
 BASOPT|        3     |       2     | 0.29205215E-02 | 0.36387107E+03 |  213.746
 BASOPT|        3     |       3     | 0.84926285E-02 | 0.16584873E+03 |  187.355
 BASOPT|        4     |       1     | 0.44556225E-02 | 0.17279420E+04 |  359.384
 BASOPT|        4     |       2     | 0.54750866E-02 | 0.43919615E+03 |  257.015
 BASOPT|        4     |       3     | 0.80190641E-02 | 0.62587081E+02 |  219.111
 BASOPT|        5     |       1     | 0.27862597E-02 | 0.52615923E+03 |  699.207
 BASOPT|        5     |       2     | 0.35461087E-02 | 0.34419371E+03 |  497.845
 BASOPT|        5     |       3     | 0.13398304E-01 | 0.94171920E+02 |  426.498
 BASOPT|        6     |       1     | 0.47148918E-02 | 0.12689504E+05 | 5104.147
 BASOPT|        6     |       2     | 0.67979075E-02 | 0.94915092E+04 | 3243.981
 BASOPT|        6     |       3     | 0.14243550E-01 | 0.16466397E+04 | 2683.535
 BASOPT| -----------------------------------------------------------------------
 BASOPT| Total residuum value: -.60801656E+04

 BASOPT| Information at iteration number:    3700
 BASOPT| Training set | Combination | Rho difference | Condition num. | Time
 BASOPT| -----------------------------------------------------------------------
 BASOPT|        1     |       1     | 0.29048815E-02 | 0.11676821E+04 |  172.358
 BASOPT|        1     |       2     | 0.32081145E-02 | 0.56288034E+03 |  141.964
 BASOPT|        1     |       3     | 0.57462082E-02 | 0.81610294E+02 |  123.639
 BASOPT|        2     |       1     | 0.68826067E-02 | 0.52187092E+03 |  269.124
 BASOPT|        2     |       2     | 0.79030737E-02 | 0.28797542E+03 |  206.801
 BASOPT|        2     |       3     | 0.10440199E-01 | 0.55707588E+02 |  193.769
 BASOPT|        3     |       1     | 0.24355904E-02 | 0.71653512E+03 |  295.769
 BASOPT|        3     |       2     | 0.29200808E-02 | 0.36255410E+03 |  219.688
 BASOPT|        3     |       3     | 0.86107676E-02 | 0.16521380E+03 |  192.562
 BASOPT|        4     |       1     | 0.44608318E-02 | 0.17298361E+04 |  369.365
 BASOPT|        4     |       2     | 0.54802767E-02 | 0.43812613E+03 |  264.153
 BASOPT|        4     |       3     | 0.80721019E-02 | 0.62329943E+02 |  225.241
 BASOPT|        5     |       1     | 0.27834985E-02 | 0.52804789E+03 |  718.641
 BASOPT|        5     |       2     | 0.35444053E-02 | 0.34554877E+03 |  511.571
 BASOPT|        5     |       3     | 0.13486013E-01 | 0.93884192E+02 |  438.343
 BASOPT|        6     |       1     | 0.47129207E-02 | 0.12377296E+05 | 5245.953
 BASOPT|        6     |       2     | 0.67927758E-02 | 0.91568868E+04 | 3334.109
 BASOPT|        6     |       3     | 0.14274118E-01 | 0.16577684E+04 | 2758.081
 BASOPT| -----------------------------------------------------------------------
 BASOPT| Total residuum value: -.60801731E+04

 BASOPT| Information at iteration number:    3800
 BASOPT| Training set | Combination | Rho difference | Condition num. | Time
 BASOPT| -----------------------------------------------------------------------
 BASOPT|        1     |       1     | 0.29285506E-02 | 0.11627957E+04 |  177.001
 BASOPT|        1     |       2     | 0.32316423E-02 | 0.56182473E+03 |  145.793
 BASOPT|        1     |       3     | 0.57469472E-02 | 0.81380491E+02 |  126.979
 BASOPT|        2     |       1     | 0.69258956E-02 | 0.52093827E+03 |  276.394
 BASOPT|        2     |       2     | 0.79485965E-02 | 0.28705633E+03 |  212.350
 BASOPT|        2     |       3     | 0.10575538E-01 | 0.55539374E+02 |  199.009
 BASOPT|        3     |       1     | 0.24457292E-02 | 0.71076789E+03 |  303.763
 BASOPT|        3     |       2     | 0.29259801E-02 | 0.35813469E+03 |  225.625
 BASOPT|        3     |       3     | 0.84303869E-02 | 0.16293138E+03 |  197.762
 BASOPT|        4     |       1     | 0.44841583E-02 | 0.17626903E+04 |  379.351
 BASOPT|        4     |       2     | 0.55032696E-02 | 0.43616145E+03 |  271.287
 BASOPT|        4     |       3     | 0.80165263E-02 | 0.61559347E+02 |  231.332
 BASOPT|        5     |       1     | 0.27807844E-02 | 0.52998878E+03 |  738.075
 BASOPT|        5     |       2     | 0.35404938E-02 | 0.34706807E+03 |  525.289
 BASOPT|        5     |       3     | 0.13317647E-01 | 0.93050129E+02 |  450.181
 BASOPT|        6     |       1     | 0.47088458E-02 | 0.12065198E+05 | 5387.766
 BASOPT|        6     |       2     | 0.67897109E-02 | 0.88572157E+04 | 3424.317
 BASOPT|        6     |       3     | 0.14250547E-01 | 0.16732817E+04 | 2832.619
 BASOPT| -----------------------------------------------------------------------
 BASOPT| Total residuum value: -.60801826E+04

 BASOPT| Information at iteration number:    3900
 BASOPT| Training set | Combination | Rho difference | Condition num. | Time
 BASOPT| -----------------------------------------------------------------------
 BASOPT|        1     |       1     | 0.29423202E-02 | 0.11581401E+04 |  181.649
 BASOPT|        1     |       2     | 0.32451639E-02 | 0.56117795E+03 |  149.623
 BASOPT|        1     |       3     | 0.57672981E-02 | 0.81154152E+02 |  130.319
 BASOPT|        2     |       1     | 0.69528469E-02 | 0.52040617E+03 |  283.665
 BASOPT|        2     |       2     | 0.79740975E-02 | 0.28673964E+03 |  217.904
 BASOPT|        2     |       3     | 0.10694478E-01 | 0.55282354E+02 |  204.249
 BASOPT|        3     |       1     | 0.24517221E-02 | 0.70500141E+03 |  311.756
 BASOPT|        3     |       2     | 0.29295293E-02 | 0.35286298E+03 |  231.566
 BASOPT|        3     |       3     | 0.82935828E-02 | 0.16032789E+03 |  202.963
 BASOPT|        4     |       1     | 0.44972919E-02 | 0.18222762E+04 |  389.323
 BASOPT|        4     |       2     | 0.55140450E-02 | 0.43424242E+03 |  278.423
 BASOPT|        4     |       3     | 0.79715122E-02 | 0.60698516E+02 |  237.413
[...]
 BASOPT|        1     |       2     | 0.34549756E-02 | 0.58431862E+03 |  658.515
 BASOPT|        1     |       3     | 0.61108615E-02 | 0.78061547E+02 |  573.509
 BASOPT|        2     |       1     | 0.71301878E-02 | 0.56891714E+03 | 1249.096
 BASOPT|        2     |       2     | 0.81240488E-02 | 0.31822145E+03 |  955.510
 BASOPT|        2     |       3     | 0.10720780E-01 | 0.52105267E+02 |  900.357
 BASOPT|        3     |       1     | 0.26166507E-02 | 0.59033406E+03 | 1375.731
 BASOPT|        3     |       2     | 0.30181171E-02 | 0.33773363E+03 | 1022.535
 BASOPT|        3     |       3     | 0.87898294E-02 | 0.14393567E+03 |  894.965
 BASOPT|        4     |       1     | 0.46543390E-02 | 0.13305471E+04 | 1716.466
 BASOPT|        4     |       2     | 0.56121500E-02 | 0.34989579E+03 | 1228.030
 BASOPT|        4     |       3     | 0.81855283E-02 | 0.54325304E+02 | 1046.789
 BASOPT|        5     |       1     | 0.28304473E-02 | 0.53583736E+03 | 3344.478
 BASOPT|        5     |       2     | 0.35811841E-02 | 0.34128977E+03 | 2367.332
 BASOPT|        5     |       3     | 0.13527684E-01 | 0.84684647E+02 | 2037.881
 BASOPT|        6     |       1     | 0.46775474E-02 | 0.15257913E+05 | ********
 BASOPT|        6     |       2     | 0.67375241E-02 | 0.11797317E+05 | ********
 BASOPT|        6     |       3     | 0.14090729E-01 | 0.15587767E+04 | ********
 BASOPT| -----------------------------------------------------------------------
 BASOPT| Total residuum value: -.60803117E+04

 BASOPT| Information at iteration number:   17300
 BASOPT| Training set | Combination | Rho difference | Condition num. | Time
 BASOPT| -----------------------------------------------------------------------
 BASOPT|        1     |       1     | 0.31152130E-02 | 0.11373360E+04 |  804.968
 BASOPT|        1     |       2     | 0.34528735E-02 | 0.58426947E+03 |  662.341
 BASOPT|        1     |       3     | 0.61119195E-02 | 0.78075359E+02 |  576.842
 BASOPT|        2     |       1     | 0.71277069E-02 | 0.56886982E+03 | 1256.355
 BASOPT|        2     |       2     | 0.81217832E-02 | 0.31814271E+03 |  961.042
 BASOPT|        2     |       3     | 0.10706696E-01 | 0.52120679E+02 |  905.576
 BASOPT|        3     |       1     | 0.26148202E-02 | 0.59007102E+03 | 1383.712
 BASOPT|        3     |       2     | 0.30162048E-02 | 0.33758309E+03 | 1028.479
 BASOPT|        3     |       3     | 0.88138507E-02 | 0.14408248E+03 |  900.163
 BASOPT|        4     |       1     | 0.46521230E-02 | 0.13262628E+04 | 1726.443
 BASOPT|        4     |       2     | 0.56101009E-02 | 0.34971135E+03 | 1235.172
 BASOPT|        4     |       3     | 0.81953739E-02 | 0.54375366E+02 | 1052.873
 BASOPT|        5     |       1     | 0.28294777E-02 | 0.53536017E+03 | 3363.952
 BASOPT|        5     |       2     | 0.35799590E-02 | 0.34097986E+03 | 2381.093
 BASOPT|        5     |       3     | 0.13554387E-01 | 0.84739305E+02 | 2049.740
 BASOPT|        6     |       1     | 0.46777464E-02 | 0.15275586E+05 | ********
 BASOPT|        6     |       2     | 0.67378409E-02 | 0.11808528E+05 | ********
 BASOPT|        6     |       3     | 0.14100193E-01 | 0.15586086E+04 | ********
 BASOPT| -----------------------------------------------------------------------
 BASOPT| Total residuum value: -.60803118E+04

 BASOPT| Information at iteration number:   17400
 BASOPT| Training set | Combination | Rho difference | Condition num. | Time
 BASOPT| -----------------------------------------------------------------------
 BASOPT|        1     |       1     | 0.31372095E-02 | 0.11343285E+04 |  809.642
 BASOPT|        1     |       2     | 0.34774032E-02 | 0.58216689E+03 |  666.167
 BASOPT|        1     |       3     | 0.61440586E-02 | 0.78030149E+02 |  580.174
 BASOPT|        2     |       1     | 0.71555038E-02 | 0.56660411E+03 | 1263.613
 BASOPT|        2     |       2     | 0.81504882E-02 | 0.31687971E+03 |  966.576
 BASOPT|        2     |       3     | 0.10744166E-01 | 0.52095818E+02 |  910.794
 BASOPT|        3     |       1     | 0.26304007E-02 | 0.58785173E+03 | 1391.701
 BASOPT|        3     |       2     | 0.30290037E-02 | 0.33703187E+03 | 1034.419
 BASOPT|        3     |       3     | 0.88333319E-02 | 0.14389065E+03 |  905.361
 BASOPT|        4     |       1     | 0.46712358E-02 | 0.13219432E+04 | 1736.419
 BASOPT|        4     |       2     | 0.56264175E-02 | 0.34832069E+03 | 1242.316
 BASOPT|        4     |       3     | 0.82168682E-02 | 0.54311295E+02 | 1058.958
 BASOPT|        5     |       1     | 0.28349173E-02 | 0.53474344E+03 | 3383.400
 BASOPT|        5     |       2     | 0.35862792E-02 | 0.34049362E+03 | 2394.863
 BASOPT|        5     |       3     | 0.13592718E-01 | 0.84648673E+02 | 2061.589
 BASOPT|        6     |       1     | 0.46800407E-02 | 0.15175476E+05 | ********
 BASOPT|        6     |       2     | 0.67411877E-02 | 0.11740599E+05 | ********
 BASOPT|        6     |       3     | 0.14110355E-01 | 0.15611858E+04 | ********
 BASOPT| -----------------------------------------------------------------------
 BASOPT| Total residuum value: -.60803122E+04

 BASOPT| Information at iteration number:   17500
 BASOPT| Training set | Combination | Rho difference | Condition num. | Time
 BASOPT| -----------------------------------------------------------------------
 BASOPT|        1     |       1     | 0.31277232E-02 | 0.11330725E+04 |  814.318
 BASOPT|        1     |       2     | 0.34670022E-02 | 0.58129969E+03 |  669.994
 BASOPT|        1     |       3     | 0.61180285E-02 | 0.77992865E+02 |  583.508
 BASOPT|        2     |       1     | 0.71427070E-02 | 0.56575486E+03 | 1270.871
 BASOPT|        2     |       2     | 0.81375352E-02 | 0.31645056E+03 |  972.103
 BASOPT|        2     |       3     | 0.10738154E-01 | 0.52096452E+02 |  916.013
 BASOPT|        3     |       1     | 0.26243361E-02 | 0.58719288E+03 | 1399.683
 BASOPT|        3     |       2     | 0.30233227E-02 | 0.33671597E+03 | 1040.353
 BASOPT|        3     |       3     | 0.87871243E-02 | 0.14396683E+03 |  910.557
 BASOPT|        4     |       1     | 0.46625222E-02 | 0.13211080E+04 | 1746.395
 BASOPT|        4     |       2     | 0.56188690E-02 | 0.34794895E+03 | 1249.457
 BASOPT|        4     |       3     | 0.81894335E-02 | 0.54348269E+02 | 1065.045
 BASOPT|        5     |       1     | 0.28345595E-02 | 0.53402204E+03 | 3402.843
 BASOPT|        5     |       2     | 0.35840666E-02 | 0.34001693E+03 | 2408.669
 BASOPT|        5     |       3     | 0.13543534E-01 | 0.84673811E+02 | 2073.434
 BASOPT|        6     |       1     | 0.46803492E-02 | 0.15216104E+05 | ********
 BASOPT|        6     |       2     | 0.67423692E-02 | 0.11773773E+05 | ********
 BASOPT|        6     |       3     | 0.14099610E-01 | 0.15578735E+04 | ********
 BASOPT| -----------------------------------------------------------------------
 BASOPT| Total residuum value: -.60803124E+04

 BASOPT| Information at iteration number:   17600
 BASOPT| Training set | Combination | Rho difference | Condition num. | Time
 BASOPT| -----------------------------------------------------------------------
 BASOPT|        1     |       1     | 0.31173134E-02 | 0.11321690E+04 |  818.995
 BASOPT|        1     |       2     | 0.34560302E-02 | 0.58102317E+03 |  673.820
 BASOPT|        1     |       3     | 0.61090369E-02 | 0.77980333E+02 |  586.850
 BASOPT|        2     |       1     | 0.71302162E-02 | 0.56556551E+03 | 1278.129
 BASOPT|        2     |       2     | 0.81250315E-02 | 0.31636008E+03 |  977.632
 BASOPT|        2     |       3     | 0.10708762E-01 | 0.52105083E+02 |  921.241
 BASOPT|        3     |       1     | 0.26165176E-02 | 0.58710296E+03 | 1407.669
 BASOPT|        3     |       2     | 0.30160337E-02 | 0.33668670E+03 | 1046.287
 BASOPT|        3     |       3     | 0.88098861E-02 | 0.14410511E+03 |  915.752
 BASOPT|        4     |       1     | 0.46531025E-02 | 0.13189959E+04 | 1756.374
 BASOPT|        4     |       2     | 0.56104032E-02 | 0.34771286E+03 | 1256.601
 BASOPT|        4     |       3     | 0.81942783E-02 | 0.54405046E+02 | 1071.129
 BASOPT|        5     |       1     | 0.28313217E-02 | 0.53360222E+03 | 3422.286
 BASOPT|        5     |       2     | 0.35798595E-02 | 0.33970858E+03 | 2422.491
 BASOPT|        5     |       3     | 0.13562233E-01 | 0.84731014E+02 | 2085.284
 BASOPT|        6     |       1     | 0.46799163E-02 | 0.15238018E+05 | ********
 BASOPT|        6     |       2     | 0.67425706E-02 | 0.11789354E+05 | ********
 BASOPT|        6     |       3     | 0.14105433E-01 | 0.15596824E+04 | ********
 BASOPT| -----------------------------------------------------------------------
 BASOPT| Total residuum value: -.60803116E+04

 BASOPT| Information at iteration number:   17700
 BASOPT| Training set | Combination | Rho difference | Condition num. | Time
 BASOPT| -----------------------------------------------------------------------
 BASOPT|        1     |       1     | 0.30983179E-02 | 0.11309647E+04 |  823.672
 BASOPT|        1     |       2     | 0.34355456E-02 | 0.58026260E+03 |  677.649
 BASOPT|        1     |       3     | 0.60794609E-02 | 0.77954186E+02 |  590.197
 BASOPT|        2     |       1     | 0.71076761E-02 | 0.56511830E+03 | 1285.389
 BASOPT|        2     |       2     | 0.81019744E-02 | 0.31618241E+03 |  983.158
 BASOPT|        2     |       3     | 0.10690715E-01 | 0.52099359E+02 |  926.465
 BASOPT|        3     |       1     | 0.26025152E-02 | 0.58617778E+03 | 1415.651
 BASOPT|        3     |       2     | 0.30034268E-02 | 0.33680802E+03 | 1052.220
 BASOPT|        3     |       3     | 0.87701982E-02 | 0.14398820E+03 |  920.948
 BASOPT|        4     |       1     | 0.46361231E-02 | 0.13212415E+04 | 1766.350
 BASOPT|        4     |       2     | 0.55955429E-02 | 0.34722839E+03 | 1263.742
 BASOPT|        4     |       3     | 0.81664724E-02 | 0.54384143E+02 | 1077.217
 BASOPT|        5     |       1     | 0.28255683E-02 | 0.53390832E+03 | 3441.726
 BASOPT|        5     |       2     | 0.35728056E-02 | 0.33977297E+03 | 2436.266
 BASOPT|        5     |       3     | 0.13512336E-01 | 0.84700934E+02 | 2097.131
 BASOPT|        6     |       1     | 0.46785855E-02 | 0.15144320E+05 | ********
 BASOPT|        6     |       2     | 0.67414828E-02 | 0.11709020E+05 | ********
 BASOPT|        6     |       3     | 0.14092224E-01 | 0.15670496E+04 | ********
 BASOPT| -----------------------------------------------------------------------
 BASOPT| Total residuum value: -.60803129E+04

 BASOPT| Information at iteration number:   17800
 BASOPT| Training set | Combination | Rho difference | Condition num. | Time
 BASOPT| -----------------------------------------------------------------------
 BASOPT|        1     |       1     | 0.31117746E-02 | 0.11307315E+04 |  828.350
 BASOPT|        1     |       2     | 0.34503639E-02 | 0.58026884E+03 |  681.475
 BASOPT|        1     |       3     | 0.60781011E-02 | 0.77910817E+02 |  593.539
 BASOPT|        2     |       1     | 0.71247942E-02 | 0.56515651E+03 | 1292.648
 BASOPT|        2     |       2     | 0.81198644E-02 | 0.31618199E+03 |  988.685
 BASOPT|        2     |       3     | 0.10740812E-01 | 0.52093489E+02 |  931.683
 BASOPT|        3     |       1     | 0.26117050E-02 | 0.58571716E+03 | 1423.629
 BASOPT|        3     |       2     | 0.30115140E-02 | 0.33674998E+03 | 1058.152
 BASOPT|        3     |       3     | 0.87032447E-02 | 0.14401012E+03 |  926.142
 BASOPT|        4     |       1     | 0.46485113E-02 | 0.13186476E+04 | 1776.324
 BASOPT|        4     |       2     | 0.56068213E-02 | 0.34713704E+03 | 1270.880
 BASOPT|        4     |       3     | 0.81438911E-02 | 0.54391039E+02 | 1083.303
 BASOPT|        5     |       1     | 0.28275149E-02 | 0.53367795E+03 | 3461.169
 BASOPT|        5     |       2     | 0.35764624E-02 | 0.33964424E+03 | 2450.009
 BASOPT|        5     |       3     | 0.13461455E-01 | 0.84694800E+02 | 2108.975
 BASOPT|        6     |       1     | 0.46796247E-02 | 0.15101015E+05 | ********
 BASOPT|        6     |       2     | 0.67426885E-02 | 0.11682467E+05 | ********
 BASOPT|        6     |       3     | 0.14082493E-01 | 0.15656173E+04 | ********
 BASOPT| -----------------------------------------------------------------------
 BASOPT| Total residuum value: -.60803128E+04

 BASOPT| Information at iteration number:   17900
 BASOPT| Training set | Combination | Rho difference | Condition num. | Time
 BASOPT| -----------------------------------------------------------------------
 BASOPT|        1     |       1     | 0.31224233E-02 | 0.11310401E+04 |  833.028
 BASOPT|        1     |       2     | 0.34622339E-02 | 0.58048383E+03 |  685.301
 BASOPT|        1     |       3     | 0.61092425E-02 | 0.77922324E+02 |  596.869
 BASOPT|        2     |       1     | 0.71375222E-02 | 0.56563707E+03 | 1299.906
 BASOPT|        2     |       2     | 0.81322888E-02 | 0.31636806E+03 |  994.223
 BASOPT|        2     |       3     | 0.10717181E-01 | 0.52097884E+02 |  936.904
 BASOPT|        3     |       1     | 0.26197657E-02 | 0.58499243E+03 | 1431.613
 BASOPT|        3     |       2     | 0.30192198E-02 | 0.33684633E+03 | 1064.087
 BASOPT|        3     |       3     | 0.88045014E-02 | 0.14410546E+03 |  931.338
 BASOPT|        4     |       1     | 0.46578442E-02 | 0.13137043E+04 | 1786.298
 BASOPT|        4     |       2     | 0.56146466E-02 | 0.34679315E+03 | 1278.023
 BASOPT|        4     |       3     | 0.81936041E-02 | 0.54419149E+02 | 1089.389
 BASOPT|        5     |       1     | 0.28312108E-02 | 0.53329757E+03 | 3480.650
 BASOPT|        5     |       2     | 0.35816376E-02 | 0.33929281E+03 | 2463.801
 BASOPT|        5     |       3     | 0.13559487E-01 | 0.84740239E+02 | 2120.825
 BASOPT|        6     |       1     | 0.46787478E-02 | 0.15035667E+05 | ********
 BASOPT|        6     |       2     | 0.67419214E-02 | 0.11649893E+05 | ********
 BASOPT|        6     |       3     | 0.14100179E-01 | 0.15643820E+04 | ********
 BASOPT| -----------------------------------------------------------------------
 BASOPT| Total residuum value: -.60803135E+04

 BASOPT| Information at iteration number:   18000
 BASOPT| Training set | Combination | Rho difference | Condition num. | Time
 BASOPT| -----------------------------------------------------------------------
 BASOPT|        1     |       1     | 0.31036666E-02 | 0.11307444E+04 |  837.692
 BASOPT|        1     |       2     | 0.34412619E-02 | 0.58084030E+03 |  689.126
 BASOPT|        1     |       3     | 0.60731528E-02 | 0.77886685E+02 |  600.195
 BASOPT|        2     |       1     | 0.71148857E-02 | 0.56629496E+03 | 1307.168
 BASOPT|        2     |       2     | 0.81084366E-02 | 0.31669958E+03 |  999.770
 BASOPT|        2     |       3     | 0.10689160E-01 | 0.52116429E+02 |  942.122
 BASOPT|        3     |       1     | 0.26061867E-02 | 0.58400535E+03 | 1439.593
 BASOPT|        3     |       2     | 0.30075866E-02 | 0.33706054E+03 | 1070.022
 BASOPT|        3     |       3     | 0.87676781E-02 | 0.14429800E+03 |  936.532
 BASOPT|        4     |       1     | 0.46402128E-02 | 0.13060358E+04 | 1796.284
 BASOPT|        4     |       2     | 0.55989631E-02 | 0.34649040E+03 | 1285.168
 BASOPT|        4     |       3     | 0.81624340E-02 | 0.54483445E+02 | 1095.474
 BASOPT|        5     |       1     | 0.28279894E-02 | 0.53294491E+03 | 3500.174
 BASOPT|        5     |       2     | 0.35766100E-02 | 0.33903358E+03 | 2477.543
 BASOPT|        5     |       3     | 0.13511068E-01 | 0.84798330E+02 | 2132.672
 BASOPT|        6     |       1     | 0.46770207E-02 | 0.14956227E+05 | ********
 BASOPT|        6     |       2     | 0.67389974E-02 | 0.11591366E+05 | ********
 BASOPT|        6     |       3     | 0.14078888E-01 | 0.15697700E+04 | ********
 BASOPT| -----------------------------------------------------------------------
 BASOPT| Total residuum value: -.60803135E+04

 BASOPT| Information at iteration number:   18100
 BASOPT| Training set | Combination | Rho difference | Condition num. | Time
 BASOPT| -----------------------------------------------------------------------
 BASOPT|        1     |       1     | 0.31310428E-02 | 0.11286804E+04 |  842.355
 BASOPT|        1     |       2     | 0.34723187E-02 | 0.58010261E+03 |  692.951
 BASOPT|        1     |       3     | 0.61052650E-02 | 0.77806641E+02 |  603.520
 BASOPT|        2     |       1     | 0.71463165E-02 | 0.56597531E+03 | 1314.428
 BASOPT|        2     |       2     | 0.81415346E-02 | 0.31662198E+03 | 1005.299
 BASOPT|        2     |       3     | 0.10734923E-01 | 0.52078009E+02 |  947.341
 BASOPT|        3     |       1     | 0.26270669E-02 | 0.58339593E+03 | 1447.577
 BASOPT|        3     |       2     | 0.30262423E-02 | 0.33652955E+03 | 1075.954
 BASOPT|        3     |       3     | 0.87765084E-02 | 0.14426659E+03 |  941.727
 BASOPT|        4     |       1     | 0.46665457E-02 | 0.13035299E+04 | 1806.271
 BASOPT|        4     |       2     | 0.56223716E-02 | 0.34607792E+03 | 1292.312
 BASOPT|        4     |       3     | 0.81831163E-02 | 0.54469101E+02 | 1101.559
 BASOPT|        5     |       1     | 0.28335420E-02 | 0.53182036E+03 | 3519.658
 BASOPT|        5     |       2     | 0.35863594E-02 | 0.33822514E+03 | 2491.282
 BASOPT|        5     |       3     | 0.13548330E-01 | 0.84771085E+02 | 2144.519
 BASOPT|        6     |       1     | 0.46799409E-02 | 0.15040736E+05 | ********
 BASOPT|        6     |       2     | 0.67443270E-02 | 0.11696058E+05 | ********
 BASOPT|        6     |       3     | 0.14097404E-01 | 0.15579909E+04 | ********
 BASOPT| -----------------------------------------------------------------------
 BASOPT| Total residuum value: -.60803142E+04

 BASOPT| Information at iteration number:   18200
 BASOPT| Training set | Combination | Rho difference | Condition num. | Time
 BASOPT| -----------------------------------------------------------------------
 BASOPT|        1     |       1     | 0.31274703E-02 | 0.11294123E+04 |  847.023
 BASOPT|        1     |       2     | 0.34677916E-02 | 0.58081047E+03 |  696.776
 BASOPT|        1     |       3     | 0.61052178E-02 | 0.77835725E+02 |  606.845
 BASOPT|        2     |       1     | 0.71427659E-02 | 0.56676128E+03 | 1321.686
 BASOPT|        2     |       2     | 0.81373408E-02 | 0.31701371E+03 | 1010.827
 BASOPT|        2     |       3     | 0.10721948E-01 | 0.52085922E+02 |  952.558
 BASOPT|        3     |       1     | 0.26237893E-02 | 0.58386569E+03 | 1455.556
 BASOPT|        3     |       2     | 0.30231443E-02 | 0.33694775E+03 | 1081.885
 BASOPT|        3     |       3     | 0.87938103E-02 | 0.14430046E+03 |  946.922
 BASOPT|        4     |       1     | 0.46622425E-02 | 0.13047579E+04 | 1816.279
 BASOPT|        4     |       2     | 0.56188161E-02 | 0.34604935E+03 | 1299.455
 BASOPT|        4     |       3     | 0.81873570E-02 | 0.54464554E+02 | 1107.643
 BASOPT|        5     |       1     | 0.28331456E-02 | 0.53272714E+03 | 3539.113
 BASOPT|        5     |       2     | 0.35850492E-02 | 0.33863232E+03 | 2505.015
 BASOPT|        5     |       3     | 0.13560768E-01 | 0.84773692E+02 | 2156.358
 BASOPT|        6     |       1     | 0.46792157E-02 | 0.14978076E+05 | ********
 BASOPT|        6     |       2     | 0.67429259E-02 | 0.11650051E+05 | ********
 BASOPT|        6     |       3     | 0.14100669E-01 | 0.15667133E+04 | ********
 BASOPT| -----------------------------------------------------------------------
 BASOPT| Total residuum value: -.60803146E+04

 BASOPT| Information at iteration number:   18300
 BASOPT| Training set | Combination | Rho difference | Condition num. | Time
 BASOPT| -----------------------------------------------------------------------
 BASOPT|        1     |       1     | 0.31280587E-02 | 0.11257584E+04 |  851.687
 BASOPT|        1     |       2     | 0.34691893E-02 | 0.57932102E+03 |  700.599
 BASOPT|        1     |       3     | 0.61058526E-02 | 0.77735358E+02 |  610.169
 BASOPT|        2     |       1     | 0.71406548E-02 | 0.56584003E+03 | 1328.943
