 DBCSR| CPU Multiplication driver                                           XSMM
 DBCSR| Multrec recursion limit                                              512
 DBCSR| Multiplication stack size                                           1000
 DBCSR| Maximum elements for images                                    UNLIMITED
 DBCSR| Multiplicative factor virtual images                                   1
 DBCSR| Use multiplication densification                                       T
 DBCSR| Multiplication size stacks                                             3
 DBCSR| Use memory pool for CPU allocation                                     F
 DBCSR| Number of 3D layers                                               SINGLE
 DBCSR| Use MPI memory allocation                                              F
 DBCSR| Use RMA algorithm                                                      F
 DBCSR| Use Communication thread                                               T
 DBCSR| Communication thread load                                             87
 DBCSR| MPI: My node id                                                        0
 DBCSR| MPI: Number of nodes                                                  48
 DBCSR| OMP: Current number of threads                                         1
 DBCSR| OMP: Max number of threads                                             1
 DBCSR| Split modifier for TAS multiplication algorithm                  1.0E+00


  **** **** ******  **  PROGRAM STARTED AT               2022-05-14 11:28:56.389
 ***** ** ***  *** **   PROGRAM STARTED ON                               tcopt10
 **    ****   ******    PROGRAM STARTED BY                                hutter
 ***** **    ** ** **   PROGRAM PROCESS ID                                 10333
  **** **  *******  **  PROGRAM STARTED IN /data/hutter/GITHUB/BASIS/scMOLOPT/PB
                                           E/Fe

 CP2K| version string:                   CP2K version 10.0 (Development Version)
 CP2K| source code revision number:                                  git:13fcfd8
 CP2K| cp2kflags: omp libint fftw3 libxc elpa parallel mpi3 scalapack cosma xsmm
 CP2K|             spglib sirius libvori libbqb
 CP2K| is freely available from                            https://www.cp2k.org/
 CP2K| Program compiled at                      Tue 10 May 2022 02:27:21 PM CEST
 CP2K| Program compiled on                                               tcopt10
 CP2K| Program compiled for                                                local
 CP2K| Data directory path                   /data/hutter/GITHUB/TDLRI/cp2k/data
 CP2K| Input file name                                             FeCO5-ref.inp

 GLOBAL| Force Environment number                                              1
 GLOBAL| Basis set file name                                        ../def2QZVPP
 GLOBAL| Potential file name                                        ../POTENTIAL
 GLOBAL| MM Potential file name                                     MM_POTENTIAL
 GLOBAL| Coordinate file name                                      __STD_INPUT__
 GLOBAL| Method name                                                        CP2K
 GLOBAL| Project name                                                   refFeCO5
 GLOBAL| Run type                                                         ENERGY
 GLOBAL| FFT library                                                       FFTW3
 GLOBAL| Diagonalization library                                       ScaLAPACK
 GLOBAL| Orthonormality check for eigenvectors                          DISABLED
 GLOBAL| Matrix multiplication library                                     COSMA
 GLOBAL| All-to-all communication in single precision                          F
 GLOBAL| FFTs using library dependent lengths                                  F
 GLOBAL| Grid backend                                                       AUTO
 GLOBAL| Global print level                                                  LOW
 GLOBAL| MPI I/O enabled                                                       T
 GLOBAL| Total number of message passing processes                            48
 GLOBAL| Number of threads for this process                                    1
 GLOBAL| This output is from process                                           0
 GLOBAL| Stack size for threads created by OpenMP (OMP_STACKSIZE)        default
 GLOBAL| CPU model name                          AMD EPYC 7401 24-Core Processor
 GLOBAL| CPUID                                                              1002

 MEMORY| system memory details [Kb]
 MEMORY|                        rank 0           min           max       average
 MEMORY| MemTotal            263969136     263969136     263969136     263969136
 MEMORY| MemFree             237820788     237820788     237820788     237820788
 MEMORY| Buffers                   136           136           136           136
 MEMORY| Cached               18980968      18980968      18980968      18980968
 MEMORY| Slab                  1426612       1426612       1426612       1426612
 MEMORY| SReclaimable           872508        872508        872508        872508
 MEMORY| MemLikelyFree       257674400     257674400     257674400     257674400


 GENERATE|  Preliminary Number of Bonds generated:                             0
 GENERATE|  Achieved consistency in connectivity generation.

 *******************************************************************************
 *******************************************************************************
 **                                                                           **
 **     #####                         ##              ##                      **
 **    ##   ##            ##          ##              ##                      **
 **   ##     ##                       ##            ######                    **
 **   ##     ##  ##   ##  ##   #####  ##  ##   ####   ##    #####    #####    **
 **   ##     ##  ##   ##  ##  ##      ## ##   ##      ##   ##   ##  ##   ##   **
 **   ##  ## ##  ##   ##  ##  ##      ####     ###    ##   ######   ######    **
 **    ##  ###   ##   ##  ##  ##      ## ##      ##   ##   ##       ##        **
 **     #######   #####   ##   #####  ##  ##  ####    ##    #####   ##        **
 **           ##                                                    ##        **
 **                                                                           **
 **                                                ... make the atoms dance   **
 **                                                                           **
 **            Copyright (C) by CP2K developers group (2000-2022)             **
 **                      J. Chem. Phys. 152, 194103 (2020)                    **
 **                                                                           **
 *******************************************************************************


 TOTAL NUMBERS AND MAXIMUM NUMBERS

  Total number of            - Atomic kinds:                                   3
                             - Atoms:                                         11
                             - Shell sets:                                   198
                             - Shells:                                       198
                             - Primitive Cartesian functions:                348
                             - Cartesian basis functions:                    849
                             - Spherical basis functions:                    670

  Maximum angular momentum of the orbital basis functions:                     4


 SCF PARAMETERS         Density guess:                                    ATOMIC
                        --------------------------------------------------------
                        max_scf:                                              20
                        max_scf_history:                                       0
                        max_diis:                                              4
                        --------------------------------------------------------
                        eps_scf:                                        5.00E-07
                        eps_scf_history:                                0.00E+00
                        eps_diis:                                       1.00E-01
                        eps_eigval:                                     1.00E-05
                        --------------------------------------------------------
                        level_shift [a.u.]:                             0.000000
                        --------------------------------------------------------
                        Outer loop SCF in use 
                        No variables optimised in outer loop
                        eps_scf                                         5.00E-07
                        max_scf                                                5
                        No outer loop optimization
                        step_size                                       5.00E-01

 Spin 1

 Number of electrons:                                                         48
 Number of occupied orbitals:                                                 48
 Number of molecular orbitals:                                                48

 Spin 2

 Number of electrons:                                                         48
 Number of occupied orbitals:                                                 48
 Number of molecular orbitals:                                                48

 Number of orbital functions:                                                670
 Number of independent orbital functions:                                    670

 Extrapolation method: initial_guess


 SCF WAVEFUNCTION OPTIMIZATION

  ----------------------------------- OT ---------------------------------------
  Minimizer      : DIIS                : direct inversion
                                         in the iterative subspace
                                         using   7 DIIS vectors
                                         safer DIIS on
  Preconditioner : FULL_ALL            : diagonalization, state selective
  Precond_solver : DEFAULT
  stepsize       :    0.10000000                  energy_gap     :    0.08000000
  eps_taylor     :   0.10000E-15                  max_taylor     :             4
  ----------------------------------- OT ---------------------------------------

  Step     Update method      Time    Convergence         Total energy    Change
  ------------------------------------------------------------------------------
     1 OT DIIS     0.10E+00    5.0     0.08122357     -1727.4971060193 -1.73E+03
     2 OT DIIS     0.10E+00    5.5     0.06358533     -1765.3512493866 -3.79E+01
     3 OT DIIS     0.10E+00    5.5     0.01303493     -1820.3046167236 -5.50E+01
     4 OT DIIS     0.10E+00    5.5     0.01082184     -1821.1950873536 -8.90E-01
     5 OT DIIS     0.10E+00    5.5     0.00575329     -1823.7237183060 -2.53E+00
     6 OT DIIS     0.10E+00    5.5     0.00466169     -1824.3189977182 -5.95E-01
     7 OT DIIS     0.10E+00    5.5     0.00361393     -1825.0175578087 -6.99E-01
     8 OT DIIS     0.10E+00    5.5     0.00311362     -1825.6159663582 -5.98E-01
     9 OT DIIS     0.10E+00    5.5     0.00287816     -1825.9229741108 -3.07E-01
    10 OT DIIS     0.10E+00    5.5     0.00212315     -1826.8630951608 -9.40E-01
    11 OT DIIS     0.10E+00    5.5     0.00202061     -1826.9864364146 -1.23E-01
    12 OT DIIS     0.10E+00    5.5     0.00174380     -1827.2818078897 -2.95E-01
    13 OT DIIS     0.10E+00    5.5     0.00168464     -1827.3704996018 -8.87E-02
    14 OT DIIS     0.10E+00    5.5     0.00146915     -1827.7208927692 -3.50E-01
    15 OT DIIS     0.10E+00    5.5     0.00142191     -1827.7695015028 -4.86E-02
    16 OT DIIS     0.10E+00    5.5     0.00129607     -1827.9959745987 -2.26E-01
    17 OT DIIS     0.10E+00    5.5     0.00125023     -1828.0644297713 -6.85E-02
    18 OT DIIS     0.10E+00    5.5     0.00111965     -1828.2913799033 -2.27E-01
    19 OT DIIS     0.10E+00    5.5     0.00109440     -1828.3376693745 -4.63E-02
    20 OT DIIS     0.10E+00    5.5     0.00102657     -1828.5164696165 -1.79E-01

  Leaving inner SCF loop after reaching    20 steps.


  Electronic density on regular grids:        -62.8928769671       33.1071230329
  Core density on regular grids:               96.0000000000        0.0000000000
  Hard and soft densities (Lebedev):         -191.4434652032     -158.3363546786
  Total Rho_soft + Rho1_hard - Rho1_soft      -95.9999874917
  Total charge density (r-space):               0.0000125083
  Total Rho_soft + Rho0_soft (g-space):         0.0000118863

  Overlap energy of the core charge distribution:               0.00003391092760
  Self energy of the core charge distribution:              -1039.82566545443683
  Core Hamiltonian energy:                                   -829.32506622014284
  Hartree energy:                                             163.77193738587951
  Exchange-correlation energy:                                -34.68694892321270

  GAPW| Exc from hard and soft atomic rho1:                   -89.77336580511221
  GAPW| local Eh = 1 center integrals:                          1.32260548960769

  Total energy:                                             -1828.51646961648976

  outer SCF iter =    1 RMS gradient =   0.10E-02 energy =      -1828.5164696165

  ----------------------------------- OT ---------------------------------------
  Minimizer      : DIIS                : direct inversion
                                         in the iterative subspace
                                         using   7 DIIS vectors
                                         safer DIIS on
  Preconditioner : FULL_ALL            : diagonalization, state selective
  Precond_solver : DEFAULT
  stepsize       :    0.10000000                  energy_gap     :    0.08000000
  eps_taylor     :   0.10000E-15                  max_taylor     :             4
  ----------------------------------- OT ---------------------------------------

  Step     Update method      Time    Convergence         Total energy    Change
  ------------------------------------------------------------------------------
     1 OT DIIS     0.10E+00   11.2     0.01057132     -1828.5295524658 -1.31E-02
     2 OT DIIS     0.10E+00    5.5     0.00946840     -1829.1677110900 -6.38E-01
     3 OT DIIS     0.10E+00    5.5     0.00892773     -1829.5085167252 -3.41E-01
     4 OT DIIS     0.10E+00    5.5     0.00723282     -1829.7879877277 -2.79E-01
     5 OT DIIS     0.10E+00    5.5     0.00291084     -1829.9144963436 -1.27E-01
     6 OT DIIS     0.10E+00    5.5     0.00190362     -1829.9654877139 -5.10E-02
     7 OT DIIS     0.10E+00    5.5     0.00124662     -1829.9800775467 -1.46E-02
     8 OT DIIS     0.10E+00    5.5     0.00161898     -1829.9849855717 -4.91E-03
     9 OT DIIS     0.10E+00    5.5     0.00068740     -1829.9928603659 -7.87E-03
    10 OT DIIS     0.10E+00    5.4     0.00030656     -1829.9952392177 -2.38E-03
    11 OT DIIS     0.10E+00    5.4     0.00016158     -1829.9961775767 -9.38E-04
    12 OT DIIS     0.10E+00    5.4     0.00009610     -1829.9965075178 -3.30E-04
    13 OT DIIS     0.10E+00    5.5     0.00006297     -1829.9966112711 -1.04E-04
    14 OT DIIS     0.10E+00    5.5     0.00003835     -1829.9966737238 -6.25E-05
    15 OT DIIS     0.10E+00    5.4     0.00003129     -1829.9966917154 -1.80E-05
    16 OT DIIS     0.10E+00    5.5     0.00001628     -1829.9967016595 -9.94E-06
    17 OT DIIS     0.10E+00    5.5     0.00000936     -1829.9967055746 -3.92E-06
    18 OT DIIS     0.10E+00    5.4     0.00000501     -1829.9967070649 -1.49E-06
    19 OT DIIS     0.10E+00    5.5     0.00000329     -1829.9967074088 -3.44E-07
    20 OT DIIS     0.10E+00    5.5     0.00000212     -1829.9967075482 -1.39E-07

  Leaving inner SCF loop after reaching    20 steps.


  Electronic density on regular grids:        -62.9453246844       33.0546753156
  Core density on regular grids:               96.0000000000        0.0000000000
  Hard and soft densities (Lebedev):         -192.0756014938     -159.0209394778
  Total Rho_soft + Rho1_hard - Rho1_soft      -95.9999867004
  Total charge density (r-space):               0.0000132996
  Total Rho_soft + Rho0_soft (g-space):         0.0000126771

  Overlap energy of the core charge distribution:               0.00003391092760
  Self energy of the core charge distribution:              -1039.82566545443683
  Core Hamiltonian energy:                                   -831.15942434033514
  Hartree energy:                                             164.32193171779926
  Exchange-correlation energy:                                -34.76155792341881

  GAPW| Exc from hard and soft atomic rho1:                   -89.68200482169992
  GAPW| local Eh = 1 center integrals:                          1.10997936298967

  Total energy:                                             -1829.99670754817407

  outer SCF iter =    2 RMS gradient =   0.21E-05 energy =      -1829.9967075482

  ----------------------------------- OT ---------------------------------------
  Minimizer      : DIIS                : direct inversion
                                         in the iterative subspace
                                         using   7 DIIS vectors
                                         safer DIIS on
  Preconditioner : FULL_ALL            : diagonalization, state selective
  Precond_solver : DEFAULT
  stepsize       :    0.10000000                  energy_gap     :    0.08000000
  eps_taylor     :   0.10000E-15                  max_taylor     :             4
  ----------------------------------- OT ---------------------------------------

  Step     Update method      Time    Convergence         Total energy    Change
  ------------------------------------------------------------------------------
     1 OT DIIS     0.10E+00   11.2     0.00000133     -1829.9967076103 -6.22E-08
     2 OT DIIS     0.10E+00    5.4     0.00000111     -1829.9967076213 -1.10E-08
     3 OT DIIS     0.10E+00    5.4     0.00000111     -1829.9967076583 -3.70E-08
     4 OT DIIS     0.10E+00    5.4     0.00000029     -1829.9967077025 -4.42E-08

  *** SCF run converged in     4 steps ***


  Electronic density on regular grids:        -62.9453089284       33.0546910716
  Core density on regular grids:               96.0000000000        0.0000000000
  Hard and soft densities (Lebedev):         -192.0757008645     -159.0210230927
  Total Rho_soft + Rho1_hard - Rho1_soft      -95.9999867001
  Total charge density (r-space):               0.0000132999
  Total Rho_soft + Rho0_soft (g-space):         0.0000126775

  Overlap energy of the core charge distribution:               0.00003391092760
  Self energy of the core charge distribution:              -1039.82566545443683
  Core Hamiltonian energy:                                   -831.15944418970162
  Hartree energy:                                             164.32185575052000
  Exchange-correlation energy:                                -34.76152631390731

  GAPW| Exc from hard and soft atomic rho1:                   -89.68203282732406
  GAPW| local Eh = 1 center integrals:                          1.11007142137753

  Total energy:                                             -1829.99670770254465

  outer SCF iter =    3 RMS gradient =   0.29E-06 energy =      -1829.9967077025
  outer SCF loop converged in   3 iterations or   44 steps


  Integrated absolute spin density  :                               0.0004388530
  Ideal and single determinant S**2 :                    0.000000       0.000000

 ENERGY| Total FORCE_EVAL ( QS ) energy [a.u.]:            -1829.996707702544654

 -------------------------------------------------------------------------------
 -                                                                             -
 -                                DBCSR STATISTICS                             -
 -                                                                             -
 -------------------------------------------------------------------------------
 COUNTER                                    TOTAL       BLAS       SMM       ACC
 flops   100 x    16 x    16               307200       0.0%    100.0%      0.0%
 flops   100 x    32 x    32              1228800       0.0%    100.0%      0.0%
 flops    57 x    16 x    16              1751040       0.0%    100.0%      0.0%
 flops    16 x    16 x    16              5767168       0.0%    100.0%      0.0%
 flops    57 x    32 x    32              7004160       0.0%    100.0%      0.0%
 flops    16 x    16 x    32             11534336       0.0%    100.0%      0.0%
 flops    16 x    32 x    16             11534336       0.0%    100.0%      0.0%
 flops    32 x    16 x    16             11534336       0.0%    100.0%      0.0%
 flops    16 x    16 x   100             18329600       0.0%    100.0%      0.0%
 flops    32 x    32 x    16             23068672       0.0%    100.0%      0.0%
 flops    16 x    32 x    32             23068672       0.0%    100.0%      0.0%
 flops    32 x    16 x    32             23068672       0.0%    100.0%      0.0%
 flops   114 x    16 x    16             25681920       0.0%    100.0%      0.0%
 flops   100 x   100 x    16             28800000       0.0%    100.0%      0.0%
 flops    16 x    32 x   100             36659200       0.0%    100.0%      0.0%
 flops    32 x    16 x   100             36659200       0.0%    100.0%      0.0%
 flops    32 x    32 x    32             46137344       0.0%    100.0%      0.0%
 flops   214 x    16 x    16             48209920       0.0%    100.0%      0.0%
 flops   114 x    16 x    32             51363840       0.0%    100.0%      0.0%
 flops   114 x    32 x    16             51363840       0.0%    100.0%      0.0%
 flops   100 x   100 x    32             57600000       0.0%    100.0%      0.0%
 flops   114 x    16 x   100             68582400       0.0%    100.0%      0.0%
 flops   100 x    16 x   100             69440000       0.0%    100.0%      0.0%
 flops    32 x    32 x   100             73318400       0.0%    100.0%      0.0%
 flops   171 x    16 x    16             77045760       0.0%    100.0%      0.0%
 flops    57 x   100 x    16             82080000       0.0%    100.0%      0.0%
 flops   100 x    57 x    16             82080000       0.0%    100.0%      0.0%
 flops   214 x    32 x    16             96419840       0.0%    100.0%      0.0%
 flops   214 x    16 x    32             96419840       0.0%    100.0%      0.0%
 flops   114 x    32 x    32            102727680       0.0%    100.0%      0.0%
 flops    16 x    16 x    57            104478720       0.0%    100.0%      0.0%
 flops   214 x    16 x   100            128742400       0.0%    100.0%      0.0%
 flops   114 x    32 x   100            137164800       0.0%    100.0%      0.0%
 flops   100 x    32 x   100            138880000       0.0%    100.0%      0.0%
 flops   171 x    16 x    32            154091520       0.0%    100.0%      0.0%
 flops   171 x    32 x    16            154091520       0.0%    100.0%      0.0%
 flops    57 x   100 x    32            164160000       0.0%    100.0%      0.0%
 flops   100 x    57 x    32            164160000       0.0%    100.0%      0.0%
 flops   214 x    32 x    32            192839680       0.0%    100.0%      0.0%
 flops   171 x    16 x   100            205747200       0.0%    100.0%      0.0%
 flops    16 x    32 x    57            208957440       0.0%    100.0%      0.0%
 flops    32 x    16 x    57            208957440       0.0%    100.0%      0.0%
 flops   214 x    32 x   100            257484800       0.0%    100.0%      0.0%
 flops   171 x    32 x    32            308183040       0.0%    100.0%      0.0%
 flops   114 x    16 x    57            390919680       0.0%    100.0%      0.0%
 flops    57 x    16 x   100            395808000       0.0%    100.0%      0.0%
 flops   100 x    16 x    57            395808000       0.0%    100.0%      0.0%
 flops   171 x    32 x   100            411494400       0.0%    100.0%      0.0%
 flops    32 x    32 x    57            417914880       0.0%    100.0%      0.0%
 flops    57 x    57 x    16            514641600       0.0%    100.0%      0.0%
 flops   214 x    16 x    57            733831680       0.0%    100.0%      0.0%
 flops   114 x    32 x    57            781839360       0.0%    100.0%      0.0%
 flops    57 x    32 x   100            791616000       0.0%    100.0%      0.0%
 flops   100 x    32 x    57            791616000       0.0%    100.0%      0.0%
 flops    57 x    57 x    32           1029283200       0.0%    100.0%      0.0%
 flops   171 x    16 x    57           1172759040       0.0%    100.0%      0.0%
 flops   214 x    32 x    57           1467663360       0.0%    100.0%      0.0%
 flops    57 x    16 x    57           2256105600       0.0%    100.0%      0.0%
 flops   171 x    32 x    57           2345518080       0.0%    100.0%      0.0%
 flops    57 x    32 x    57           4512211200       0.0%    100.0%      0.0%
 flops inhomo. stacks                           0       0.0%      0.0%      0.0%
 flops total                        22.205755E+09       0.0%    100.0%      0.0%
 flops max/rank                      4.704386E+09       0.0%    100.0%      0.0%
 matmuls inhomo. stacks                         0       0.0%      0.0%      0.0%
 matmuls total                             109494       0.0%    100.0%      0.0%
 number of processed stacks                 77178       0.0%    100.0%      0.0%
 average stack size                                     0.0       1.4       0.0
 marketing flops                    23.988064E+09
 -------------------------------------------------------------------------------
 # multiplications                           2009
 max memory usage/rank             673.722368E+06
 # max total images/rank                        3
 # max 3D layers                                1
 # MPI messages exchanged                 1928640
 MPI messages size (bytes):
  total size                        19.394261E+09
  min size                           0.000000E+00
  max size                         171.200000E+03
  average size                      10.055926E+03
 MPI breakdown and total messages size (bytes):
             size <=      128             1497778                        0
       128 < size <=     8192              109710                680201472
      8192 < size <=    32768              107444               1875236864
     32768 < size <=   131072              200343              14856425056
    131072 < size <=  4194304               13365               1981584000
   4194304 < size <= 16777216                   0                        0
  16777216 < size                               0                        0
 -------------------------------------------------------------------------------

 *** WARNING in dbcsr_mm.F:290 :: Using a non-square number of MPI ranks ***
 *** might lead to poor performance. Used ranks: 48 Suggested: 49 100    ***

 -------------------------------------------------------------------------------
 -                                                                             -
 -                      DBCSR MESSAGE PASSING PERFORMANCE                      -
 -                                                                             -
 -------------------------------------------------------------------------------
 ROUTINE             CALLS      AVE VOLUME [Bytes]
 MP_Bcast               61                     12.
 MP_Allreduce        10770                      8.
 MP_Alltoall          7557                   8275.
 MP_ISend            90974                   7541.
 MP_IRecv            89834                   6500.
 -------------------------------------------------------------------------------

 -------------------------------------------------------------------------------
 -                                                                             -
 -                                GRID STATISTICS                              -
 -                                                                             -
 -------------------------------------------------------------------------------
 LP    KERNEL             BACKEND                              COUNT     PERCENT
 2     collocate ortho    REF                                 288720      11.09%
 2     integrate ortho    REF                                 282304      10.85%
 3     collocate ortho    REF                                 265320      10.19%
 3     integrate ortho    REF                                 259424       9.97%
 1     collocate ortho    REF                                 229680       8.82%
 1     integrate ortho    REF                                 224576       8.63%
 4     collocate ortho    REF                                 210690       8.09%
 4     integrate ortho    REF                                 206008       7.91%
 5     collocate ortho    REF                                 123840       4.76%
 5     integrate ortho    REF                                 121088       4.65%
 0     collocate ortho    REF                                  89910       3.45%
 0     integrate ortho    REF                                  87912       3.38%
 6     collocate ortho    REF                                  55710       2.14%
 6     integrate ortho    REF                                  54472       2.09%
 2     collocate general  REF                                  23232       0.89%
 2     integrate general  REF                                  23232       0.89%
 7     collocate ortho    REF                                  22770       0.87%
 7     integrate ortho    REF                                  22264       0.86%
 8     collocate ortho    REF                                   6030       0.23%
 8     integrate ortho    REF                                   5896       0.23%
 -------------------------------------------------------------------------------

 MEMORY| Estimated peak process memory [MiB]                                 643

 -------------------------------------------------------------------------------
 -                                                                             -
 -                         MESSAGE PASSING PERFORMANCE                         -
 -                                                                             -
 -------------------------------------------------------------------------------

 ROUTINE             CALLS      AVE VOLUME [Bytes]
 MP_Group                4
 MP_Bcast             5546                  69389.
 MP_Allreduce        12295                 127827.
 MP_Sync               200
 MP_Alltoall          1877                8702958.
 MP_ISendRecv        16732                  53640.
 MP_Wait             28276
 MP_comm_split          98
 MP_ISend             9768                 533306.
 MP_IRecv             9768                 533344.
 MP_Recv                66                  21440.
 -------------------------------------------------------------------------------


 -------------------------------------------------------------------------------
 -                                                                             -
 -                           R E F E R E N C E S                               -
 -                                                                             -
 -------------------------------------------------------------------------------
 
 CP2K version 10.0 (Development Version), the CP2K developers group (2022).
 CP2K is freely available from https://www.cp2k.org/ .

 Kuehne,Thomas D.; Iannuzzi,Marcella; Del Ben,Mauro;
 Rybkin,Vladimir V.; Seewald,Patrick; Stein,Frederick; Laino,Teodoro;
 Khaliullin,Rustam Z.; Schuett,Ole; Schiffmann,Florian; Golze,Dorothea;
 Wilhelm,Jan; Chulkov,Sergey; Bani-Hashemian,Mohammad Hossein;
 Weber,Valery; Borstnik,Urban; Taillefumier,Mathieu;
 Jakobovits,Alice Shoshana; Lazzaro,Alfio; Pabst,Hans; Mueller,Tiziano;
 Schade,Robert; Guidon,Manuel; Andermatt,Samuel; Holmberg,Nico;
 Schenter,Gregory K.; Hehn,Anna; Bussy,Augustin; Belleflamme,Fabian;
 Tabacchi,Gloria; Gloess,Andreas; Lass,Michael; Bethune,Iain;
 Mundy,Christopher J.; Plessl,Christian; Watkins,Matt;
 VandeVondele,Joost; Krack,Matthias; Hutter,Juerg. 
 The Journal of Chemical Physics, 152 (19), (2020). 
 CP2K: An electronic structure and molecular dynamics software package -
 Quickstep: Efficient and accurate electronic structure calculations.
 https://doi.org/10.1063/5.0007045

 Schuett, Ole; Messmer, Peter; Hutter, Juerg; VandeVondele, Joost. 
 Electronic Structure Calculations on Graphics Processing Units, John
 Wiley & Sons, Ltd, 173-190 (2016). 
 GPU-Accelerated Sparse Matrix-Matrix Multiplication for
 Linear Scaling Density Functional Theory.
 https://doi.org/10.1002/9781118670712.ch8

 Heinecke, A; Henry, G; Hutchinson, M; Pabst, H. 
 Proceedings of Intl. Supercomputing Conference, 981-991 (2016). 
 LIBXSMM: Accelerating Small Matrix Multiplications
 by Runtime Code Generation.
 https://doi.org/10.1109/SC.2016.83

 Borstnik, U; VandeVondele, J; Weber, V; Hutter, J. 
 PARALLEL COMPUTING, 40 (5-6), 47-58 (2014). 
 Sparse matrix multiplication: The distributed block-compressed sparse
 row library.
 https://doi.org/10.1016/j.parco.2014.03.012

 Hutter, J; Iannuzzi, M; Schiffmann, F; VandeVondele, J. 
 WIREs Comput Mol Sci., 4 (1), 15-25 (2014). 
 CP2K: atomistic simulations of condensed matter systems.
 https://doi.org/10.1002/wcms.1159

 Frigo, M; Johnson, SG. 
 PROCEEDINGS OF THE IEEE, 93 (2), 216-231 (2005). 
 The design and implementation of FFTW3.
 https://doi.org/10.1109/JPROC.2004.840301

 VandeVondele, J; Hutter, J. 
 JOURNAL OF CHEMICAL PHYSICS, 118 (10), 4365-4369 (2003). 
 An efficient orbital transformation method for electronic structure
 calculations.
 https://doi.org/10.1063/1.1543154

 Lippert, G; Hutter, J; Parrinello, M. 
 THEORETICAL CHEMISTRY ACCOUNTS, 103 (2), 124-140 (1999). 
 The Gaussian and augmented-plane-wave density functional method for ab
 initio molecular dynamics simulations.
 https://doi.org/10.1007/s002140050523

 Krack, M; Parrinello, M. 
 PHYSICAL CHEMISTRY CHEMICAL PHYSICS, 2 (10), 2105-2112 (2000). 
 All-electron ab-initio molecular dynamics.
 https://doi.org/10.1039/b001167n

 Perdew, JP; Burke, K; Ernzerhof, M. 
 PHYSICAL REVIEW LETTERS, 77 (18), 3865-3868 (1996). 
 Generalized gradient approximation made simple.
 https://doi.org/10.1103/PhysRevLett.77.3865


 -------------------------------------------------------------------------------
 -                                                                             -
 -                                T I M I N G                                  -
 -                                                                             -
 -------------------------------------------------------------------------------
 SUBROUTINE                       CALLS  ASD         SELF TIME        TOTAL TIME
                                MAXIMUM       AVERAGE  MAXIMUM  AVERAGE  MAXIMUM
 CP2K                                 1  1.0    0.013    0.035  243.025  243.061
 qs_energies                          1  2.0    0.000    0.000  242.580  242.615
 scf_env_do_scf                       1  3.0    0.000    0.000  241.252  241.287
 scf_env_do_scf_inner_loop           44  4.0    0.001    0.004  226.443  226.476
 qs_ks_update_qs_env                 47  5.0    0.001    0.001  204.707  204.744
 rebuild_ks_matrix                   44  6.0    0.000    0.000  204.696  204.732
 qs_ks_build_kohn_sham_matrix        44  7.0    0.011    0.014  204.696  204.732
 mp_sum_d                          3776  9.9   82.406   85.411   82.406   85.411
 calculate_vxc_atom                  44  8.0    0.339    4.462   80.564   80.577
 gaVxcgb_GC                         132  9.0    1.951   74.472    1.951   74.472
 prepare_gapw_den                    44  8.0    0.003    0.004   45.113   45.211
 pw_transfer                       1638 10.3    0.215    0.248   35.179   37.798
 fft_wrap_pw1pw2                   1506 11.3    0.025    0.029   34.741   37.367
 fft_wrap_pw1pw2_300                972 12.8    2.470    2.785   33.450   36.276
 calculate_rho_atom                 132  9.0    7.279   36.274    7.279   36.275
 rs_pw_transfer                     800  9.5    0.022    0.027   32.366   34.034
 sum_up_and_integrate                44  8.0    0.081    0.100   33.958   33.969
 integrate_v_rspace                  88  9.0    0.003    0.004   33.877   33.897
 qs_rho_update_rho                   45  5.0    0.001    0.001   33.094   33.100
 calculate_rho_elec                  90  6.0    0.094    0.101   31.506   31.510
 density_rs2pw                       90  7.0    0.006    0.006   27.590   29.377
 qs_vxc_create                       44  8.0    0.001    0.001   29.243   29.247
 xc_vxc_pw_create                    44  9.0    0.341    0.435   29.242   29.246
 fft3d_ps                          1506 13.3   13.606   17.212   25.734   28.296
 xc_pw_derive                       528 11.0    0.008    0.009   21.285   24.414
 grid_integrate_task_list            88 10.0    1.844   22.944    1.844   22.944
 mp_alltoall_d11v                  1831 11.9   21.244   22.912   21.244   22.912
 rs_gather_matrices                  88 10.0    0.005    0.018   21.129   22.795
 rs_pw_transfer_RS2PW_300           134  9.7    3.171    3.741   20.553   22.338
 mp_waitany                        9768 11.5   19.732   21.724   19.732   21.724
 mp_sum_dv                         6598 13.2   16.093   20.900   16.093   20.900
 grid_collocate_task_list            90  7.0    3.283   20.263    3.283   20.263
 calculate_rho0_atom                132  9.0   17.856   19.559   17.856   19.559
 xc_pw_divergence                    88 10.0    0.005    0.005   14.584   17.397
 xc_rho_set_and_dset_create          44 10.0    0.336    0.442   13.729   15.520
 init_scf_loop                        3  4.0    0.000    0.000   14.807   14.809
 mp_alltoall_z22v                  1506 15.3    8.409   12.431    8.409   12.431
 potential_pw2rs                     88 10.0    0.009    0.010   10.901   10.923
 yz_to_x                            666 14.1    1.782    2.225    7.098   10.150
 integrate_vhg0_rspace               44  8.0    1.304    2.357    9.019    9.066
 mp_sum_dm                         2464  7.4    6.541    6.920    6.541    6.920
 rs_pw_transfer_PW2RS_300           132 11.3    4.118    4.240    6.275    6.455
 x_to_yz                            662 14.8    1.803    2.065    4.876    5.938
 xc_functional_eval                 308 10.7    0.001    0.002    3.225    5.617
 pbe_lsd_eval                       308 11.7    3.224    5.615    3.224    5.615
 -------------------------------------------------------------------------------

 The number of warnings for this run is : 1
 
 -------------------------------------------------------------------------------
  **** **** ******  **  PROGRAM ENDED AT                 2022-05-14 11:32:59.870
 ***** ** ***  *** **   PROGRAM RAN ON                                   tcopt10
 **    ****   ******    PROGRAM RAN BY                                    hutter
 ***** **    ** ** **   PROGRAM PROCESS ID                                 10333
  **** **  *******  **  PROGRAM STOPPED IN /data/hutter/GITHUB/BASIS/scMOLOPT/PB
                                           E/Fe
