 DBCSR| CPU Multiplication driver                                           XSMM
 DBCSR| Multrec recursion limit                                              512
 DBCSR| Multiplication stack size                                           1000
 DBCSR| Maximum elements for images                                    UNLIMITED
 DBCSR| Multiplicative factor virtual images                                   1
 DBCSR| Use multiplication densification                                       T
 DBCSR| Multiplication size stacks                                             3
 DBCSR| Use memory pool for CPU allocation                                     F
 DBCSR| Number of 3D layers                                               SINGLE
 DBCSR| Use MPI memory allocation                                              F
 DBCSR| Use RMA algorithm                                                      F
 DBCSR| Use Communication thread                                               T
 DBCSR| Communication thread load                                             87
 DBCSR| MPI: My node id                                                        0
 DBCSR| MPI: Number of nodes                                                  48
 DBCSR| OMP: Current number of threads                                         1
 DBCSR| OMP: Max number of threads                                             1
 DBCSR| Split modifier for TAS multiplication algorithm                  1.0E+00


  **** **** ******  **  PROGRAM STARTED AT               2022-05-14 11:41:38.064
 ***** ** ***  *** **   PROGRAM STARTED ON                               tcopt10
 **    ****   ******    PROGRAM STARTED BY                                hutter
 ***** **    ** ** **   PROGRAM PROCESS ID                                 11778
  **** **  *******  **  PROGRAM STARTED IN /data/hutter/GITHUB/BASIS/scMOLOPT/PB
                                           E/Fe

 CP2K| version string:                   CP2K version 10.0 (Development Version)
 CP2K| source code revision number:                                  git:13fcfd8
 CP2K| cp2kflags: omp libint fftw3 libxc elpa parallel mpi3 scalapack cosma xsmm
 CP2K|             spglib sirius libvori libbqb
 CP2K| is freely available from                            https://www.cp2k.org/
 CP2K| Program compiled at                      Tue 10 May 2022 02:27:21 PM CEST
 CP2K| Program compiled on                                               tcopt10
 CP2K| Program compiled for                                                local
 CP2K| Data directory path                   /data/hutter/GITHUB/TDLRI/cp2k/data
 CP2K| Input file name                                              FeF2-ref.inp

 GLOBAL| Force Environment number                                              1
 GLOBAL| Basis set file name                                        ../def2QZVPP
 GLOBAL| Potential file name                                        ../POTENTIAL
 GLOBAL| MM Potential file name                                     MM_POTENTIAL
 GLOBAL| Coordinate file name                                      __STD_INPUT__
 GLOBAL| Method name                                                        CP2K
 GLOBAL| Project name                                                    refFeF2
 GLOBAL| Run type                                                         ENERGY
 GLOBAL| FFT library                                                       FFTW3
 GLOBAL| Diagonalization library                                       ScaLAPACK
 GLOBAL| Orthonormality check for eigenvectors                          DISABLED
 GLOBAL| Matrix multiplication library                                     COSMA
 GLOBAL| All-to-all communication in single precision                          F
 GLOBAL| FFTs using library dependent lengths                                  F
 GLOBAL| Grid backend                                                       AUTO
 GLOBAL| Global print level                                                  LOW
 GLOBAL| MPI I/O enabled                                                       T
 GLOBAL| Total number of message passing processes                            48
 GLOBAL| Number of threads for this process                                    1
 GLOBAL| This output is from process                                           0
 GLOBAL| Stack size for threads created by OpenMP (OMP_STACKSIZE)        default
 GLOBAL| CPU model name                          AMD EPYC 7401 24-Core Processor
 GLOBAL| CPUID                                                              1002

 MEMORY| system memory details [Kb]
 MEMORY|                        rank 0           min           max       average
 MEMORY| MemTotal            263969136     263969136     263969136     263969136
 MEMORY| MemFree             237801820     237801820     237801820     237801820
 MEMORY| Buffers                   136           136           136           136
 MEMORY| Cached               18984240      18984240      18984240      18984240
 MEMORY| Slab                  1430896       1430896       1430896       1430896
 MEMORY| SReclaimable           873528        873528        873528        873528
 MEMORY| MemLikelyFree       257659724     257659724     257659724     257659724


 GENERATE|  Preliminary Number of Bonds generated:                             0
 GENERATE|  Achieved consistency in connectivity generation.

 *******************************************************************************
 *******************************************************************************
 **                                                                           **
 **     #####                         ##              ##                      **
 **    ##   ##            ##          ##              ##                      **
 **   ##     ##                       ##            ######                    **
 **   ##     ##  ##   ##  ##   #####  ##  ##   ####   ##    #####    #####    **
 **   ##     ##  ##   ##  ##  ##      ## ##   ##      ##   ##   ##  ##   ##   **
 **   ##  ## ##  ##   ##  ##  ##      ####     ###    ##   ######   ######    **
 **    ##  ###   ##   ##  ##  ##      ## ##      ##   ##   ##       ##        **
 **     #######   #####   ##   #####  ##  ##  ####    ##    #####   ##        **
 **           ##                                                    ##        **
 **                                                                           **
 **                                                ... make the atoms dance   **
 **                                                                           **
 **            Copyright (C) by CP2K developers group (2000-2022)             **
 **                      J. Chem. Phys. 152, 194103 (2020)                    **
 **                                                                           **
 *******************************************************************************


 TOTAL NUMBERS AND MAXIMUM NUMBERS

  Total number of            - Atomic kinds:                                   2
                             - Atoms:                                          3
                             - Shell sets:                                    62
                             - Shells:                                        62
                             - Primitive Cartesian functions:                116
                             - Cartesian basis functions:                    273
                             - Spherical basis functions:                    214

  Maximum angular momentum of the orbital basis functions:                     4


 SCF PARAMETERS         Density guess:                                   RESTART
                        --------------------------------------------------------
                        max_scf:                                              30
                        max_scf_history:                                       0
                        max_diis:                                              4
                        --------------------------------------------------------
                        eps_scf:                                        5.00E-07
                        eps_scf_history:                                0.00E+00
                        eps_diis:                                       1.00E-01
                        eps_eigval:                                     1.00E-05
                        --------------------------------------------------------
                        level_shift [a.u.]:                             0.000000
                        --------------------------------------------------------
                        Outer loop SCF in use 
                        No variables optimised in outer loop
                        eps_scf                                         5.00E-07
                        max_scf                                                1
                        No outer loop optimization
                        step_size                                       5.00E-01

 Spin 1

 Number of electrons:                                                         24
 Number of occupied orbitals:                                                 24
 Number of molecular orbitals:                                                24

 Spin 2

 Number of electrons:                                                         20
 Number of occupied orbitals:                                                 20
 Number of molecular orbitals:                                                20

 Number of orbital functions:                                                214
 Number of independent orbital functions:                                    214

 Extrapolation method: initial_guess


 SCF WAVEFUNCTION OPTIMIZATION

  ----------------------------------- OT ---------------------------------------
  Minimizer      : DIIS                : direct inversion
                                         in the iterative subspace
                                         using   7 DIIS vectors
                                         safer DIIS on
  Preconditioner : FULL_ALL            : diagonalization, state selective
  Precond_solver : DEFAULT
  stepsize       :    0.10000000                  energy_gap     :    0.08000000
  eps_taylor     :   0.10000E-15                  max_taylor     :             4
  ----------------------------------- OT ---------------------------------------

  Step     Update method      Time    Convergence         Total energy    Change
  ------------------------------------------------------------------------------
     1 OT DIIS     0.10E+00    4.0     0.00001226     -1463.2090592072 -1.46E+03
     2 OT DIIS     0.10E+00    4.3     0.00000812     -1463.2090593182 -1.11E-07
     3 OT DIIS     0.10E+00    4.3     0.00000548     -1463.2090593940 -7.59E-08
     4 OT DIIS     0.10E+00    4.3     0.00000135     -1463.2090594591 -6.51E-08
     5 OT DIIS     0.10E+00    4.3     0.00000058     -1463.2090594626 -3.44E-09
     6 OT DIIS     0.10E+00    4.3     0.00000025     -1463.2090594633 -6.69E-10

  *** SCF run converged in     6 steps ***


  Electronic density on regular grids:        -26.8266227912       17.1733772088
  Core density on regular grids:               44.0000000000        0.0000000000
  Hard and soft densities (Lebedev):          -54.7535946036      -37.5802159752
  Total Rho_soft + Rho1_hard - Rho1_soft      -44.0000014195
  Total charge density (r-space):              -0.0000014195
  Total Rho_soft + Rho0_soft (g-space):        -0.0000017082

  Overlap energy of the core charge distribution:               0.00000000000066
  Self energy of the core charge distribution:               -738.83811058943434
  Core Hamiltonian energy:                                   -770.32520925719007
  Hartree energy:                                              88.81344748751329
  Exchange-correlation energy:                                -18.24435601653145

  GAPW| Exc from hard and soft atomic rho1:                   -57.93410444979381
  GAPW| local Eh = 1 center integrals:                         33.31927336218181

  Total energy:                                             -1463.20905946325388

  outer SCF iter =    1 RMS gradient =   0.25E-06 energy =      -1463.2090594633
  outer SCF loop converged in   1 iterations or    6 steps


  Integrated absolute spin density  :                               2.7341690561
  Ideal and single determinant S**2 :                    6.000000       6.006513

 ENERGY| Total FORCE_EVAL ( QS ) energy [a.u.]:            -1463.209059463253880

 -------------------------------------------------------------------------------
 -                                                                             -
 -                                DBCSR STATISTICS                             -
 -                                                                             -
 -------------------------------------------------------------------------------
 COUNTER                                    TOTAL       BLAS       SMM       ACC
 flops    20 x    20 x    20                96000       0.0%    100.0%      0.0%
 flops    24 x    24 x    24               165888       0.0%    100.0%      0.0%
 flops    57 x    20 x    20              1413600       0.0%    100.0%      0.0%
 flops    57 x   100 x    20              1596000       0.0%    100.0%      0.0%
 flops   100 x    57 x    20              1596000       0.0%    100.0%      0.0%
 flops    57 x   100 x    24              1915200       0.0%    100.0%      0.0%
 flops   100 x    57 x    24              1915200       0.0%    100.0%      0.0%
 flops    20 x    20 x   100              2000000       0.0%    100.0%      0.0%
 flops    57 x    24 x    24              2035584       0.0%    100.0%      0.0%
 flops    20 x    20 x    57              2280000       0.0%    100.0%      0.0%
 flops    57 x    57 x    20              2729160       0.0%    100.0%      0.0%
 flops   100 x   100 x    20              2800000       0.0%    100.0%      0.0%
 flops    24 x    24 x   100              2880000       0.0%    100.0%      0.0%
 flops    57 x    57 x    24              3274992       0.0%    100.0%      0.0%
 flops    24 x    24 x    57              3283200       0.0%    100.0%      0.0%
 flops   100 x   100 x    24              3360000       0.0%    100.0%      0.0%
 flops   157 x    20 x    20              3893600       0.0%    100.0%      0.0%
 flops   157 x    24 x    24              5606784       0.0%    100.0%      0.0%
 flops   100 x    20 x   100              7600000       0.0%    100.0%      0.0%
 flops   100 x    24 x   100              8640000       0.0%    100.0%      0.0%
 flops   100 x    20 x    57              8664000       0.0%    100.0%      0.0%
 flops   157 x    20 x   100              8792000       0.0%    100.0%      0.0%
 flops   100 x    24 x    57              9849600       0.0%    100.0%      0.0%
 flops   157 x    20 x    57             10022880       0.0%    100.0%      0.0%
 flops   157 x    24 x   100             10550400       0.0%    100.0%      0.0%
 flops    57 x    20 x   100             11856000       0.0%    100.0%      0.0%
 flops   157 x    24 x    57             12027456       0.0%    100.0%      0.0%
 flops    57 x    20 x    57             13515840       0.0%    100.0%      0.0%
 flops    57 x    24 x   100             13680000       0.0%    100.0%      0.0%
 flops    57 x    24 x    57             15595200       0.0%    100.0%      0.0%
 flops inhomo. stacks                           0       0.0%      0.0%      0.0%
 flops total                       173.634584E+06       0.0%    100.0%      0.0%
 flops max/rank                    122.321360E+06       0.0%    100.0%      0.0%
 matmuls inhomo. stacks                         0       0.0%      0.0%      0.0%
 matmuls total                                871       0.0%    100.0%      0.0%
 number of processed stacks                   871       0.0%    100.0%      0.0%
 average stack size                                     0.0       1.0       0.0
 marketing flops                   183.076112E+06
 -------------------------------------------------------------------------------
 # multiplications                            205
 max memory usage/rank             641.556480E+06
 # max total images/rank                        3
 # max 3D layers                                1
 # MPI messages exchanged                  196800
 MPI messages size (bytes):
  total size                       330.103136E+06
  min size                           0.000000E+00
  max size                         125.600000E+03
  average size                       1.677353E+03
 MPI breakdown and total messages size (bytes):
             size <=      128              187673                        0
       128 < size <=     8192                 354                  1382016
      8192 < size <=    32768                5913                103936560
     32768 < size <=   131072                2860                224784560
    131072 < size <=  4194304                   0                        0
   4194304 < size <= 16777216                   0                        0
  16777216 < size                               0                        0
 -------------------------------------------------------------------------------

 *** WARNING in dbcsr_mm.F:290 :: Using a non-square number of MPI ranks ***
 *** might lead to poor performance. Used ranks: 48 Suggested: 49 100    ***

 -------------------------------------------------------------------------------
 -                                                                             -
 -                      DBCSR MESSAGE PASSING PERFORMANCE                      -
 -                                                                             -
 -------------------------------------------------------------------------------
 ROUTINE             CALLS      AVE VOLUME [Bytes]
 MP_Bcast               31                     12.
 MP_Allreduce         1142                      9.
 MP_Alltoall          1049                   9338.
 MP_ISend             9168                   3075.
 MP_IRecv             9114                   1572.
 -------------------------------------------------------------------------------

 -------------------------------------------------------------------------------
 -                                                                             -
 -                                GRID STATISTICS                              -
 -                                                                             -
 -------------------------------------------------------------------------------
 LP    KERNEL             BACKEND                              COUNT     PERCENT
 2     collocate ortho    REF                                   5670      11.34%
 3     collocate ortho    REF                                   5320      10.64%
 1     collocate ortho    REF                                   4872       9.74%
 2     integrate ortho    REF                                   4860       9.72%
 3     integrate ortho    REF                                   4560       9.12%
 1     integrate ortho    REF                                   4176       8.35%
 4     collocate ortho    REF                                   3948       7.89%
 4     integrate ortho    REF                                   3384       6.77%
 5     collocate ortho    REF                                   2408       4.82%
 5     integrate ortho    REF                                   2064       4.13%
 0     collocate ortho    REF                                   2016       4.03%
 0     integrate ortho    REF                                   1728       3.46%
 6     collocate ortho    REF                                   1120       2.24%
 6     integrate ortho    REF                                    960       1.92%
 2     collocate general  REF                                    864       1.73%
 2     integrate general  REF                                    864       1.73%
 7     collocate ortho    REF                                    504       1.01%
 7     integrate ortho    REF                                    432       0.86%
 8     collocate ortho    REF                                    140       0.28%
 8     integrate ortho    REF                                    120       0.24%
 -------------------------------------------------------------------------------

 MEMORY| Estimated peak process memory [MiB]                                 612

 -------------------------------------------------------------------------------
 -                                                                             -
 -                         MESSAGE PASSING PERFORMANCE                         -
 -                                                                             -
 -------------------------------------------------------------------------------

 ROUTINE             CALLS      AVE VOLUME [Bytes]
 MP_Group                4
 MP_Bcast              225                 845050.
 MP_Allreduce          701                 196049.
 MP_Sync                16
 MP_Alltoall           281               10238928.
 MP_ISendRecv         2444                  53640.
 MP_Wait              4108
 MP_comm_split           6
 MP_ISend             1408                 522001.
 MP_IRecv             1408                 522275.
 MP_Recv                20                   3424.
 -------------------------------------------------------------------------------


 -------------------------------------------------------------------------------
 -                                                                             -
 -                           R E F E R E N C E S                               -
 -                                                                             -
 -------------------------------------------------------------------------------
 
 CP2K version 10.0 (Development Version), the CP2K developers group (2022).
 CP2K is freely available from https://www.cp2k.org/ .

 Kuehne,Thomas D.; Iannuzzi,Marcella; Del Ben,Mauro;
 Rybkin,Vladimir V.; Seewald,Patrick; Stein,Frederick; Laino,Teodoro;
 Khaliullin,Rustam Z.; Schuett,Ole; Schiffmann,Florian; Golze,Dorothea;
 Wilhelm,Jan; Chulkov,Sergey; Bani-Hashemian,Mohammad Hossein;
 Weber,Valery; Borstnik,Urban; Taillefumier,Mathieu;
 Jakobovits,Alice Shoshana; Lazzaro,Alfio; Pabst,Hans; Mueller,Tiziano;
 Schade,Robert; Guidon,Manuel; Andermatt,Samuel; Holmberg,Nico;
 Schenter,Gregory K.; Hehn,Anna; Bussy,Augustin; Belleflamme,Fabian;
 Tabacchi,Gloria; Gloess,Andreas; Lass,Michael; Bethune,Iain;
 Mundy,Christopher J.; Plessl,Christian; Watkins,Matt;
 VandeVondele,Joost; Krack,Matthias; Hutter,Juerg. 
 The Journal of Chemical Physics, 152 (19), (2020). 
 CP2K: An electronic structure and molecular dynamics software package -
 Quickstep: Efficient and accurate electronic structure calculations.
 https://doi.org/10.1063/5.0007045

 Schuett, Ole; Messmer, Peter; Hutter, Juerg; VandeVondele, Joost. 
 Electronic Structure Calculations on Graphics Processing Units, John
 Wiley & Sons, Ltd, 173-190 (2016). 
 GPU-Accelerated Sparse Matrix-Matrix Multiplication for
 Linear Scaling Density Functional Theory.
 https://doi.org/10.1002/9781118670712.ch8

 Heinecke, A; Henry, G; Hutchinson, M; Pabst, H. 
 Proceedings of Intl. Supercomputing Conference, 981-991 (2016). 
 LIBXSMM: Accelerating Small Matrix Multiplications
 by Runtime Code Generation.
 https://doi.org/10.1109/SC.2016.83

 Borstnik, U; VandeVondele, J; Weber, V; Hutter, J. 
 PARALLEL COMPUTING, 40 (5-6), 47-58 (2014). 
 Sparse matrix multiplication: The distributed block-compressed sparse
 row library.
 https://doi.org/10.1016/j.parco.2014.03.012

 Hutter, J; Iannuzzi, M; Schiffmann, F; VandeVondele, J. 
 WIREs Comput Mol Sci., 4 (1), 15-25 (2014). 
 CP2K: atomistic simulations of condensed matter systems.
 https://doi.org/10.1002/wcms.1159

 Frigo, M; Johnson, SG. 
 PROCEEDINGS OF THE IEEE, 93 (2), 216-231 (2005). 
 The design and implementation of FFTW3.
 https://doi.org/10.1109/JPROC.2004.840301

 VandeVondele, J; Hutter, J. 
 JOURNAL OF CHEMICAL PHYSICS, 118 (10), 4365-4369 (2003). 
 An efficient orbital transformation method for electronic structure
 calculations.
 https://doi.org/10.1063/1.1543154

 Lippert, G; Hutter, J; Parrinello, M. 
 THEORETICAL CHEMISTRY ACCOUNTS, 103 (2), 124-140 (1999). 
 The Gaussian and augmented-plane-wave density functional method for ab
 initio molecular dynamics simulations.
 https://doi.org/10.1007/s002140050523

 Krack, M; Parrinello, M. 
 PHYSICAL CHEMISTRY CHEMICAL PHYSICS, 2 (10), 2105-2112 (2000). 
 All-electron ab-initio molecular dynamics.
 https://doi.org/10.1039/b001167n

 Perdew, JP; Burke, K; Ernzerhof, M. 
 PHYSICAL REVIEW LETTERS, 77 (18), 3865-3868 (1996). 
 Generalized gradient approximation made simple.
 https://doi.org/10.1103/PhysRevLett.77.3865


 -------------------------------------------------------------------------------
 -                                                                             -
 -                                T I M I N G                                  -
 -                                                                             -
 -------------------------------------------------------------------------------
 SUBROUTINE                       CALLS  ASD         SELF TIME        TOTAL TIME
                                MAXIMUM       AVERAGE  MAXIMUM  AVERAGE  MAXIMUM
 CP2K                                 1  1.0    0.014    0.038   27.040   27.044
 qs_energies                          1  2.0    0.000    0.000   26.653   26.657
 scf_env_do_scf                       1  3.0    0.000    0.000   26.019   26.022
 qs_ks_update_qs_env                  7  5.0    0.000    0.000   23.352   23.357
 rebuild_ks_matrix                    6  6.0    0.000    0.000   23.351   23.355
 qs_ks_build_kohn_sham_matrix         6  7.0    0.002    0.002   23.351   23.355
 scf_env_do_scf_inner_loop            6  4.0    0.000    0.000   22.078   22.081
 mp_sum_d                           682  4.0   10.474   10.798   10.474   10.798
 calculate_vxc_atom                   6  8.0    0.037    0.514   10.191   10.192
 gaVxcgb_GC                           6  9.0    0.211    9.487    0.211    9.487
 prepare_gapw_den                     6  8.0    0.000    0.000    5.363    5.377
 pw_transfer                        232 10.2    0.030    0.034    4.934    5.370
 fft_wrap_pw1pw2                    214 11.2    0.004    0.004    4.872    5.311
 fft_wrap_pw1pw2_300                136 12.7    0.346    0.375    4.677    5.140
 calculate_rho_atom                  12  9.0    0.887    4.358    0.887    4.359
 fft3d_ps                           214 13.2    1.898    2.466    3.600    4.059
 qs_vxc_create                        6  8.0    0.000    0.000    3.984    3.984
 xc_vxc_pw_create                     6  9.0    0.049    0.064    3.983    3.984
 init_scf_loop                        1  4.0    0.000    0.000    3.938    3.939
 xc_pw_derive                        72 11.0    0.001    0.001    2.905    3.310
 rs_pw_transfer                     116  9.4    0.003    0.004    2.656    2.758
 qs_rho_update_rho                    7  5.0    0.000    0.000    2.733    2.733
 mp_sum_dv                           42 11.8    2.126    2.648    2.126    2.648
 calculate_rho_elec                  14  6.0    0.015    0.016    2.614    2.614
 xc_pw_divergence                    12 10.0    0.001    0.001    1.986    2.382
 density_rs2pw                       14  7.0    0.001    0.001    2.160    2.298
 xc_rho_set_and_dset_create           6 10.0    0.047    0.056    1.869    2.120
 sum_up_and_integrate                 6  8.0    0.013    0.018    2.043    2.049
 integrate_v_rspace                  12  9.0    0.000    0.001    2.030    2.035
 mp_alltoall_z22v                   214 15.2    1.179    1.994    1.179    1.994
 calculate_rho0_atom                 12  9.0    1.819    1.958    1.819    1.958
 yz_to_x                             96 14.0    0.248    0.304    0.992    1.641
 potential_pw2rs                     12 10.0    0.001    0.001    1.471    1.476
 rs_pw_transfer_RS2PW_300            20  9.6    0.551    0.645    1.020    1.115
 integrate_vhg0_rspace                6  8.0    0.097    0.237    0.936    0.949
 mp_waitany                        1408 11.4    0.789    0.919    0.789    0.919
 grid_collocate_task_list            14  7.0    0.361    0.872    0.361    0.872
 rs_pw_transfer_PW2RS_300            18 11.3    0.557    0.573    0.844    0.866
 xc_functional_eval                  18 10.9    0.000    0.000    0.424    0.794
 pbe_lsd_eval                        18 11.9    0.424    0.793    0.424    0.793
 x_to_yz                             92 14.7    0.254    0.289    0.686    0.792
 mp_sum_dm                          102  7.4    0.618    0.640    0.618    0.640
 mp_alltoall_d11v                   323 10.8    0.533    0.573    0.533    0.573
 rs_gather_matrices                  12 10.0    0.000    0.004    0.517    0.557
 grid_integrate_task_list            12 10.0    0.041    0.556    0.041    0.556
 put_rho0_on_grid                     6  9.0    0.007    0.011    0.532    0.545
 -------------------------------------------------------------------------------

 The number of warnings for this run is : 1
 
 -------------------------------------------------------------------------------
  **** **** ******  **  PROGRAM ENDED AT                 2022-05-14 11:42:05.547
 ***** ** ***  *** **   PROGRAM RAN ON                                   tcopt10
 **    ****   ******    PROGRAM RAN BY                                    hutter
 ***** **    ** ** **   PROGRAM PROCESS ID                                 11778
  **** **  *******  **  PROGRAM STOPPED IN /data/hutter/GITHUB/BASIS/scMOLOPT/PB
                                           E/Fe
