 DBCSR| CPU Multiplication driver                                           XSMM
 DBCSR| Multrec recursion limit                                              512
 DBCSR| Multiplication stack size                                           1000
 DBCSR| Maximum elements for images                                    UNLIMITED
 DBCSR| Multiplicative factor virtual images                                   1
 DBCSR| Use multiplication densification                                       T
 DBCSR| Multiplication size stacks                                             3
 DBCSR| Use memory pool for CPU allocation                                     F
 DBCSR| Number of 3D layers                                               SINGLE
 DBCSR| Use MPI memory allocation                                              F
 DBCSR| Use RMA algorithm                                                      F
 DBCSR| Use Communication thread                                               T
 DBCSR| Communication thread load                                             87
 DBCSR| MPI: My node id                                                        0
 DBCSR| MPI: Number of nodes                                                  48
 DBCSR| OMP: Current number of threads                                         1
 DBCSR| OMP: Max number of threads                                             1
 DBCSR| Split modifier for TAS multiplication algorithm                  1.0E+00


  **** **** ******  **  PROGRAM STARTED AT               2022-05-14 11:58:44.840
 ***** ** ***  *** **   PROGRAM STARTED ON                               tcopt10
 **    ****   ******    PROGRAM STARTED BY                                hutter
 ***** **    ** ** **   PROGRAM PROCESS ID                                 14166
  **** **  *******  **  PROGRAM STARTED IN /data/hutter/GITHUB/BASIS/scMOLOPT/PB
                                           E/Fe

 CP2K| version string:                   CP2K version 10.0 (Development Version)
 CP2K| source code revision number:                                  git:13fcfd8
 CP2K| cp2kflags: omp libint fftw3 libxc elpa parallel mpi3 scalapack cosma xsmm
 CP2K|             spglib sirius libvori libbqb
 CP2K| is freely available from                            https://www.cp2k.org/
 CP2K| Program compiled at                      Tue 10 May 2022 02:27:21 PM CEST
 CP2K| Program compiled on                                               tcopt10
 CP2K| Program compiled for                                                local
 CP2K| Data directory path                   /data/hutter/GITHUB/TDLRI/cp2k/data
 CP2K| Input file name                                               FeO-ref.inp

 GLOBAL| Force Environment number                                              1
 GLOBAL| Basis set file name                                        ../def2QZVPP
 GLOBAL| Potential file name                                        ../POTENTIAL
 GLOBAL| MM Potential file name                                     MM_POTENTIAL
 GLOBAL| Coordinate file name                                      __STD_INPUT__
 GLOBAL| Method name                                                        CP2K
 GLOBAL| Project name                                                     refFeO
 GLOBAL| Run type                                                         ENERGY
 GLOBAL| FFT library                                                       FFTW3
 GLOBAL| Diagonalization library                                       ScaLAPACK
 GLOBAL| Orthonormality check for eigenvectors                          DISABLED
 GLOBAL| Matrix multiplication library                                     COSMA
 GLOBAL| All-to-all communication in single precision                          F
 GLOBAL| FFTs using library dependent lengths                                  F
 GLOBAL| Grid backend                                                       AUTO
 GLOBAL| Global print level                                                  LOW
 GLOBAL| MPI I/O enabled                                                       T
 GLOBAL| Total number of message passing processes                            48
 GLOBAL| Number of threads for this process                                    1
 GLOBAL| This output is from process                                           0
 GLOBAL| Stack size for threads created by OpenMP (OMP_STACKSIZE)        default
 GLOBAL| CPU model name                          AMD EPYC 7401 24-Core Processor
 GLOBAL| CPUID                                                              1002

 MEMORY| system memory details [Kb]
 MEMORY|                        rank 0           min           max       average
 MEMORY| MemTotal            263969136     263969136     263969136     263969136
 MEMORY| MemFree             237815916     237815916     237815916     237815916
 MEMORY| Buffers                   136           136           136           136
 MEMORY| Cached               18982512      18982512      18982512      18982512
 MEMORY| Slab                  1427192       1427192       1427192       1427192
 MEMORY| SReclaimable           872656        872656        872656        872656
 MEMORY| MemLikelyFree       257671220     257671220     257671220     257671220


 GENERATE|  Preliminary Number of Bonds generated:                             0
 GENERATE|  Achieved consistency in connectivity generation.

 *******************************************************************************
 *******************************************************************************
 **                                                                           **
 **     #####                         ##              ##                      **
 **    ##   ##            ##          ##              ##                      **
 **   ##     ##                       ##            ######                    **
 **   ##     ##  ##   ##  ##   #####  ##  ##   ####   ##    #####    #####    **
 **   ##     ##  ##   ##  ##  ##      ## ##   ##      ##   ##   ##  ##   ##   **
 **   ##  ## ##  ##   ##  ##  ##      ####     ###    ##   ######   ######    **
 **    ##  ###   ##   ##  ##  ##      ## ##      ##   ##   ##       ##        **
 **     #######   #####   ##   #####  ##  ##  ####    ##    #####   ##        **
 **           ##                                                    ##        **
 **                                                                           **
 **                                                ... make the atoms dance   **
 **                                                                           **
 **            Copyright (C) by CP2K developers group (2000-2022)             **
 **                      J. Chem. Phys. 152, 194103 (2020)                    **
 **                                                                           **
 *******************************************************************************


 TOTAL NUMBERS AND MAXIMUM NUMBERS

  Total number of            - Atomic kinds:                                   2
                             - Atoms:                                          2
                             - Shell sets:                                    45
                             - Shells:                                        45
                             - Primitive Cartesian functions:                 87
                             - Cartesian basis functions:                    201
                             - Spherical basis functions:                    157

  Maximum angular momentum of the orbital basis functions:                     4


 SCF PARAMETERS         Density guess:                                   RESTART
                        --------------------------------------------------------
                        max_scf:                                              20
                        max_scf_history:                                       0
                        max_diis:                                              4
                        --------------------------------------------------------
                        eps_scf:                                        5.00E-07
                        eps_scf_history:                                0.00E+00
                        eps_diis:                                       1.00E-01
                        eps_eigval:                                     1.00E-05
                        --------------------------------------------------------
                        level_shift [a.u.]:                             0.000000
                        --------------------------------------------------------
                        Outer loop SCF in use 
                        No variables optimised in outer loop
                        eps_scf                                         5.00E-07
                        max_scf                                                1
                        No outer loop optimization
                        step_size                                       5.00E-01

 Spin 1

 Number of electrons:                                                         19
 Number of occupied orbitals:                                                 19
 Number of molecular orbitals:                                                19

 Spin 2

 Number of electrons:                                                         15
 Number of occupied orbitals:                                                 15
 Number of molecular orbitals:                                                15

 Number of orbital functions:                                                157
 Number of independent orbital functions:                                    157

 Extrapolation method: initial_guess


 SCF WAVEFUNCTION OPTIMIZATION

  ----------------------------------- OT ---------------------------------------
  Minimizer      : DIIS                : direct inversion
                                         in the iterative subspace
                                         using   7 DIIS vectors
                                         safer DIIS on
  Preconditioner : FULL_ALL            : diagonalization, state selective
  Precond_solver : DEFAULT
  stepsize       :    0.10000000                  energy_gap     :    0.08000000
  eps_taylor     :   0.10000E-15                  max_taylor     :             4
  ----------------------------------- OT ---------------------------------------

  Step     Update method      Time    Convergence         Total energy    Change
  ------------------------------------------------------------------------------
     1 OT DIIS     0.10E+00    4.1     0.00002206     -1338.6670776515 -1.34E+03
     2 OT DIIS     0.10E+00    4.4     0.00001623     -1338.6670777156 -6.42E-08
     3 OT DIIS     0.10E+00    4.4     0.00000525     -1338.6670777603 -4.46E-08
     4 OT DIIS     0.10E+00    4.4     0.00000323     -1338.6670777810 -2.07E-08
     5 OT DIIS     0.10E+00    4.4     0.00000099     -1338.6670777934 -1.24E-08
     6 OT DIIS     0.10E+00    4.4     0.00000038     -1338.6670777942 -8.20E-10

  *** SCF run converged in     6 steps ***


  Electronic density on regular grids:        -19.4767073938       14.5232926062
  Core density on regular grids:               34.0000000000        0.0000000000
  Hard and soft densities (Lebedev):          -46.0730351910      -31.5497423495
  Total Rho_soft + Rho1_hard - Rho1_soft      -34.0000002353
  Total charge density (r-space):              -0.0000002353
  Total Rho_soft + Rho0_soft (g-space):        -0.0000004063

  Overlap energy of the core charge distribution:               0.00000000042449
  Self energy of the core charge distribution:               -602.62145144770648
  Core Hamiltonian energy:                                   -767.38545431268494
  Hartree energy:                                              73.77471083066838
  Exchange-correlation energy:                                -13.19135047712105

  GAPW| Exc from hard and soft atomic rho1:                   -50.69435507667661
  GAPW| local Eh = 1 center integrals:                         21.45082268891446

  Total energy:                                             -1338.66707779418152

  outer SCF iter =    1 RMS gradient =   0.38E-06 energy =      -1338.6670777942
  outer SCF loop converged in   1 iterations or    6 steps


  Integrated absolute spin density  :                               2.9815896877
  Ideal and single determinant S**2 :                    6.000000       6.016517

 ENERGY| Total FORCE_EVAL ( QS ) energy [a.u.]:            -1338.667077794181523

 -------------------------------------------------------------------------------
 -                                                                             -
 -                                DBCSR STATISTICS                             -
 -                                                                             -
 -------------------------------------------------------------------------------
 COUNTER                                    TOTAL       BLAS       SMM       ACC
 flops    15 x    15 x    15                40500       0.0%    100.0%      0.0%
 flops    19 x    19 x    19                82308       0.0%    100.0%      0.0%
 flops    15 x    15 x    57               641250       0.0%    100.0%      0.0%
 flops    57 x    57 x    15               682290       0.0%    100.0%      0.0%
 flops    57 x    57 x    19               864234       0.0%    100.0%      0.0%
 flops    19 x    19 x    57              1028850       0.0%    100.0%      0.0%
 flops    15 x    15 x   100              1125000       0.0%    100.0%      0.0%
 flops    57 x   100 x    15              1197000       0.0%    100.0%      0.0%
 flops    57 x   100 x    19              1516200       0.0%    100.0%      0.0%
 flops    19 x    19 x   100              1805000       0.0%    100.0%      0.0%
 flops    57 x    15 x    57              1851930       0.0%    100.0%      0.0%
 flops   100 x   100 x    15              2100000       0.0%    100.0%      0.0%
 flops   157 x    15 x    15              2190150       0.0%    100.0%      0.0%
 flops    57 x    19 x    57              2222316       0.0%    100.0%      0.0%
 flops   100 x   100 x    19              2660000       0.0%    100.0%      0.0%
 flops    57 x    15 x   100              3249000       0.0%    100.0%      0.0%
 flops   100 x    15 x    57              3249000       0.0%    100.0%      0.0%
 flops   157 x    19 x    19              3513974       0.0%    100.0%      0.0%
 flops   157 x    15 x    57              3758580       0.0%    100.0%      0.0%
 flops    57 x    19 x   100              3898800       0.0%    100.0%      0.0%
 flops   100 x    19 x    57              3898800       0.0%    100.0%      0.0%
 flops   157 x    19 x    57              4760868       0.0%    100.0%      0.0%
 flops   100 x    15 x   100              5700000       0.0%    100.0%      0.0%
 flops   157 x    15 x   100              6594000       0.0%    100.0%      0.0%
 flops   100 x    19 x   100              6840000       0.0%    100.0%      0.0%
 flops   157 x    19 x   100              8352400       0.0%    100.0%      0.0%
 flops inhomo. stacks                           0       0.0%      0.0%      0.0%
 flops total                        73.822450E+06       0.0%    100.0%      0.0%
 flops max/rank                     72.275926E+06       0.0%    100.0%      0.0%
 matmuls inhomo. stacks                         0       0.0%      0.0%      0.0%
 matmuls total                                420       0.0%    100.0%      0.0%
 number of processed stacks                   420       0.0%    100.0%      0.0%
 average stack size                                     0.0       1.0       0.0
 marketing flops                    76.719616E+06
 -------------------------------------------------------------------------------
 # multiplications                            205
 max memory usage/rank             644.984832E+06
 # max total images/rank                        3
 # max 3D layers                                1
 # MPI messages exchanged                  196800
 MPI messages size (bytes):
  total size                       179.671616E+06
  min size                           0.000000E+00
  max size                         125.600000E+03
  average size                     912.965515E+00
 MPI breakdown and total messages size (bytes):
             size <=      128              192306                        0
       128 < size <=     8192                 824                  4044576
      8192 < size <=    32768                2240                 34634760
     32768 < size <=   131072                1430                140992280
    131072 < size <=  4194304                   0                        0
   4194304 < size <= 16777216                   0                        0
  16777216 < size                               0                        0
 -------------------------------------------------------------------------------

 *** WARNING in dbcsr_mm.F:290 :: Using a non-square number of MPI ranks ***
 *** might lead to poor performance. Used ranks: 48 Suggested: 49 100    ***

 -------------------------------------------------------------------------------
 -                                                                             -
 -                      DBCSR MESSAGE PASSING PERFORMANCE                      -
 -                                                                             -
 -------------------------------------------------------------------------------
 ROUTINE             CALLS      AVE VOLUME [Bytes]
 MP_Bcast               27                     12.
 MP_Allreduce         1134                      9.
 MP_Alltoall          1049                   9265.
 MP_ISend             9242                   2350.
 MP_IRecv             9040                    688.
 -------------------------------------------------------------------------------

 -------------------------------------------------------------------------------
 -                                                                             -
 -                                GRID STATISTICS                              -
 -                                                                             -
 -------------------------------------------------------------------------------
 LP    KERNEL             BACKEND                              COUNT     PERCENT
 2     collocate ortho    REF                                   4186      11.53%
 3     collocate ortho    REF                                   3976      10.95%
 2     integrate ortho    REF                                   3588       9.88%
 1     collocate ortho    REF                                   3542       9.76%
 3     integrate ortho    REF                                   3408       9.39%
 1     integrate ortho    REF                                   3036       8.36%
 4     collocate ortho    REF                                   2786       7.67%
 4     integrate ortho    REF                                   2388       6.58%
 5     collocate ortho    REF                                   1680       4.63%
 0     collocate ortho    REF                                   1554       4.28%
 5     integrate ortho    REF                                   1440       3.97%
 0     integrate ortho    REF                                   1332       3.67%
 6     collocate ortho    REF                                    784       2.16%
 6     integrate ortho    REF                                    672       1.85%
 2     collocate general  REF                                    576       1.59%
 2     integrate general  REF                                    576       1.59%
 7     collocate ortho    REF                                    322       0.89%
 7     integrate ortho    REF                                    276       0.76%
 8     collocate ortho    REF                                     98       0.27%
 8     integrate ortho    REF                                     84       0.23%
 -------------------------------------------------------------------------------

 MEMORY| Estimated peak process memory [MiB]                                 616

 -------------------------------------------------------------------------------
 -                                                                             -
 -                         MESSAGE PASSING PERFORMANCE                         -
 -                                                                             -
 -------------------------------------------------------------------------------

 ROUTINE             CALLS      AVE VOLUME [Bytes]
 MP_Group                4
 MP_Bcast              191                 989337.
 MP_Allreduce          667                 191052.
 MP_Sync                16
 MP_Alltoall           281                8135254.
 MP_ISendRecv         2444                  53640.
 MP_Wait              4108
 MP_comm_split           6
 MP_ISend             1408                 522001.
 MP_IRecv             1408                 522275.
 MP_Recv                16                   2512.
 -------------------------------------------------------------------------------


 -------------------------------------------------------------------------------
 -                                                                             -
 -                           R E F E R E N C E S                               -
 -                                                                             -
 -------------------------------------------------------------------------------
 
 CP2K version 10.0 (Development Version), the CP2K developers group (2022).
 CP2K is freely available from https://www.cp2k.org/ .

 Kuehne,Thomas D.; Iannuzzi,Marcella; Del Ben,Mauro;
 Rybkin,Vladimir V.; Seewald,Patrick; Stein,Frederick; Laino,Teodoro;
 Khaliullin,Rustam Z.; Schuett,Ole; Schiffmann,Florian; Golze,Dorothea;
 Wilhelm,Jan; Chulkov,Sergey; Bani-Hashemian,Mohammad Hossein;
 Weber,Valery; Borstnik,Urban; Taillefumier,Mathieu;
 Jakobovits,Alice Shoshana; Lazzaro,Alfio; Pabst,Hans; Mueller,Tiziano;
 Schade,Robert; Guidon,Manuel; Andermatt,Samuel; Holmberg,Nico;
 Schenter,Gregory K.; Hehn,Anna; Bussy,Augustin; Belleflamme,Fabian;
 Tabacchi,Gloria; Gloess,Andreas; Lass,Michael; Bethune,Iain;
 Mundy,Christopher J.; Plessl,Christian; Watkins,Matt;
 VandeVondele,Joost; Krack,Matthias; Hutter,Juerg. 
 The Journal of Chemical Physics, 152 (19), (2020). 
 CP2K: An electronic structure and molecular dynamics software package -
 Quickstep: Efficient and accurate electronic structure calculations.
 https://doi.org/10.1063/5.0007045

 Schuett, Ole; Messmer, Peter; Hutter, Juerg; VandeVondele, Joost. 
 Electronic Structure Calculations on Graphics Processing Units, John
 Wiley & Sons, Ltd, 173-190 (2016). 
 GPU-Accelerated Sparse Matrix-Matrix Multiplication for
 Linear Scaling Density Functional Theory.
 https://doi.org/10.1002/9781118670712.ch8

 Heinecke, A; Henry, G; Hutchinson, M; Pabst, H. 
 Proceedings of Intl. Supercomputing Conference, 981-991 (2016). 
 LIBXSMM: Accelerating Small Matrix Multiplications
 by Runtime Code Generation.
 https://doi.org/10.1109/SC.2016.83

 Borstnik, U; VandeVondele, J; Weber, V; Hutter, J. 
 PARALLEL COMPUTING, 40 (5-6), 47-58 (2014). 
 Sparse matrix multiplication: The distributed block-compressed sparse
 row library.
 https://doi.org/10.1016/j.parco.2014.03.012

 Hutter, J; Iannuzzi, M; Schiffmann, F; VandeVondele, J. 
 WIREs Comput Mol Sci., 4 (1), 15-25 (2014). 
 CP2K: atomistic simulations of condensed matter systems.
 https://doi.org/10.1002/wcms.1159

 Frigo, M; Johnson, SG. 
 PROCEEDINGS OF THE IEEE, 93 (2), 216-231 (2005). 
 The design and implementation of FFTW3.
 https://doi.org/10.1109/JPROC.2004.840301

 VandeVondele, J; Hutter, J. 
 JOURNAL OF CHEMICAL PHYSICS, 118 (10), 4365-4369 (2003). 
 An efficient orbital transformation method for electronic structure
 calculations.
 https://doi.org/10.1063/1.1543154

 Lippert, G; Hutter, J; Parrinello, M. 
 THEORETICAL CHEMISTRY ACCOUNTS, 103 (2), 124-140 (1999). 
 The Gaussian and augmented-plane-wave density functional method for ab
 initio molecular dynamics simulations.
 https://doi.org/10.1007/s002140050523

 Krack, M; Parrinello, M. 
 PHYSICAL CHEMISTRY CHEMICAL PHYSICS, 2 (10), 2105-2112 (2000). 
 All-electron ab-initio molecular dynamics.
 https://doi.org/10.1039/b001167n

 Perdew, JP; Burke, K; Ernzerhof, M. 
 PHYSICAL REVIEW LETTERS, 77 (18), 3865-3868 (1996). 
 Generalized gradient approximation made simple.
 https://doi.org/10.1103/PhysRevLett.77.3865


 -------------------------------------------------------------------------------
 -                                                                             -
 -                                T I M I N G                                  -
 -                                                                             -
 -------------------------------------------------------------------------------
 SUBROUTINE                       CALLS  ASD         SELF TIME        TOTAL TIME
                                MAXIMUM       AVERAGE  MAXIMUM  AVERAGE  MAXIMUM
 CP2K                                 1  1.0    0.016    0.040   27.548   27.552
 qs_energies                          1  2.0    0.000    0.000   27.156   27.160
 scf_env_do_scf                       1  3.0    0.000    0.000   26.471   26.474
 qs_ks_update_qs_env                  7  5.0    0.000    0.000   23.878   23.881
 rebuild_ks_matrix                    6  6.0    0.000    0.000   23.876   23.879
 qs_ks_build_kohn_sham_matrix         6  7.0    0.002    0.002   23.876   23.879
 scf_env_do_scf_inner_loop            6  4.0    0.000    0.000   22.447   22.450
 mp_sum_d                           682  4.0   10.883   11.202   10.883   11.202
 calculate_vxc_atom                   6  8.0    0.036    0.562   10.572   10.574
 gaVxcgb_GC                          12  9.0    0.204    9.804    0.204    9.804
 prepare_gapw_den                     6  8.0    0.000    0.000    5.517    5.530
 pw_transfer                        232 10.2    0.030    0.034    4.923    5.352
 fft_wrap_pw1pw2                    214 11.2    0.004    0.004    4.861    5.287
 fft_wrap_pw1pw2_300                136 12.7    0.349    0.379    4.667    5.086
 calculate_rho_atom                  12  9.0    0.884    4.543    0.884    4.543
 qs_vxc_create                        6  8.0    0.000    0.000    4.057    4.058
 xc_vxc_pw_create                     6  9.0    0.050    0.067    4.057    4.058
 fft3d_ps                           214 13.2    1.923    2.283    3.586    4.057
 init_scf_loop                        1  4.0    0.000    0.000    4.022    4.023
 xc_pw_derive                        72 11.0    0.001    0.003    2.892    3.300
 mp_sum_dv                           42 11.8    2.371    2.885    2.371    2.885
 rs_pw_transfer                     116  9.4    0.003    0.004    2.626    2.728
 qs_rho_update_rho                    7  5.0    0.000    0.000    2.696    2.696
 calculate_rho_elec                  14  6.0    0.015    0.016    2.585    2.585
 xc_pw_divergence                    12 10.0    0.001    0.001    1.984    2.362
 density_rs2pw                       14  7.0    0.001    0.001    2.139    2.265
 xc_rho_set_and_dset_create           6 10.0    0.049    0.060    1.945    2.187
 sum_up_and_integrate                 6  8.0    0.012    0.016    1.974    1.982
 integrate_v_rspace                  12  9.0    0.000    0.001    1.962    1.969
 calculate_rho0_atom                 12  9.0    1.739    1.848    1.739    1.848
 mp_alltoall_z22v                   214 15.2    1.140    1.829    1.140    1.829
 yz_to_x                             96 14.0    0.249    0.316    0.968    1.526
 potential_pw2rs                     12 10.0    0.001    0.001    1.480    1.485
 rs_pw_transfer_RS2PW_300            20  9.6    0.560    0.654    0.982    1.080
 integrate_vhg0_rspace                6  8.0    0.087    0.243    0.893    0.907
 xc_functional_eval                  30 10.9    0.000    0.000    0.501    0.888
 pbe_lsd_eval                        30 11.9    0.501    0.888    0.501    0.888
 mp_waitany                        1408 11.4    0.748    0.876    0.748    0.876
 rs_pw_transfer_PW2RS_300            18 11.3    0.562    0.579    0.847    0.868
 x_to_yz                             92 14.7    0.253    0.285    0.671    0.794
 grid_collocate_task_list            14  7.0    0.356    0.794    0.356    0.794
 mp_sum_dm                           68  7.4    0.584    0.597    0.584    0.597
 -------------------------------------------------------------------------------

 The number of warnings for this run is : 1
 
 -------------------------------------------------------------------------------
  **** **** ******  **  PROGRAM ENDED AT                 2022-05-14 11:59:12.816
 ***** ** ***  *** **   PROGRAM RAN ON                                   tcopt10
 **    ****   ******    PROGRAM RAN BY                                    hutter
 ***** **    ** ** **   PROGRAM PROCESS ID                                 14166
  **** **  *******  **  PROGRAM STOPPED IN /data/hutter/GITHUB/BASIS/scMOLOPT/PB
                                           E/Fe
