 DBCSR| CPU Multiplication driver                                           XSMM
 DBCSR| Multrec recursion limit                                              512
 DBCSR| Multiplication stack size                                           1000
 DBCSR| Maximum elements for images                                    UNLIMITED
 DBCSR| Multiplicative factor virtual images                                   1
 DBCSR| Use multiplication densification                                       T
 DBCSR| Multiplication size stacks                                             3
 DBCSR| Use memory pool for CPU allocation                                     F
 DBCSR| Number of 3D layers                                               SINGLE
 DBCSR| Use MPI memory allocation                                              F
 DBCSR| Use RMA algorithm                                                      F
 DBCSR| Use Communication thread                                               T
 DBCSR| Communication thread load                                             87
 DBCSR| MPI: My node id                                                        0
 DBCSR| MPI: Number of nodes                                                  48
 DBCSR| OMP: Current number of threads                                         1
 DBCSR| OMP: Max number of threads                                             1
 DBCSR| Split modifier for TAS multiplication algorithm                  1.0E+00


  **** **** ******  **  PROGRAM STARTED AT               2022-05-14 12:00:03.200
 ***** ** ***  *** **   PROGRAM STARTED ON                               tcopt10
 **    ****   ******    PROGRAM STARTED BY                                hutter
 ***** **    ** ** **   PROGRAM PROCESS ID                                 14443
  **** **  *******  **  PROGRAM STARTED IN /data/hutter/GITHUB/BASIS/scMOLOPT/PB
                                           E/Fe

 CP2K| version string:                   CP2K version 10.0 (Development Version)
 CP2K| source code revision number:                                  git:13fcfd8
 CP2K| cp2kflags: omp libint fftw3 libxc elpa parallel mpi3 scalapack cosma xsmm
 CP2K|             spglib sirius libvori libbqb
 CP2K| is freely available from                            https://www.cp2k.org/
 CP2K| Program compiled at                      Tue 10 May 2022 02:27:21 PM CEST
 CP2K| Program compiled on                                               tcopt10
 CP2K| Program compiled for                                                local
 CP2K| Data directory path                   /data/hutter/GITHUB/TDLRI/cp2k/data
 CP2K| Input file name                                          Ferrocen-ref.inp

 GLOBAL| Force Environment number                                              1
 GLOBAL| Basis set file name                                        ../def2QZVPP
 GLOBAL| Potential file name                                        ../POTENTIAL
 GLOBAL| MM Potential file name                                     MM_POTENTIAL
 GLOBAL| Coordinate file name                                      __STD_INPUT__
 GLOBAL| Method name                                                        CP2K
 GLOBAL| Project name                                                refFerrocen
 GLOBAL| Run type                                                         ENERGY
 GLOBAL| FFT library                                                       FFTW3
 GLOBAL| Diagonalization library                                       ScaLAPACK
 GLOBAL| Orthonormality check for eigenvectors                          DISABLED
 GLOBAL| Matrix multiplication library                                     COSMA
 GLOBAL| All-to-all communication in single precision                          F
 GLOBAL| FFTs using library dependent lengths                                  F
 GLOBAL| Grid backend                                                       AUTO
 GLOBAL| Global print level                                                  LOW
 GLOBAL| MPI I/O enabled                                                       T
 GLOBAL| Total number of message passing processes                            48
 GLOBAL| Number of threads for this process                                    1
 GLOBAL| This output is from process                                           0
 GLOBAL| Stack size for threads created by OpenMP (OMP_STACKSIZE)        default
 GLOBAL| CPU model name                          AMD EPYC 7401 24-Core Processor
 GLOBAL| CPUID                                                              1002

 MEMORY| system memory details [Kb]
 MEMORY|                        rank 0           min           max       average
 MEMORY| MemTotal            263969136     263969136     263969136     263969136
 MEMORY| MemFree             237814216     237814216     237814216     237814216
 MEMORY| Buffers                   136           136           136           136
 MEMORY| Cached               18985260      18985260      18985260      18985260
 MEMORY| Slab                  1428548       1428548       1428548       1428548
 MEMORY| SReclaimable           873128        873128        873128        873128
 MEMORY| MemLikelyFree       257672740     257672740     257672740     257672740


 GENERATE|  Preliminary Number of Bonds generated:                             0
 GENERATE|  Achieved consistency in connectivity generation.

 *******************************************************************************
 *******************************************************************************
 **                                                                           **
 **     #####                         ##              ##                      **
 **    ##   ##            ##          ##              ##                      **
 **   ##     ##                       ##            ######                    **
 **   ##     ##  ##   ##  ##   #####  ##  ##   ####   ##    #####    #####    **
 **   ##     ##  ##   ##  ##  ##      ## ##   ##      ##   ##   ##  ##   ##   **
 **   ##  ## ##  ##   ##  ##  ##      ####     ###    ##   ######   ######    **
 **    ##  ###   ##   ##  ##  ##      ## ##      ##   ##   ##       ##        **
 **     #######   #####   ##   #####  ##  ##  ####    ##    #####   ##        **
 **           ##                                                    ##        **
 **                                                                           **
 **                                                ... make the atoms dance   **
 **                                                                           **
 **            Copyright (C) by CP2K developers group (2000-2022)             **
 **                      J. Chem. Phys. 152, 194103 (2020)                    **
 **                                                                           **
 *******************************************************************************


 TOTAL NUMBERS AND MAXIMUM NUMBERS

  Total number of            - Atomic kinds:                                   3
                             - Atoms:                                         21
                             - Shell sets:                                   298
                             - Shells:                                       298
                             - Primitive Cartesian functions:                478
                             - Cartesian basis functions:                   1199
                             - Spherical basis functions:                    970

  Maximum angular momentum of the orbital basis functions:                     4


 SCF PARAMETERS         Density guess:                                    ATOMIC
                        --------------------------------------------------------
                        max_scf:                                              20
                        max_scf_history:                                       0
                        max_diis:                                              4
                        --------------------------------------------------------
                        eps_scf:                                        5.00E-07
                        eps_scf_history:                                0.00E+00
                        eps_diis:                                       1.00E-01
                        eps_eigval:                                     1.00E-05
                        --------------------------------------------------------
                        level_shift [a.u.]:                             0.000000
                        --------------------------------------------------------
                        Outer loop SCF in use 
                        No variables optimised in outer loop
                        eps_scf                                         5.00E-07
                        max_scf                                                2
                        No outer loop optimization
                        step_size                                       5.00E-01

 Spin 1

 Number of electrons:                                                         49
 Number of occupied orbitals:                                                 49
 Number of molecular orbitals:                                                49

 Spin 2

 Number of electrons:                                                         47
 Number of occupied orbitals:                                                 47
 Number of molecular orbitals:                                                47

 Number of orbital functions:                                                970
 Number of independent orbital functions:                                    970

 Extrapolation method: initial_guess


 SCF WAVEFUNCTION OPTIMIZATION

  ----------------------------------- OT ---------------------------------------
  Minimizer      : DIIS                : direct inversion
                                         in the iterative subspace
                                         using   7 DIIS vectors
                                         safer DIIS on
  Preconditioner : FULL_ALL            : diagonalization, state selective
  Precond_solver : DEFAULT
  stepsize       :    0.10000000                  energy_gap     :    0.08000000
  eps_taylor     :   0.10000E-15                  max_taylor     :             4
  ----------------------------------- OT ---------------------------------------

  Step     Update method      Time    Convergence         Total energy    Change
  ------------------------------------------------------------------------------
     1 OT DIIS     0.10E+00    6.4     0.06101955     -1568.6920200243 -1.57E+03
     2 OT DIIS     0.10E+00    7.3     0.04652780     -1599.2668615042 -3.06E+01
     3 OT DIIS     0.10E+00    7.2     0.01309893     -1639.6528268770 -4.04E+01
     4 OT DIIS     0.10E+00    7.2     0.01067827     -1640.9803690868 -1.33E+00
     5 OT DIIS     0.10E+00    7.2     0.00522248     -1644.3185723795 -3.34E+00
     6 OT DIIS     0.10E+00    7.2     0.00431828     -1644.8303010800 -5.12E-01
     7 OT DIIS     0.10E+00    7.2     0.00321192     -1645.4812166651 -6.51E-01
     8 OT DIIS     0.10E+00    7.2     0.00295033     -1646.1393008634 -6.58E-01
     9 OT DIIS     0.10E+00    7.3     0.00263988     -1646.3952309347 -2.56E-01
    10 OT DIIS     0.10E+00    7.2     0.00190818     -1647.5291525364 -1.13E+00
    11 OT DIIS     0.10E+00    7.2     0.00178702     -1647.6950462210 -1.66E-01
    12 OT DIIS     0.10E+00    7.2     0.00157239     -1647.9880764680 -2.93E-01
    13 OT DIIS     0.10E+00    7.2     0.00150874     -1648.1160592175 -1.28E-01
    14 OT DIIS     0.10E+00    7.2     0.00135086     -1648.4200668228 -3.04E-01
    15 OT DIIS     0.10E+00    7.2     0.00129172     -1648.4973456909 -7.73E-02
    16 OT DIIS     0.10E+00    7.3     0.00122587     -1648.6239890828 -1.27E-01
    17 OT DIIS     0.10E+00    7.2     0.00110095     -1648.8626915483 -2.39E-01
    18 OT DIIS     0.10E+00    7.2     0.00104121     -1648.9453366104 -8.26E-02
    19 OT DIIS     0.10E+00    7.2     0.00096129     -1649.1046955111 -1.59E-01
    20 OT DIIS     0.10E+00    7.2     0.00092327     -1649.1809709791 -7.63E-02

  Leaving inner SCF loop after reaching    20 steps.


  Electronic density on regular grids:        -64.3174578435       31.6825421565
  Core density on regular grids:               96.0000000000       -0.0000000000
  Hard and soft densities (Lebedev):         -245.4246204510     -213.7420780147
  Total Rho_soft + Rho1_hard - Rho1_soft      -96.0000002799
  Total charge density (r-space):              -0.0000002799
  Total Rho_soft + Rho0_soft (g-space):        -0.0000006459

  Overlap energy of the core charge distribution:               0.00001181152061
  Self energy of the core charge distribution:               -834.94353699904400
  Core Hamiltonian energy:                                   -827.63209566240539
  Hartree energy:                                             223.41087231110288
  Exchange-correlation energy:                                -31.41343278181591

  GAPW| Exc from hard and soft atomic rho1:                   -81.55815041365358
  GAPW| local Eh = 1 center integrals:                        -97.04463924479521

  Total energy:                                             -1649.18097097909049

  outer SCF iter =    1 RMS gradient =   0.92E-03 energy =      -1649.1809709791

  ----------------------------------- OT ---------------------------------------
  Minimizer      : DIIS                : direct inversion
                                         in the iterative subspace
                                         using   7 DIIS vectors
                                         safer DIIS on
  Preconditioner : FULL_ALL            : diagonalization, state selective
  Precond_solver : DEFAULT
  stepsize       :    0.10000000                  energy_gap     :    0.08000000
  eps_taylor     :   0.10000E-15                  max_taylor     :             4
  ----------------------------------- OT ---------------------------------------

  Step     Update method      Time    Convergence         Total energy    Change
  ------------------------------------------------------------------------------
     1 OT DIIS     0.10E+00   15.0     0.00776259     -1649.2342651323 -5.33E-02
     2 OT DIIS     0.10E+00    7.2     0.00622424     -1649.7371581026 -5.03E-01
     3 OT DIIS     0.10E+00    7.3     0.00445220     -1650.1024084078 -3.65E-01
     4 OT DIIS     0.10E+00    7.3     0.00568439     -1650.1287326216 -2.63E-02
     5 OT DIIS     0.10E+00    7.2     0.00175972     -1650.1968742625 -6.81E-02
     6 OT DIIS     0.10E+00    7.2     0.00118482     -1650.2270139490 -3.01E-02
     7 OT DIIS     0.10E+00    7.2     0.00069244     -1650.2416890706 -1.47E-02
     8 OT DIIS     0.10E+00    7.2     0.00033358     -1650.2448634697 -3.17E-03
     9 OT DIIS     0.10E+00    7.1     0.00019706     -1650.2462667099 -1.40E-03
    10 OT DIIS     0.10E+00    7.3     0.00010426     -1650.2467726323 -5.06E-04
    11 OT DIIS     0.10E+00    7.2     0.00006212     -1650.2470514972 -2.79E-04
    12 OT DIIS     0.10E+00    7.2     0.00004792     -1650.2471422638 -9.08E-05
    13 OT DIIS     0.10E+00    7.2     0.00004045     -1650.2472079676 -6.57E-05
    14 OT DIIS     0.10E+00    7.2     0.00003618     -1650.2472619810 -5.40E-05
    15 OT DIIS     0.10E+00    7.2     0.00003234     -1650.2473243450 -6.24E-05
    16 OT DIIS     0.10E+00    7.1     0.00002635     -1650.2474214814 -9.71E-05
    17 OT DIIS     0.10E+00    7.2     0.00002165     -1650.2474749798 -5.35E-05
    18 OT DIIS     0.10E+00    7.2     0.00001563     -1650.2475210311 -4.61E-05
    19 OT DIIS     0.10E+00    7.2     0.00001027     -1650.2475424622 -2.14E-05
    20 OT DIIS     0.10E+00    7.2     0.00000718     -1650.2475491770 -6.71E-06

  Leaving inner SCF loop after reaching    20 steps.


  Electronic density on regular grids:        -64.3101180871       31.6898819129
  Core density on regular grids:               96.0000000000       -0.0000000000
  Hard and soft densities (Lebedev):         -245.5201929386     -213.8303106903
  Total Rho_soft + Rho1_hard - Rho1_soft      -96.0000003353
  Total charge density (r-space):              -0.0000003353
  Total Rho_soft + Rho0_soft (g-space):        -0.0000007013

  Overlap energy of the core charge distribution:               0.00001181152061
  Self energy of the core charge distribution:               -834.94353699904400
  Core Hamiltonian energy:                                   -828.96198697610726
  Hartree energy:                                             224.29712316021039
  Exchange-correlation energy:                                -31.48136024137358

  GAPW| Exc from hard and soft atomic rho1:                   -81.50479408451027
  GAPW| local Eh = 1 center integrals:                        -97.65300584769454

  Total energy:                                             -1650.24754917699852

  outer SCF iter =    2 RMS gradient =   0.72E-05 energy =      -1650.2475491770

  ----------------------------------- OT ---------------------------------------
  Minimizer      : DIIS                : direct inversion
                                         in the iterative subspace
                                         using   7 DIIS vectors
                                         safer DIIS on
  Preconditioner : FULL_ALL            : diagonalization, state selective
  Precond_solver : DEFAULT
  stepsize       :    0.10000000                  energy_gap     :    0.08000000
  eps_taylor     :   0.10000E-15                  max_taylor     :             4
  ----------------------------------- OT ---------------------------------------

  Step     Update method      Time    Convergence         Total energy    Change
  ------------------------------------------------------------------------------
     1 OT DIIS     0.10E+00   14.9     0.00000519     -1650.2475508800 -1.70E-06
     2 OT DIIS     0.10E+00    7.2     0.00000448     -1650.2475511343 -2.54E-07
     3 OT DIIS     0.10E+00    7.1     0.00000374     -1650.2475517288 -5.95E-07
     4 OT DIIS     0.10E+00    7.2     0.00000237     -1650.2475532925 -1.56E-06
     5 OT DIIS     0.10E+00    7.2     0.00000210     -1650.2475552935 -2.00E-06
     6 OT DIIS     0.10E+00    7.2     0.00000165     -1650.2475647636 -9.47E-06
     7 OT DIIS     0.10E+00    7.2     0.00000123     -1650.2475840855 -1.93E-05
     8 OT DIIS     0.10E+00    7.2     0.00000079     -1650.2476178467 -3.38E-05
     9 OT DIIS     0.10E+00    7.2     0.00000058     -1650.2476389562 -2.11E-05
    10 OT DIIS     0.10E+00    7.1     0.00000039     -1650.2476637107 -2.48E-05

  *** SCF run converged in    10 steps ***


  Electronic density on regular grids:        -64.3101862280       31.6898137720
  Core density on regular grids:               96.0000000000       -0.0000000000
  Hard and soft densities (Lebedev):         -245.5229603628     -213.8331462602
  Total Rho_soft + Rho1_hard - Rho1_soft      -96.0000003306
  Total charge density (r-space):              -0.0000003306
  Total Rho_soft + Rho0_soft (g-space):        -0.0000006965

  Overlap energy of the core charge distribution:               0.00001181152061
  Self energy of the core charge distribution:               -834.94353699904400
  Core Hamiltonian energy:                                   -828.95908484894949
  Hartree energy:                                             224.29816113941371
  Exchange-correlation energy:                                -31.48133702846188

  GAPW| Exc from hard and soft atomic rho1:                   -81.50319417744561
  GAPW| local Eh = 1 center integrals:                        -97.65868360776167

  Total energy:                                             -1650.24766371072838

  outer SCF iter =    3 RMS gradient =   0.39E-06 energy =      -1650.2476637107
  outer SCF loop converged in   3 iterations or   50 steps


  Integrated absolute spin density  :                               1.6021222871
  Ideal and single determinant S**2 :                    2.000000       2.027813

 ENERGY| Total FORCE_EVAL ( QS ) energy [a.u.]:            -1650.247663710728375

 -------------------------------------------------------------------------------
 -                                                                             -
 -                                DBCSR STATISTICS                             -
 -                                                                             -
 -------------------------------------------------------------------------------
 COUNTER                                    TOTAL       BLAS       SMM       ACC
 flops   100 x    15 x    15               135000       0.0%    100.0%      0.0%
 flops   100 x    17 x    17               173400       0.0%    100.0%      0.0%
 flops    30 x    15 x    15               405000       0.0%    100.0%      0.0%
 flops    30 x    17 x    17               520200       0.0%    100.0%      0.0%
 flops    57 x    15 x    15               769500       0.0%    100.0%      0.0%
 flops    57 x    17 x    17               988380       0.0%    100.0%      0.0%
 flops   100 x    32 x    32              1228800       0.0%    100.0%      0.0%
 flops    15 x    15 x    15              2524500       0.0%    100.0%      0.0%
 flops    17 x    17 x    17              3674924       0.0%    100.0%      0.0%
 flops    30 x    32 x    32              3686400       0.0%    100.0%      0.0%
 flops    15 x    15 x    32              5385600       0.0%    100.0%      0.0%
 flops    15 x    32 x    15              5385600       0.0%    100.0%      0.0%
 flops    32 x    15 x    15              5385600       0.0%    100.0%      0.0%
 flops    15 x    15 x    60              5481000       0.0%    100.0%      0.0%
 flops    17 x    17 x    32              6917504       0.0%    100.0%      0.0%
 flops    17 x    32 x    17              6917504       0.0%    100.0%      0.0%
 flops    32 x    17 x    17              6917504       0.0%    100.0%      0.0%
 flops    57 x    32 x    32              7004160       0.0%    100.0%      0.0%
 flops    17 x    17 x    60              7040040       0.0%    100.0%      0.0%
 flops    32 x    32 x    15             11489280       0.0%    100.0%      0.0%
 flops    15 x    32 x    32             11489280       0.0%    100.0%      0.0%
 flops    32 x    15 x    32             11489280       0.0%    100.0%      0.0%
 flops    15 x    32 x    60             11692800       0.0%    100.0%      0.0%
 flops    32 x    15 x    60             11692800       0.0%    100.0%      0.0%
 flops    32 x    32 x    17             13021184       0.0%    100.0%      0.0%
 flops    17 x    32 x    32             13021184       0.0%    100.0%      0.0%
 flops    32 x    17 x    32             13021184       0.0%    100.0%      0.0%
 flops    17 x    32 x    60             13251840       0.0%    100.0%      0.0%
 flops    32 x    17 x    60             13251840       0.0%    100.0%      0.0%
 flops   100 x   100 x    15             15300000       0.0%    100.0%      0.0%
 flops    15 x    15 x    57             15620850       0.0%    100.0%      0.0%
 flops   100 x   100 x    17             17340000       0.0%    100.0%      0.0%
 flops    17 x    17 x    57             20064114       0.0%    100.0%      0.0%
 flops    30 x   100 x    15             22950000       0.0%    100.0%      0.0%
 flops   100 x    30 x    15             22950000       0.0%    100.0%      0.0%
 flops    30 x   100 x    17             26010000       0.0%    100.0%      0.0%
 flops   100 x    30 x    17             26010000       0.0%    100.0%      0.0%
 flops   234 x    15 x    15             26325000       0.0%    100.0%      0.0%
 flops   274 x    15 x    15             30825000       0.0%    100.0%      0.0%
 flops    15 x    32 x    57             33324480       0.0%    100.0%      0.0%
 flops    32 x    15 x    57             33324480       0.0%    100.0%      0.0%
 flops   234 x    17 x    17             33813000       0.0%    100.0%      0.0%
 flops   100 x    15 x   100             36300000       0.0%    100.0%      0.0%
 flops    17 x    32 x    57             37767744       0.0%    100.0%      0.0%
 flops    32 x    17 x    57             37767744       0.0%    100.0%      0.0%
 flops   274 x    17 x    17             39593000       0.0%    100.0%      0.0%
 flops   100 x    17 x   100             40800000       0.0%    100.0%      0.0%
 flops    57 x   100 x    15             43605000       0.0%    100.0%      0.0%
 flops   100 x    57 x    15             43605000       0.0%    100.0%      0.0%
 flops   234 x    15 x    60             44647200       0.0%    100.0%      0.0%
 flops    32 x    32 x    32             49020928       0.0%    100.0%      0.0%
 flops    57 x   100 x    17             49419000       0.0%    100.0%      0.0%
 flops   100 x    57 x    17             49419000       0.0%    100.0%      0.0%
 flops    32 x    32 x    60             49889280       0.0%    100.0%      0.0%
 flops   234 x    17 x    60             50600160       0.0%    100.0%      0.0%
 flops   231 x    15 x    15             51975000       0.0%    100.0%      0.0%
 flops   274 x    15 x    60             52279200       0.0%    100.0%      0.0%
 flops    15 x    15 x    87             55632150       0.0%    100.0%      0.0%
 flops   234 x    15 x    32             56160000       0.0%    100.0%      0.0%
 flops   234 x    32 x    15             56160000       0.0%    100.0%      0.0%
 flops   274 x    17 x    60             59249760       0.0%    100.0%      0.0%
 flops   234 x    17 x    32             63648000       0.0%    100.0%      0.0%
 flops   234 x    32 x    17             63648000       0.0%    100.0%      0.0%
 flops   100 x   100 x    32             65280000       0.0%    100.0%      0.0%
 flops   274 x    32 x    15             65760000       0.0%    100.0%      0.0%
 flops   274 x    15 x    32             65760000       0.0%    100.0%      0.0%
 flops   231 x    17 x    17             66759000       0.0%    100.0%      0.0%
 flops    17 x    17 x    87             71456406       0.0%    100.0%      0.0%
 flops   274 x    32 x    17             74528000       0.0%    100.0%      0.0%
 flops   274 x    17 x    32             74528000       0.0%    100.0%      0.0%
 flops    30 x    30 x    15             75735000       0.0%    100.0%      0.0%
 flops    30 x    30 x    17             85833000       0.0%    100.0%      0.0%
 flops   231 x    15 x    60             88149600       0.0%    100.0%      0.0%
 flops    30 x   100 x    32             97920000       0.0%    100.0%      0.0%
 flops   100 x    30 x    32             97920000       0.0%    100.0%      0.0%
 flops   231 x    17 x    60             99902880       0.0%    100.0%      0.0%
 flops    30 x    15 x   100            108900000       0.0%    100.0%      0.0%
 flops   100 x    15 x    30            108900000       0.0%    100.0%      0.0%
 flops   231 x    15 x    32            110880000       0.0%    100.0%      0.0%
 flops   231 x    32 x    15            110880000       0.0%    100.0%      0.0%
 flops    15 x    32 x    87            118681920       0.0%    100.0%      0.0%
 flops    32 x    15 x    87            118681920       0.0%    100.0%      0.0%
 flops    30 x    17 x   100            122400000       0.0%    100.0%      0.0%
 flops   100 x    17 x    30            122400000       0.0%    100.0%      0.0%
 flops   231 x    17 x    32            125664000       0.0%    100.0%      0.0%
 flops   231 x    32 x    17            125664000       0.0%    100.0%      0.0%
 flops   234 x    15 x    57            127244520       0.0%    100.0%      0.0%
 flops    30 x    57 x    15            130815000       0.0%    100.0%      0.0%
 flops    57 x    30 x    15            130815000       0.0%    100.0%      0.0%
 flops    17 x    32 x    87            134506176       0.0%    100.0%      0.0%
 flops    32 x    17 x    87            134506176       0.0%    100.0%      0.0%
 flops    32 x    32 x    57            142184448       0.0%    100.0%      0.0%
 flops   234 x    17 x    57            144210456       0.0%    100.0%      0.0%
 flops    30 x    57 x    17            148257000       0.0%    100.0%      0.0%
 flops    57 x    30 x    17            148257000       0.0%    100.0%      0.0%
 flops   274 x    15 x    57            148995720       0.0%    100.0%      0.0%
 flops   100 x    32 x   100            154240000       0.0%    100.0%      0.0%
 flops   274 x    17 x    57            168861816       0.0%    100.0%      0.0%
 flops    57 x   100 x    32            186048000       0.0%    100.0%      0.0%
 flops   100 x    57 x    32            186048000       0.0%    100.0%      0.0%
 flops   234 x    32 x    60            190494720       0.0%    100.0%      0.0%
 flops    57 x    15 x   100            206910000       0.0%    100.0%      0.0%
 flops   100 x    15 x    57            206910000       0.0%    100.0%      0.0%
 flops   274 x    32 x    60            223057920       0.0%    100.0%      0.0%
 flops    57 x    17 x   100            232560000       0.0%    100.0%      0.0%
 flops   100 x    17 x    57            232560000       0.0%    100.0%      0.0%
 flops   234 x    32 x    32            239616000       0.0%    100.0%      0.0%
 flops   231 x    15 x    57            251226360       0.0%    100.0%      0.0%
 flops    57 x    57 x    15            273403350       0.0%    100.0%      0.0%
 flops   274 x    32 x    32            280576000       0.0%    100.0%      0.0%
 flops   231 x    17 x    57            284723208       0.0%    100.0%      0.0%
 flops    57 x    57 x    17            309857130       0.0%    100.0%      0.0%
 flops    30 x    30 x    32            323136000       0.0%    100.0%      0.0%
 flops    30 x    15 x    30            326700000       0.0%    100.0%      0.0%
 flops    30 x    17 x    30            367200000       0.0%    100.0%      0.0%
 flops   231 x    32 x    60            376104960       0.0%    100.0%      0.0%
 flops   234 x    15 x    87            453169080       0.0%    100.0%      0.0%
 flops   100 x    32 x    30            462720000       0.0%    100.0%      0.0%
 flops    30 x    32 x   100            462720000       0.0%    100.0%      0.0%
 flops   231 x    32 x    32            473088000       0.0%    100.0%      0.0%
 flops    32 x    32 x    87            506376192       0.0%    100.0%      0.0%
 flops   234 x    17 x    87            513591624       0.0%    100.0%      0.0%
 flops   274 x    15 x    87            530633880       0.0%    100.0%      0.0%
 flops   234 x    32 x    57            542909952       0.0%    100.0%      0.0%
 flops    30 x    57 x    32            558144000       0.0%    100.0%      0.0%
 flops    57 x    30 x    32            558144000       0.0%    100.0%      0.0%
 flops   274 x    17 x    87            601385064       0.0%    100.0%      0.0%
 flops    30 x    15 x    57            620730000       0.0%    100.0%      0.0%
 flops    57 x    15 x    30            620730000       0.0%    100.0%      0.0%
 flops   274 x    32 x    57            635715072       0.0%    100.0%      0.0%
 flops    30 x    17 x    57            697680000       0.0%    100.0%      0.0%
 flops    57 x    17 x    30            697680000       0.0%    100.0%      0.0%
 flops    57 x    32 x   100            879168000       0.0%    100.0%      0.0%
 flops   100 x    32 x    57            879168000       0.0%    100.0%      0.0%
 flops   231 x    15 x    87            894718440       0.0%    100.0%      0.0%
 flops   231 x    17 x    87           1014014232       0.0%    100.0%      0.0%
 flops   231 x    32 x    57           1071899136       0.0%    100.0%      0.0%
 flops    57 x    57 x    32           1166520960       0.0%    100.0%      0.0%
 flops    57 x    15 x    57           1179387000       0.0%    100.0%      0.0%
 flops    57 x    17 x    57           1325592000       0.0%    100.0%      0.0%
 flops    30 x    32 x    30           1388160000       0.0%    100.0%      0.0%
 flops   234 x    32 x    87           1933521408       0.0%    100.0%      0.0%
 flops   274 x    32 x    87           2264037888       0.0%    100.0%      0.0%
 flops    57 x    32 x    30           2637504000       0.0%    100.0%      0.0%
 flops    30 x    32 x    57           2637504000       0.0%    100.0%      0.0%
 flops   231 x    32 x    87           3817465344       0.0%    100.0%      0.0%
 flops    57 x    32 x    57           5011257600       0.0%    100.0%      0.0%
 flops inhomo. stacks                  2809703000     100.0%      0.0%      0.0%
 flops total                        50.006651E+09       5.6%     94.4%      0.0%
 flops max/rank                      9.192910E+09       6.4%     93.6%      0.0%
 matmuls inhomo. stacks                      3320     100.0%      0.0%      0.0%
 matmuls total                             313762       1.1%     98.9%      0.0%
 number of processed stacks                171496       1.9%     98.1%      0.0%
 average stack size                                     1.0       1.8       0.0
 marketing flops                    54.400463E+09
 -------------------------------------------------------------------------------
 # multiplications                           2221
 max memory usage/rank             745.795584E+06
 # max total images/rank                        3
 # max 3D layers                                1
 # MPI messages exchanged                 2132160
 MPI messages size (bytes):
  total size                        42.957480E+09
  min size                           0.000000E+00
  max size                         284.960000E+03
  average size                      20.147400E+03
 MPI breakdown and total messages size (bytes):
             size <=      128             1615172                        0
       128 < size <=     8192               77014                436005256
      8192 < size <=    32768              160307               2883704632
     32768 < size <=   131072              115228              10406679056
    131072 < size <=  4194304              164439              29231075280
   4194304 < size <= 16777216                   0                        0
  16777216 < size                               0                        0
 -------------------------------------------------------------------------------

 *** WARNING in dbcsr_mm.F:290 :: Using a non-square number of MPI ranks ***
 *** might lead to poor performance. Used ranks: 48 Suggested: 49 100    ***

 -------------------------------------------------------------------------------
 -                                                                             -
 -                      DBCSR MESSAGE PASSING PERFORMANCE                      -
 -                                                                             -
 -------------------------------------------------------------------------------
 ROUTINE             CALLS      AVE VOLUME [Bytes]
 MP_Bcast              148                     12.
 MP_Allreduce        12106                      8.
 MP_Alltoall          8149                   9021.
 MP_ISend           100638                  12975.
 MP_IRecv            99976                  11651.
 -------------------------------------------------------------------------------

 -------------------------------------------------------------------------------
 -                                                                             -
 -                                GRID STATISTICS                              -
 -                                                                             -
 -------------------------------------------------------------------------------
 LP    KERNEL             BACKEND                              COUNT     PERCENT
 2     collocate ortho    REF                                 839154      11.38%
 2     integrate ortho    REF                                 822700      11.16%
 3     collocate ortho    REF                                 741540      10.06%
 1     collocate ortho    REF                                 740724      10.05%
 3     integrate ortho    REF                                 727000       9.86%
 1     integrate ortho    REF                                 726200       9.85%
 4     collocate ortho    REF                                 527646       7.16%
 4     integrate ortho    REF                                 517300       7.02%
 0     collocate ortho    REF                                 372708       5.05%
 0     integrate ortho    REF                                 365400       4.96%
 5     collocate ortho    REF                                 280908       3.81%
 5     integrate ortho    REF                                 275400       3.73%
 6     collocate ortho    REF                                 120768       1.64%
 6     integrate ortho    REF                                 118400       1.61%
 2     collocate general  REF                                  50400       0.68%
 2     integrate general  REF                                  50400       0.68%
 7     collocate ortho    REF                                  41004       0.56%
 7     integrate ortho    REF                                  40200       0.55%
 8     collocate ortho    REF                                   8058       0.11%
 8     integrate ortho    REF                                   7900       0.11%
 -------------------------------------------------------------------------------

 MEMORY| Estimated peak process memory [MiB]                                 726

 -------------------------------------------------------------------------------
 -                                                                             -
 -                         MESSAGE PASSING PERFORMANCE                         -
 -                                                                             -
 -------------------------------------------------------------------------------

 ROUTINE             CALLS      AVE VOLUME [Bytes]
 MP_Group                4
 MP_Bcast             8059                  52066.
 MP_Allreduce        15822                 120462.
 MP_Sync               200
 MP_Alltoall          1926               16565956.
 MP_ISendRecv        18988                  88128.
 MP_Wait             32092
 MP_comm_split          98
 MP_ISend            11088                 699589.
 MP_IRecv            11088                 699605.
 MP_Recv                60                  34532.
 -------------------------------------------------------------------------------


 -------------------------------------------------------------------------------
 -                                                                             -
 -                           R E F E R E N C E S                               -
 -                                                                             -
 -------------------------------------------------------------------------------
 
 CP2K version 10.0 (Development Version), the CP2K developers group (2022).
 CP2K is freely available from https://www.cp2k.org/ .

 Kuehne,Thomas D.; Iannuzzi,Marcella; Del Ben,Mauro;
 Rybkin,Vladimir V.; Seewald,Patrick; Stein,Frederick; Laino,Teodoro;
 Khaliullin,Rustam Z.; Schuett,Ole; Schiffmann,Florian; Golze,Dorothea;
 Wilhelm,Jan; Chulkov,Sergey; Bani-Hashemian,Mohammad Hossein;
 Weber,Valery; Borstnik,Urban; Taillefumier,Mathieu;
 Jakobovits,Alice Shoshana; Lazzaro,Alfio; Pabst,Hans; Mueller,Tiziano;
 Schade,Robert; Guidon,Manuel; Andermatt,Samuel; Holmberg,Nico;
 Schenter,Gregory K.; Hehn,Anna; Bussy,Augustin; Belleflamme,Fabian;
 Tabacchi,Gloria; Gloess,Andreas; Lass,Michael; Bethune,Iain;
 Mundy,Christopher J.; Plessl,Christian; Watkins,Matt;
 VandeVondele,Joost; Krack,Matthias; Hutter,Juerg. 
 The Journal of Chemical Physics, 152 (19), (2020). 
 CP2K: An electronic structure and molecular dynamics software package -
 Quickstep: Efficient and accurate electronic structure calculations.
 https://doi.org/10.1063/5.0007045

 Schuett, Ole; Messmer, Peter; Hutter, Juerg; VandeVondele, Joost. 
 Electronic Structure Calculations on Graphics Processing Units, John
 Wiley & Sons, Ltd, 173-190 (2016). 
 GPU-Accelerated Sparse Matrix-Matrix Multiplication for
 Linear Scaling Density Functional Theory.
 https://doi.org/10.1002/9781118670712.ch8

 Heinecke, A; Henry, G; Hutchinson, M; Pabst, H. 
 Proceedings of Intl. Supercomputing Conference, 981-991 (2016). 
 LIBXSMM: Accelerating Small Matrix Multiplications
 by Runtime Code Generation.
 https://doi.org/10.1109/SC.2016.83

 Borstnik, U; VandeVondele, J; Weber, V; Hutter, J. 
 PARALLEL COMPUTING, 40 (5-6), 47-58 (2014). 
 Sparse matrix multiplication: The distributed block-compressed sparse
 row library.
 https://doi.org/10.1016/j.parco.2014.03.012

 Hutter, J; Iannuzzi, M; Schiffmann, F; VandeVondele, J. 
 WIREs Comput Mol Sci., 4 (1), 15-25 (2014). 
 CP2K: atomistic simulations of condensed matter systems.
 https://doi.org/10.1002/wcms.1159

 Frigo, M; Johnson, SG. 
 PROCEEDINGS OF THE IEEE, 93 (2), 216-231 (2005). 
 The design and implementation of FFTW3.
 https://doi.org/10.1109/JPROC.2004.840301

 VandeVondele, J; Hutter, J. 
 JOURNAL OF CHEMICAL PHYSICS, 118 (10), 4365-4369 (2003). 
 An efficient orbital transformation method for electronic structure
 calculations.
 https://doi.org/10.1063/1.1543154

 Lippert, G; Hutter, J; Parrinello, M. 
 THEORETICAL CHEMISTRY ACCOUNTS, 103 (2), 124-140 (1999). 
 The Gaussian and augmented-plane-wave density functional method for ab
 initio molecular dynamics simulations.
 https://doi.org/10.1007/s002140050523

 Krack, M; Parrinello, M. 
 PHYSICAL CHEMISTRY CHEMICAL PHYSICS, 2 (10), 2105-2112 (2000). 
 All-electron ab-initio molecular dynamics.
 https://doi.org/10.1039/b001167n

 Perdew, JP; Burke, K; Ernzerhof, M. 
 PHYSICAL REVIEW LETTERS, 77 (18), 3865-3868 (1996). 
 Generalized gradient approximation made simple.
 https://doi.org/10.1103/PhysRevLett.77.3865


 -------------------------------------------------------------------------------
 -                                                                             -
 -                                T I M I N G                                  -
 -                                                                             -
 -------------------------------------------------------------------------------
 SUBROUTINE                       CALLS  ASD         SELF TIME        TOTAL TIME
                                MAXIMUM       AVERAGE  MAXIMUM  AVERAGE  MAXIMUM
 CP2K                                 1  1.0    0.017    0.037  364.494  364.671
 qs_energies                          1  2.0    0.000    0.000  364.016  364.192
 scf_env_do_scf                       1  3.0    0.000    0.000  361.871  362.047
 scf_env_do_scf_inner_loop           50  4.0    0.001    0.004  343.097  343.264
 qs_ks_update_qs_env                 53  5.0    0.001    0.002  286.284  286.429
 rebuild_ks_matrix                   50  6.0    0.000    0.000  286.270  286.416
 qs_ks_build_kohn_sham_matrix        50  7.0    0.013    0.016  286.270  286.416
 mp_sum_d                          4122 10.0   84.046   87.505   84.046   87.505
 calculate_vxc_atom                  50  8.0    0.379    4.253   82.668   82.709
 sum_up_and_integrate                50  8.0    0.163    0.195   77.458   77.492
 integrate_v_rspace                 100  9.0    0.004    0.006   77.295   77.328
 gaVxcgb_GC                         100  9.0    2.276   76.836    2.276   76.836
 pw_transfer                       1860 10.3    0.265    0.316   67.546   71.958
 fft_wrap_pw1pw2                   1710 11.3    0.032    0.038   66.832   71.233
 qs_rho_update_rho                   51  5.0    0.001    0.001   71.152   71.186
 calculate_rho_elec                 102  6.0    0.184    0.197   68.692   68.724
 rs_pw_transfer                     908  9.5    0.028    0.034   64.957   68.647
 fft_wrap_pw1pw2_300               1104 12.8    5.351    5.649   63.570   67.924
 density_rs2pw                      102  7.0    0.007    0.008   61.136   65.031
 grid_integrate_task_list           100 10.0    5.001   58.569    5.001   58.569
 mp_alltoall_d11v                  1927 11.9   53.786   58.083   53.786   58.083
 rs_gather_matrices                 100 10.0    0.011    0.023   53.633   57.921
 qs_vxc_create                       50  8.0    0.001    0.001   55.169   55.196
 xc_vxc_pw_create                    50  9.0    0.741    0.887   55.168   55.194
 fft3d_ps                          1710 13.3   24.721   28.072   48.249   52.610
 rs_pw_transfer_RS2PW_300           152  9.7    4.630    5.771   46.869   50.673
 prepare_gapw_den                    50  8.0    0.003    0.004   49.590   49.732
 mp_waitany                       11088 11.5   45.755   49.662   45.755   49.662
 grid_collocate_task_list           102  7.0    6.895   48.636    6.895   48.636
 xc_pw_derive                       600 11.0    0.012    0.013   40.978   45.568
 calculate_rho_atom                 150  9.0    7.859   37.317    7.859   37.317
 xc_pw_divergence                   100 10.0    0.007    0.008   28.540   32.884
 xc_rho_set_and_dset_create          50 10.0    0.753    0.867   24.938   28.412
 calculate_rho0_atom                150  9.0   21.009   22.658   21.009   22.658
 mp_alltoall_z22v                  1710 15.3   14.863   21.859   14.863   21.859
 mp_sum_dv                         7054 13.2   14.322   20.902   14.322   20.902
 yz_to_x                            858 13.9    4.452    5.081   14.307   19.536
 init_scf_loop                        3  4.0    0.000    0.000   18.772   18.781
 potential_pw2rs                    100 10.0    0.016    0.017   18.657   18.724
 integrate_vhg0_rspace               50  8.0    1.640    2.559   11.747   11.850
 x_to_yz                            852 14.8    4.124    4.497    9.132    9.778
 rs_pw_transfer_PW2RS_300           150 11.3    6.051    6.299    9.098    9.433
 xc_functional_eval                 250 10.5    0.001    0.002    4.619    9.237
 pbe_lsd_eval                       250 11.5    4.618    9.236    4.618    9.236
 mp_sum_dm                         5334  7.4    7.940    8.570    7.940    8.570
 -------------------------------------------------------------------------------

 The number of warnings for this run is : 1
 
 -------------------------------------------------------------------------------
  **** **** ******  **  PROGRAM ENDED AT                 2022-05-14 12:06:08.115
 ***** ** ***  *** **   PROGRAM RAN ON                                   tcopt10
 **    ****   ******    PROGRAM RAN BY                                    hutter
 ***** **    ** ** **   PROGRAM PROCESS ID                                 14443
  **** **  *******  **  PROGRAM STOPPED IN /data/hutter/GITHUB/BASIS/scMOLOPT/PB
                                           E/Fe
