 DBCSR| CPU Multiplication driver                                           XSMM
 DBCSR| Multrec recursion limit                                              512
 DBCSR| Multiplication stack size                                           1000
 DBCSR| Maximum elements for images                                    UNLIMITED
 DBCSR| Multiplicative factor virtual images                                   1
 DBCSR| Use multiplication densification                                       T
 DBCSR| Multiplication size stacks                                             3
 DBCSR| Use memory pool for CPU allocation                                     F
 DBCSR| Number of 3D layers                                               SINGLE
 DBCSR| Use MPI memory allocation                                              F
 DBCSR| Use RMA algorithm                                                      F
 DBCSR| Use Communication thread                                               T
 DBCSR| Communication thread load                                             87
 DBCSR| MPI: My node id                                                        0
 DBCSR| MPI: Number of nodes                                                  48
 DBCSR| OMP: Current number of threads                                         1
 DBCSR| OMP: Max number of threads                                             1
 DBCSR| Split modifier for TAS multiplication algorithm                  1.0E+00


  **** **** ******  **  PROGRAM STARTED AT               2022-06-07 17:38:17.139
 ***** ** ***  *** **   PROGRAM STARTED ON                               tcopt10
 **    ****   ******    PROGRAM STARTED BY                                hutter
 ***** **    ** ** **   PROGRAM PROCESS ID                                 81258
  **** **  *******  **  PROGRAM STARTED IN /data/hutter/GITHUB/BASIS/scMOLOPT/PB
                                           E/Au

 CP2K| version string:                   CP2K version 10.0 (Development Version)
 CP2K| source code revision number:                                  git:d19b00a
 CP2K| cp2kflags: omp libint fftw3 libxc elpa parallel mpi3 scalapack cosma xsmm
 CP2K|             spglib sirius libvori libbqb
 CP2K| is freely available from                            https://www.cp2k.org/
 CP2K| Program compiled at                      Wed 18 May 2022 12:15:59 PM CEST
 CP2K| Program compiled on                                               tcopt10
 CP2K| Program compiled for                                                local
 CP2K| Data directory path                   /data/hutter/GITHUB/TDLRI/cp2k/data
 CP2K| Input file name                                              Au3m-ref.inp

 GLOBAL| Force Environment number                                              1
 GLOBAL| Basis set file name                                        ../def2QZVPP
 GLOBAL| Potential file name                                        ../POTENTIAL
 GLOBAL| MM Potential file name                                     MM_POTENTIAL
 GLOBAL| Coordinate file name                                      __STD_INPUT__
 GLOBAL| Method name                                                        CP2K
 GLOBAL| Project name                                                    refAu3m
 GLOBAL| Run type                                                         ENERGY
 GLOBAL| FFT library                                                       FFTW3
 GLOBAL| Diagonalization library                                            ELPA
 GLOBAL| Minimum number of eigenvectors for ELPA usage                        16
 GLOBAL| Orthonormality check for eigenvectors                          DISABLED
 GLOBAL| Matrix multiplication library                                     COSMA
 GLOBAL| All-to-all communication in single precision                          F
 GLOBAL| FFTs using library dependent lengths                                  F
 GLOBAL| Grid backend                                                       AUTO
 GLOBAL| Global print level                                                  LOW
 GLOBAL| MPI I/O enabled                                                       T
 GLOBAL| Total number of message passing processes                            48
 GLOBAL| Number of threads for this process                                    1
 GLOBAL| This output is from process                                           0
 GLOBAL| Stack size for threads created by OpenMP (OMP_STACKSIZE)        default
 GLOBAL| CPU model name                          AMD EPYC 7401 24-Core Processor
 GLOBAL| CPUID                                                              1002

 MEMORY| system memory details [Kb]
 MEMORY|                        rank 0           min           max       average
 MEMORY| MemTotal            263969132     263969132     263969132     263969132
 MEMORY| MemFree             236071056     236071056     236071056     236071056
 MEMORY| Buffers                  2836          2836          2836          2836
 MEMORY| Cached               20351464      20351464      20351464      20351464
 MEMORY| Slab                  1478540       1478540       1478540       1478540
 MEMORY| SReclaimable           874196        874196        874196        874196
 MEMORY| MemLikelyFree       257299552     257299552     257299552     257299552


 GENERATE|  Preliminary Number of Bonds generated:                             0
 GENERATE|  Achieved consistency in connectivity generation.

 *******************************************************************************
 *******************************************************************************
 **                                                                           **
 **     #####                         ##              ##                      **
 **    ##   ##            ##          ##              ##                      **
 **   ##     ##                       ##            ######                    **
 **   ##     ##  ##   ##  ##   #####  ##  ##   ####   ##    #####    #####    **
 **   ##     ##  ##   ##  ##  ##      ## ##   ##      ##   ##   ##  ##   ##   **
 **   ##  ## ##  ##   ##  ##  ##      ####     ###    ##   ######   ######    **
 **    ##  ###   ##   ##  ##  ##      ## ##      ##   ##   ##       ##        **
 **     #######   #####   ##   #####  ##  ##  ####    ##    #####   ##        **
 **           ##                                                    ##        **
 **                                                                           **
 **                                                ... make the atoms dance   **
 **                                                                           **
 **            Copyright (C) by CP2K developers group (2000-2022)             **
 **                      J. Chem. Phys. 152, 194103 (2020)                    **
 **                                                                           **
 *******************************************************************************


 TOTAL NUMBERS AND MAXIMUM NUMBERS

  Total number of            - Atomic kinds:                                   1
                             - Atoms:                                          3
                             - Shell sets:                                    66
                             - Shells:                                        66
                             - Primitive Cartesian functions:                 87
                             - Cartesian basis functions:                    348
                             - Spherical basis functions:                    264

  Maximum angular momentum of- Orbital basis functions:                        4
                             - Local part of the GTH pseudopotential:          2
                             - Non-local part of the GTH pseudopotential:      5


 SCF PARAMETERS         Density guess:                                    ATOMIC
                        --------------------------------------------------------
                        max_scf:                                              20
                        max_scf_history:                                       0
                        max_diis:                                              4
                        --------------------------------------------------------
                        eps_scf:                                        1.00E-07
                        eps_scf_history:                                0.00E+00
                        eps_diis:                                       1.00E-01
                        eps_eigval:                                     1.00E-05
                        --------------------------------------------------------
                        level_shift [a.u.]:                             0.000000
                        --------------------------------------------------------
                        Outer loop SCF in use 
                        No variables optimised in outer loop
                        eps_scf                                         1.00E-07
                        max_scf                                                5
                        No outer loop optimization
                        step_size                                       5.00E-01

 Number of electrons:                                                         58
 Number of occupied orbitals:                                                 29
 Number of molecular orbitals:                                                29

 Number of orbital functions:                                                264
 Number of independent orbital functions:                                    264

 Extrapolation method: initial_guess


 SCF WAVEFUNCTION OPTIMIZATION

  ----------------------------------- OT ---------------------------------------
  Minimizer      : DIIS                : direct inversion
                                         in the iterative subspace
                                         using   7 DIIS vectors
                                         safer DIIS on
  Preconditioner : FULL_ALL            : diagonalization, state selective
  Precond_solver : DEFAULT
  stepsize       :    0.10000000                  energy_gap     :    0.08000000
  eps_taylor     :   0.10000E-15                  max_taylor     :             4
  ----------------------------------- OT ---------------------------------------

  Step     Update method      Time    Convergence         Total energy    Change
  ------------------------------------------------------------------------------
     1 OT DIIS     0.10E+00    0.7     0.07606463      -406.1664622151 -4.06E+02
     2 OT DIIS     0.10E+00    0.9     0.03379896      -408.0289026410 -1.86E+00
     3 OT DIIS     0.10E+00    0.9     0.01361404      -408.3784035988 -3.50E-01
     4 OT DIIS     0.10E+00    0.8     0.00859799      -408.4850350328 -1.07E-01
     5 OT DIIS     0.10E+00    0.8     0.00654581      -408.5216248410 -3.66E-02
     6 OT DIIS     0.10E+00    0.9     0.00479382      -408.5620642118 -4.04E-02
     7 OT DIIS     0.10E+00    0.8     0.00397660      -408.5991541055 -3.71E-02
     8 OT DIIS     0.10E+00    0.8     0.00269446      -408.6222515184 -2.31E-02
     9 OT DIIS     0.10E+00    0.8     0.00382582      -408.6263778779 -4.13E-03
    10 OT DIIS     0.10E+00    0.8     0.00211900      -408.6409142648 -1.45E-02
    11 OT DIIS     0.10E+00    0.8     0.00109519      -408.6471556806 -6.24E-03
    12 OT DIIS     0.10E+00    0.8     0.00110119      -408.6494683665 -2.31E-03
    13 OT DIIS     0.10E+00    0.8     0.00063312      -408.6510894386 -1.62E-03
    14 OT DIIS     0.10E+00    0.8     0.00036580      -408.6513378832 -2.48E-04
    15 OT DIIS     0.10E+00    0.8     0.00014681      -408.6515750244 -2.37E-04
    16 OT DIIS     0.10E+00    0.8     0.00012976      -408.6516029815 -2.80E-05
    17 OT DIIS     0.10E+00    0.9     0.00009216      -408.6516252975 -2.23E-05
    18 OT DIIS     0.10E+00    0.8     0.00005737      -408.6516312348 -5.94E-06
    19 OT DIIS     0.10E+00    0.8     0.00002418      -408.6516349026 -3.67E-06
    20 OT DIIS     0.10E+00    0.8     0.00001479      -408.6516358038 -9.01E-07

  Leaving inner SCF loop after reaching    20 steps.


  Electronic density on regular grids:        -65.5902867561       -7.5902867561
  Core density on regular grids:               57.0000000000        0.0000000000
  Hard and soft densities (Lebedev):          -60.4945299108      -68.0848165880
  Total Rho_soft + Rho1_hard - Rho1_soft      -58.0000000789
  Total charge density (r-space):              -1.0000000789
  Total Rho_soft + Rho0_soft (g-space):        -1.0000007357

  Overlap energy of the core charge distribution:               0.00000000005951
  Self energy of the core charge distribution:               -630.27446667683296
  Core Hamiltonian energy:                                    137.89472650016498
  Hartree energy:                                             572.96687167719892
  Exchange-correlation energy:                                -47.63852817180178

  GAPW| Exc from hard and soft atomic rho1:                     9.06904820569464
  GAPW| local Eh = 1 center integrals:                       -450.66928733829366

  Total energy:                                              -408.65163580381039

  outer SCF iter =    1 RMS gradient =   0.15E-04 energy =       -408.6516358038

  ----------------------------------- OT ---------------------------------------
  Minimizer      : DIIS                : direct inversion
                                         in the iterative subspace
                                         using   7 DIIS vectors
                                         safer DIIS on
  Preconditioner : FULL_ALL            : diagonalization, state selective
  Precond_solver : DEFAULT
  stepsize       :    0.10000000                  energy_gap     :    0.08000000
  eps_taylor     :   0.10000E-15                  max_taylor     :             4
  ----------------------------------- OT ---------------------------------------

  Step     Update method      Time    Convergence         Total energy    Change
  ------------------------------------------------------------------------------
     1 OT DIIS     0.10E+00    1.7     0.00001942      -408.6516362385 -4.35E-07
     2 OT DIIS     0.10E+00    0.8     0.00001096      -408.6516364605 -2.22E-07
     3 OT DIIS     0.10E+00    0.8     0.00000355      -408.6516365625 -1.02E-07
     4 OT DIIS     0.10E+00    0.8     0.00000097      -408.6516365691 -6.60E-09
     5 OT DIIS     0.10E+00    0.8     0.00000023      -408.6516365698 -6.78E-10
     6 OT DIIS     0.10E+00    0.8     0.00000006      -408.6516365698 -3.76E-11

  *** SCF run converged in     6 steps ***


  Electronic density on regular grids:        -65.5902307888       -7.5902307888
  Core density on regular grids:               57.0000000000        0.0000000000
  Hard and soft densities (Lebedev):          -60.4946123968      -68.0848431067
  Total Rho_soft + Rho1_hard - Rho1_soft      -58.0000000789
  Total charge density (r-space):              -1.0000000789
  Total Rho_soft + Rho0_soft (g-space):        -1.0000007357

  Overlap energy of the core charge distribution:               0.00000000005951
  Self energy of the core charge distribution:               -630.27446667683296
  Core Hamiltonian energy:                                    137.89513592233470
  Hartree energy:                                             572.96651563454702
  Exchange-correlation energy:                                -47.63854375048469

  GAPW| Exc from hard and soft atomic rho1:                     9.06896620867435
  GAPW| local Eh = 1 center integrals:                       -450.66924390811977

  Total energy:                                              -408.65163656982190

  outer SCF iter =    2 RMS gradient =   0.57E-07 energy =       -408.6516365698
  outer SCF loop converged in   2 iterations or   26 steps


 ENERGY| Total FORCE_EVAL ( QS ) energy [a.u.]:             -408.651636569821903

 -------------------------------------------------------------------------------
 -                                                                             -
 -                                DBCSR STATISTICS                             -
 -                                                                             -
 -------------------------------------------------------------------------------
 COUNTER                                    TOTAL       BLAS       SMM       ACC
 flops    29 x    29 x    29              8780040       0.0%    100.0%      0.0%
 flops    88 x    29 x    29             19538112       0.0%    100.0%      0.0%
 flops   176 x    29 x    29             39076224       0.0%    100.0%      0.0%
 flops    29 x    29 x    88             47069088       0.0%    100.0%      0.0%
 flops    88 x    88 x    29             72762624       0.0%    100.0%      0.0%
 flops   176 x    29 x    88            150915072       0.0%    100.0%      0.0%
 flops    88 x    29 x    88            342253824       0.0%    100.0%      0.0%
 flops inhomo. stacks                           0       0.0%      0.0%      0.0%
 flops total                       680.394984E+06       0.0%    100.0%      0.0%
 flops max/rank                    435.831720E+06       0.0%    100.0%      0.0%
 matmuls inhomo. stacks                         0       0.0%      0.0%      0.0%
 matmuls total                               1854       0.0%    100.0%      0.0%
 number of processed stacks                  1629       0.0%    100.0%      0.0%
 average stack size                                     0.0       1.1       0.0
 marketing flops                   717.663232E+06
 -------------------------------------------------------------------------------
 # multiplications                            569
 max memory usage/rank             347.697152E+06
 # max total images/rank                        3
 # max 3D layers                                1
 # MPI messages exchanged                  546240
 MPI messages size (bytes):
  total size                       993.267776E+06
  min size                           0.000000E+00
  max size                         123.904000E+03
  average size                       1.818372E+03
 MPI breakdown and total messages size (bytes):
             size <=      128              525981                        0
       128 < size <=     8192                2916                 19618848
      8192 < size <=    32768                7542                153977472
     32768 < size <=   131072                9801                819671424
    131072 < size <=  4194304                   0                        0
   4194304 < size <= 16777216                   0                        0
  16777216 < size                               0                        0
 -------------------------------------------------------------------------------

 *** WARNING in dbcsr_mm.F:290 :: Using a non-square number of MPI ranks ***
 *** might lead to poor performance. Used ranks: 48 Suggested: 49 100    ***

 -------------------------------------------------------------------------------
 -                                                                             -
 -                      DBCSR MESSAGE PASSING PERFORMANCE                      -
 -                                                                             -
 -------------------------------------------------------------------------------
 ROUTINE             CALLS      AVE VOLUME [Bytes]
 MP_Bcast                8                     12.
 MP_Allreduce         3041                      8.
 MP_Alltoall          2206                   7167.
 MP_ISend            25350                   3537.
 MP_IRecv            25084                   2156.
 -------------------------------------------------------------------------------

 -------------------------------------------------------------------------------
 -                                                                             -
 -                                GRID STATISTICS                              -
 -                                                                             -
 -------------------------------------------------------------------------------
 LP    KERNEL             BACKEND                              COUNT     PERCENT
 1     collocate ortho    REF                                  44604      11.24%
 1     integrate ortho    REF                                  42952      10.82%
 2     collocate ortho    REF                                  39717      10.01%
 3     collocate ortho    REF                                  39690      10.00%
 2     integrate ortho    REF                                  38246       9.64%
 3     integrate ortho    REF                                  38220       9.63%
 4     collocate ortho    REF                                  33966       8.56%
 4     integrate ortho    REF                                  32708       8.24%
 5     collocate ortho    REF                                  15822       3.99%
 5     integrate ortho    REF                                  15236       3.84%
 0     collocate ortho    REF                                  14607       3.68%
 0     integrate ortho    REF                                  14066       3.54%
 6     collocate ortho    REF                                   6669       1.68%
 6     integrate ortho    REF                                   6422       1.62%
 2     collocate general  REF                                   3744       0.94%
 2     integrate general  REF                                   3744       0.94%
 7     collocate ortho    REF                                   2700       0.68%
 7     integrate ortho    REF                                   2600       0.66%
 8     collocate ortho    REF                                    567       0.14%
 8     integrate ortho    REF                                    546       0.14%
 -------------------------------------------------------------------------------

 MEMORY| Estimated peak process memory [MiB]                                 332

 -------------------------------------------------------------------------------
 -                                                                             -
 -                         MESSAGE PASSING PERFORMANCE                         -
 -                                                                             -
 -------------------------------------------------------------------------------

 ROUTINE             CALLS      AVE VOLUME [Bytes]
 MP_Group                4
 MP_Bcast              686                 398394.
 MP_Allreduce         1961                 120484.
 MP_Sync                56
 MP_Alltoall           592                8006065.
 MP_ISendRecv         7473                 115392.
 MP_Wait             13878
 MP_comm_split          26
 MP_ISend             5880                 242072.
 MP_IRecv             5880                 242128.
 MP_Recv                18                   6336.
 -------------------------------------------------------------------------------


 -------------------------------------------------------------------------------
 -                                                                             -
 -                           R E F E R E N C E S                               -
 -                                                                             -
 -------------------------------------------------------------------------------
 
 CP2K version 10.0 (Development Version), the CP2K developers group (2022).
 CP2K is freely available from https://www.cp2k.org/ .

 Kuehne,Thomas D.; Iannuzzi,Marcella; Del Ben,Mauro;
 Rybkin,Vladimir V.; Seewald,Patrick; Stein,Frederick; Laino,Teodoro;
 Khaliullin,Rustam Z.; Schuett,Ole; Schiffmann,Florian; Golze,Dorothea;
 Wilhelm,Jan; Chulkov,Sergey; Bani-Hashemian,Mohammad Hossein;
 Weber,Valery; Borstnik,Urban; Taillefumier,Mathieu;
 Jakobovits,Alice Shoshana; Lazzaro,Alfio; Pabst,Hans; Mueller,Tiziano;
 Schade,Robert; Guidon,Manuel; Andermatt,Samuel; Holmberg,Nico;
 Schenter,Gregory K.; Hehn,Anna; Bussy,Augustin; Belleflamme,Fabian;
 Tabacchi,Gloria; Gloess,Andreas; Lass,Michael; Bethune,Iain;
 Mundy,Christopher J.; Plessl,Christian; Watkins,Matt;
 VandeVondele,Joost; Krack,Matthias; Hutter,Juerg. 
 The Journal of Chemical Physics, 152 (19), (2020). 
 CP2K: An electronic structure and molecular dynamics software package -
 Quickstep: Efficient and accurate electronic structure calculations.
 https://doi.org/10.1063/5.0007045

 Schuett, Ole; Messmer, Peter; Hutter, Juerg; VandeVondele, Joost. 
 Electronic Structure Calculations on Graphics Processing Units, John
 Wiley & Sons, Ltd, 173-190 (2016). 
 GPU-Accelerated Sparse Matrix-Matrix Multiplication for
 Linear Scaling Density Functional Theory.
 https://doi.org/10.1002/9781118670712.ch8

 Heinecke, A; Henry, G; Hutchinson, M; Pabst, H. 
 Proceedings of Intl. Supercomputing Conference, 981-991 (2016). 
 LIBXSMM: Accelerating Small Matrix Multiplications
 by Runtime Code Generation.
 https://doi.org/10.1109/SC.2016.83

 Borstnik, U; VandeVondele, J; Weber, V; Hutter, J. 
 PARALLEL COMPUTING, 40 (5-6), 47-58 (2014). 
 Sparse matrix multiplication: The distributed block-compressed sparse
 row library.
 https://doi.org/10.1016/j.parco.2014.03.012

 Hutter, J; Iannuzzi, M; Schiffmann, F; VandeVondele, J. 
 WIREs Comput Mol Sci., 4 (1), 15-25 (2014). 
 CP2K: atomistic simulations of condensed matter systems.
 https://doi.org/10.1002/wcms.1159

 Marek, A; Blum, V; Johanni, R; Havu, V; Lang, B; Auckenthaler, T;
 Heinecke, A; Bungartz, H; Lederer, H. 
 Journal of Physics: Condensed Matter, 26 (21), (2014). 
 The ELPA library: scalable parallel eigenvalue solutions for
 electronic structure
 theory and computational science.
 https://doi.org/10.1088/0953-8984/26/21/213201

 Krack, M. 
 THEORETICAL CHEMISTRY ACCOUNTS, 114 (1-3), 145-152 (2005). 
 Pseudopotentials for H to Kr optimized for gradient-corrected
 exchange-correlation functionals.
 https://doi.org/10.1007/s00214-005-0655-y

 Frigo, M; Johnson, SG. 
 PROCEEDINGS OF THE IEEE, 93 (2), 216-231 (2005). 
 The design and implementation of FFTW3.
 https://doi.org/10.1109/JPROC.2004.840301

 VandeVondele, J; Hutter, J. 
 JOURNAL OF CHEMICAL PHYSICS, 118 (10), 4365-4369 (2003). 
 An efficient orbital transformation method for electronic structure
 calculations.
 https://doi.org/10.1063/1.1543154

 Lippert, G; Hutter, J; Parrinello, M. 
 THEORETICAL CHEMISTRY ACCOUNTS, 103 (2), 124-140 (1999). 
 The Gaussian and augmented-plane-wave density functional method for ab
 initio molecular dynamics simulations.
 https://doi.org/10.1007/s002140050523

 Krack, M; Parrinello, M. 
 PHYSICAL CHEMISTRY CHEMICAL PHYSICS, 2 (10), 2105-2112 (2000). 
 All-electron ab-initio molecular dynamics.
 https://doi.org/10.1039/b001167n

 Hartwigsen, C; Goedecker, S; Hutter, J. 
 PHYSICAL REVIEW B, 58 (7), 3641-3662 (1998). 
 Relativistic separable dual-space Gaussian pseudopotentials from H to Rn.
 https://doi.org/10.1103/PhysRevB.58.3641

 Perdew, JP; Burke, K; Ernzerhof, M. 
 PHYSICAL REVIEW LETTERS, 77 (18), 3865-3868 (1996). 
 Generalized gradient approximation made simple.
 https://doi.org/10.1103/PhysRevLett.77.3865

 Goedecker, S; Teter, M; Hutter, J. 
 PHYSICAL REVIEW B, 54 (3), 1703-1710 (1996). 
 Separable dual-space Gaussian pseudopotentials.
 https://doi.org/10.1103/PhysRevB.54.1703


 -------------------------------------------------------------------------------
 -                                                                             -
 -                                T I M I N G                                  -
 -                                                                             -
 -------------------------------------------------------------------------------
 SUBROUTINE                       CALLS  ASD         SELF TIME        TOTAL TIME
                                MAXIMUM       AVERAGE  MAXIMUM  AVERAGE  MAXIMUM
 CP2K                                 1  1.0    0.006    0.030   22.797   22.799
 qs_energies                          1  2.0    0.000    0.000   22.603   22.604
 scf_env_do_scf                       1  3.0    0.000    0.000   21.982   21.983
 scf_env_do_scf_inner_loop           26  4.0    0.000    0.001   20.600   20.601
 qs_ks_update_qs_env                 28  5.0    0.000    0.000   17.036   17.050
 rebuild_ks_matrix                   26  6.0    0.000    0.000   17.031   17.043
 qs_ks_build_kohn_sham_matrix        26  7.0    0.005    0.007   17.031   17.043
 pw_transfer                        551 10.1    0.062    0.073    5.629    5.856
 rs_pw_transfer                     264  9.5    0.007    0.009    5.704    5.838
 fft_wrap_pw1pw2                    473 11.3    0.007    0.008    5.508    5.740
 fft_wrap_pw1pw2_300                314 12.6    0.379    0.446    5.144    5.387
 qs_vxc_create                       26  8.0    0.001    0.001    4.931    4.932
 xc_vxc_pw_create                    26  9.0    0.039    0.044    4.931    4.931
 fft3d_ps                           473 13.3    2.164    2.499    4.291    4.592
 qs_rho_update_rho                   27  5.0    0.001    0.001    4.245    4.250
 prepare_gapw_den                    26  8.0    0.000    0.001    4.119    4.140
 calculate_rho_elec                  27  6.0    0.015    0.016    3.641    3.642
 xc_pw_derive                       156 11.0    0.002    0.002    2.996    3.312
 sum_up_and_integrate                26  8.0    0.013    0.016    2.935    2.940
 integrate_v_rspace                  26  9.0    0.001    0.001    2.922    2.926
 density_rs2pw                       27  7.0    0.001    0.002    2.685    2.805
 xc_rho_set_and_dset_create          26 10.0    0.040    0.049    2.642    2.752
 potential_pw2rs                     26 10.0    0.002    0.002    2.548    2.552
 mp_alltoall_z22v                   473 15.3    1.625    2.436    1.625    2.436
 xc_pw_divergence                    26 10.0    0.001    0.001    2.105    2.390
 rs_pw_transfer_PW2RS_300            52 11.0    1.356    1.412    2.179    2.273
 rs_pw_transfer_RS2PW_300            53 10.0    1.351    1.430    2.046    2.146
 mp_sum_d                          1209  7.0    1.882    2.125    1.882    2.125
 integrate_vhg0_rspace               26  8.0    0.265    0.332    2.079    2.116
 calculate_rho_atom                  26  9.0    0.451    1.755    0.451    1.755
 calculate_rho0_atom                 26  9.0    1.606    1.749    1.606    1.749
 yz_to_x                            211 14.1    0.218    0.282    1.164    1.718
 put_rho0_on_grid                    26  9.0    0.018    0.022    1.646    1.667
 mp_sum_dv                          730 12.9    0.420    1.450    0.420    1.450
 init_scf_loop                        2  4.0    0.000    0.000    1.381    1.381
 mp_waitany                        5880 11.5    1.146    1.359    1.146    1.359
 calculate_vxc_atom                  26  8.0    0.011    0.103    1.355    1.355
 xc_functional_eval                  78 10.9    0.000    0.001    1.174    1.299
 pbe_lda_eval                        78 11.9    1.173    1.298    1.173    1.298
 dbcsr_multiply_generic             569 10.1    0.017    0.017    1.194    1.251
 mp_sum_dm                          240  7.7    1.142    1.250    1.142    1.250
 mp_waitall_1                     53518 13.8    1.068    1.210    1.068    1.210
 gaVxcgb_GC                          26  9.0    0.075    1.195    0.075    1.195
 x_to_yz                            209 14.6    0.244    0.278    0.920    1.018
 grid_collocate_task_list            27  7.0    0.807    0.883    0.807    0.883
 qs_scf_new_mos                      26  5.0    0.000    0.000    0.750    0.755
 qs_scf_loop_do_ot                   26  6.0    0.000    0.000    0.750    0.755
 rs_pw_transfer_PW2RS_100            26 12.0    0.144    0.176    0.676    0.736
 ot_scf_mini                         26  7.0    0.000    0.000    0.721    0.727
 mp_sum_l                          3060 10.1    0.606    0.670    0.606    0.670
 update_ks_atom                      26  8.0    0.032    0.541    0.118    0.614
 calculate_rho_atom_coeff            27  6.0    0.054    0.522    0.603    0.607
 rs_grid_zero                       104 10.8    0.511    0.523    0.511    0.523
 pw_gather_p                        238 12.9    0.423    0.473    0.423    0.473
 ot_mini                             26  8.0    0.000    0.000    0.459    0.465
 rs_pw_transfer_RS2PW_100            27  9.0    0.129    0.182    0.448    0.457
 -------------------------------------------------------------------------------

 The number of warnings for this run is : 1
 
 -------------------------------------------------------------------------------
  **** **** ******  **  PROGRAM ENDED AT                 2022-06-07 17:38:40.360
 ***** ** ***  *** **   PROGRAM RAN ON                                   tcopt10
 **    ****   ******    PROGRAM RAN BY                                    hutter
 ***** **    ** ** **   PROGRAM PROCESS ID                                 81258
  **** **  *******  **  PROGRAM STOPPED IN /data/hutter/GITHUB/BASIS/scMOLOPT/PB
                                           E/Au
