
  **** **** ******  **  PROGRAM STARTED AT               2021-01-21 10:32:48.745
 ***** ** ***  *** **   PROGRAM STARTED ON                               tcopt10
 **    ****   ******    PROGRAM STARTED BY                                hutter
 ***** **    ** ** **   PROGRAM PROCESS ID                                 37668
  **** **  *******  **  PROGRAM STARTED IN /data/hutter/GITHUB/BASIS/MOLOPT/PBE/
                                           V

 CP2K| version string:                    CP2K version 9.0 (Development Version)
 CP2K| source code revision number:                                  git:7d6847f
 CP2K| cp2kflags: omp libint fftw3 libxc elpa parallel mpi3 scalapack xsmm spgli
 CP2K|            b sirius libvori libbqb
 CP2K| is freely available from                            https://www.cp2k.org/
 CP2K| Program compiled at                          Fre Jan 15 16:26:00 CET 2021
 CP2K| Program compiled on                                               tcopt10
 CP2K| Program compiled for                                                local
 CP2K| Data directory path                 /data/hutter/GITHUB/CURRENT/cp2k/data
 CP2K| Input file name                                               opt-all.inp

 GLOBAL| Method name                                              OPTIMIZE_BASIS
 GLOBAL| Project name                                                     molopt
 GLOBAL| Preferred FFT library                                             FFTW3
 GLOBAL| Preferred diagonalization lib.                                     ELPA
 GLOBAL| Run type                                                   ENERGY_FORCE
 GLOBAL| All-to-all communication in single precision                          F
 GLOBAL| FFTs using library dependent lengths                                  F
 GLOBAL| Global print level                                               MEDIUM
 GLOBAL| MPI I/O enabled                                                       T
 GLOBAL| Total number of message passing processes                            48
 GLOBAL| Number of threads for this process                                    1
 GLOBAL| This output is from process                                           0
 GLOBAL| CPU model name                          AMD EPYC 7401 24-Core Processor
 GLOBAL| CPUID                                                              1002

 MEMORY| system memory details [Kb]
 MEMORY|                        rank 0           min           max       average
 MEMORY| MemTotal            263969964     263969964     263969964     263969964
 MEMORY| MemFree             258899956     258899956     258899956     258899956
 MEMORY| Buffers                    20            20            20            20
 MEMORY| Cached                1129928       1129928       1129928       1129928
 MEMORY| Slab                   590232        590232        590232        590232
 MEMORY| SReclaimable           232544        232544        232544        232544
 MEMORY| MemLikelyFree       260262448     260262448     260262448     260262448


 *** Fundamental physical constants (SI units) ***

 *** Literature: B. J. Mohr and B. N. Taylor,
 ***             CODATA recommended values of the fundamental physical
 ***             constants: 2006, Web Version 5.1
 ***             http://physics.nist.gov/constants

 Speed of light in vacuum [m/s]                             2.99792458000000E+08
 Magnetic constant or permeability of vacuum [N/A**2]       1.25663706143592E-06
 Electric constant or permittivity of vacuum [F/m]          8.85418781762039E-12
 Planck constant (h) [J*s]                                  6.62606896000000E-34
 Planck constant (h-bar) [J*s]                              1.05457162825177E-34
 Elementary charge [C]                                      1.60217648700000E-19
 Electron mass [kg]                                         9.10938215000000E-31
 Electron g factor [ ]                                     -2.00231930436220E+00
 Proton mass [kg]                                           1.67262163700000E-27
 Fine-structure constant                                    7.29735253760000E-03
 Rydberg constant [1/m]                                     1.09737315685270E+07
 Avogadro constant [1/mol]                                  6.02214179000000E+23
 Boltzmann constant [J/K]                                   1.38065040000000E-23
 Atomic mass unit [kg]                                      1.66053878200000E-27
 Bohr radius [m]                                            5.29177208590000E-11

 *** Conversion factors ***

 [u] -> [a.u.]                                              1.82288848426455E+03
 [Angstrom] -> [Bohr] = [a.u.]                              1.88972613288564E+00
 [a.u.] = [Bohr] -> [Angstrom]                              5.29177208590000E-01
 [a.u.] -> [s]                                              2.41888432650478E-17
 [a.u.] -> [fs]                                             2.41888432650478E-02
 [a.u.] -> [J]                                              4.35974393937059E-18
 [a.u.] -> [N]                                              8.23872205491840E-08
 [a.u.] -> [K]                                              3.15774647902944E+05
 [a.u.] -> [kJ/mol]                                         2.62549961709828E+03
 [a.u.] -> [kcal/mol]                                       6.27509468713739E+02
 [a.u.] -> [Pa]                                             2.94210107994716E+13
 [a.u.] -> [bar]                                            2.94210107994716E+08
 [a.u.] -> [atm]                                            2.90362800883016E+08
 [a.u.] -> [eV]                                             2.72113838565563E+01
 [a.u.] -> [Hz]                                             6.57968392072181E+15
 [a.u.] -> [1/cm] (wave numbers)                            2.19474631370540E+05
 [a.u./Bohr**2] -> [1/cm]                                   5.14048714338585E+03
 
 DBCSR| CPU Multiplication driver                                           XSMM
 DBCSR| Multrec recursion limit                                              512
 DBCSR| Multiplication stack size                                           1000
 DBCSR| Maximum elements for images                                    UNLIMITED
 DBCSR| Multiplicative factor virtual images                                   1
 DBCSR| Use multiplication densification                                       T
 DBCSR| Multiplication size stacks                                             3
 DBCSR| Use memory pool for CPU allocation                                     F
 DBCSR| Number of 3D layers                                               SINGLE
 DBCSR| Use MPI memory allocation                                              F
 DBCSR| Use RMA algorithm                                                      F
 DBCSR| Use Communication thread                                               T
 DBCSR| Communication thread load                                             87
 DBCSR| MPI: My node id                                                        0
 DBCSR| MPI: Number of nodes                                                  48
 DBCSR| OMP: Current number of threads                                         1
 DBCSR| OMP: Max number of threads                                             1
 DBCSR| Split modifier for TAS multiplication algorithm                  1.0E+00

 BASOPT| Total number of calculations      9

 BASOPT| Content of basis combination      1
 BASOPT|     Element:    V    Basis set:    TZV2P-MOLOPT-PBE-GTH-Q13
 BASOPT|     Element:    O    Basis set:    TZV2P-MOLOPT-PBE-GTH-Q6
 BASOPT|     Element:    H    Basis set:    TZV2P-MOLOPT-PBE-GTH-Q1
 BASOPT|     Element:    F    Basis set:    TZV2P-MOLOPT-PBE-GTH-Q7

 BASOPT| Content of basis combination      2
 BASOPT|     Element:    V    Basis set:    TZVP-MOLOPT-PBE-GTH-q13
 BASOPT|     Element:    O    Basis set:    TZVP-MOLOPT-PBE-GTH-q6
 BASOPT|     Element:    H    Basis set:    TZVP-MOLOPT-PBE-GTH-q1
 BASOPT|     Element:    F    Basis set:    TZVP-MOLOPT-PBE-GTH-q7

 BASOPT| Content of basis combination      3
 BASOPT|     Element:    V    Basis set:    DZVP-MOLOPT-PBE-GTH-q13
 BASOPT|     Element:    O    Basis set:    DZVP-MOLOPT-PBE-GTH-q6
 BASOPT|     Element:    H    Basis set:    DZVP-MOLOPT-PBE-GTH-q1
 BASOPT|     Element:    F    Basis set:    DZVP-MOLOPT-PBE-GTH-q7

 BASOPT| Information at iteration number:       0
 BASOPT| Training set | Combination | Rho difference | Condition num. | Time
 BASOPT| -----------------------------------------------------------------------
 BASOPT|        1     |       1     | 0.91461029E-03 | 0.18320497E+04 |    0.083
 BASOPT|        1     |       2     | 0.11517986E-02 | 0.51599047E+03 |    0.044
 BASOPT|        1     |       3     | 0.19647950E-02 | 0.14867088E+03 |    0.041
 BASOPT|        2     |       1     | 0.47491718E-03 | 0.25023466E+04 |    0.100
 BASOPT|        2     |       2     | 0.87873224E-03 | 0.50723313E+03 |    0.065
 BASOPT|        2     |       3     | 0.13641127E-02 | 0.51686471E+02 |    0.057
 BASOPT|        3     |       1     | 0.10847265E-02 | 0.77356168E+03 |    0.200
 BASOPT|        3     |       2     | 0.17035582E-02 | 0.61641182E+03 |    0.139
 BASOPT|        3     |       3     | 0.34527867E-02 | 0.21167031E+03 |    0.113
 BASOPT| -----------------------------------------------------------------------
 BASOPT| Total residuum value: -.22370687E+04

 BASOPT| Information at iteration number:     100
 BASOPT| Training set | Combination | Rho difference | Condition num. | Time
 BASOPT| -----------------------------------------------------------------------
 BASOPT|        1     |       1     | 0.11742258E-02 | 0.18322174E+04 |    9.091
 BASOPT|        1     |       2     | 0.14755187E-02 | 0.56107619E+03 |    4.662
 BASOPT|        1     |       3     | 0.25654242E-02 | 0.15383261E+03 |    4.078
 BASOPT|        2     |       1     | 0.61834316E-03 | 0.25013566E+04 |    9.853
 BASOPT|        2     |       2     | 0.13629000E-02 | 0.53911569E+03 |    6.292
 BASOPT|        2     |       3     | 0.19506736E-02 | 0.54940706E+02 |    5.204
 BASOPT|        3     |       1     | 0.12763970E-02 | 0.78877110E+03 |   19.242
 BASOPT|        3     |       2     | 0.19702520E-02 | 0.65374121E+03 |   13.127
 BASOPT|        3     |       3     | 0.38325077E-02 | 0.21697271E+03 |   10.467
 BASOPT| -----------------------------------------------------------------------
 BASOPT| Total residuum value: -.22366332E+04

 BASOPT| Information at iteration number:     200
 BASOPT| Training set | Combination | Rho difference | Condition num. | Time
 BASOPT| -----------------------------------------------------------------------
 BASOPT|        1     |       1     | 0.92039335E-03 | 0.10757298E+04 |   18.651
 BASOPT|        1     |       2     | 0.11495448E-02 | 0.49046129E+03 |    9.276
 BASOPT|        1     |       3     | 0.19671336E-02 | 0.14884729E+03 |    8.116
 BASOPT|        2     |       1     | 0.48602294E-03 | 0.25041156E+04 |   19.600
 BASOPT|        2     |       2     | 0.88841522E-03 | 0.47658879E+03 |   12.522
 BASOPT|        2     |       3     | 0.13570341E-02 | 0.51772641E+02 |   10.349
 BASOPT|        3     |       1     | 0.10668000E-02 | 0.74841728E+03 |   38.278
 BASOPT|        3     |       2     | 0.16520255E-02 | 0.59302739E+03 |   26.116
 BASOPT|        3     |       3     | 0.34534908E-02 | 0.21212781E+03 |   20.820
 BASOPT| -----------------------------------------------------------------------
 BASOPT| Total residuum value: -.22370793E+04

 BASOPT| Information at iteration number:     300
 BASOPT| Training set | Combination | Rho difference | Condition num. | Time
 BASOPT| -----------------------------------------------------------------------
 BASOPT|        1     |       1     | 0.92568080E-03 | 0.91052728E+03 |   27.238
 BASOPT|        1     |       2     | 0.11589167E-02 | 0.47506811E+03 |   13.887
 BASOPT|        1     |       3     | 0.19960372E-02 | 0.14792423E+03 |   12.148
 BASOPT|        2     |       1     | 0.49075974E-03 | 0.25046255E+04 |   29.348
 BASOPT|        2     |       2     | 0.89612318E-03 | 0.46332232E+03 |   18.745
 BASOPT|        2     |       3     | 0.14093523E-02 | 0.51356414E+02 |   15.490
 BASOPT|        3     |       1     | 0.10555214E-02 | 0.73059608E+03 |   57.318
 BASOPT|        3     |       2     | 0.16322743E-02 | 0.57692941E+03 |   39.109
 BASOPT|        3     |       3     | 0.34089904E-02 | 0.21037541E+03 |   31.175
 BASOPT| -----------------------------------------------------------------------
 BASOPT| Total residuum value: -.22370786E+04

 BASOPT| Information at iteration number:     400
 BASOPT| Training set | Combination | Rho difference | Condition num. | Time
 BASOPT| -----------------------------------------------------------------------
 BASOPT|        1     |       1     | 0.92586609E-03 | 0.94797614E+03 |   35.941
 BASOPT|        1     |       2     | 0.11652117E-02 | 0.45735355E+03 |   18.496
 BASOPT|        1     |       3     | 0.19885619E-02 | 0.14651951E+03 |   16.185
 BASOPT|        2     |       1     | 0.48390116E-03 | 0.25043502E+04 |   39.098
 BASOPT|        2     |       2     | 0.89643757E-03 | 0.44246498E+03 |   24.970
 BASOPT|        2     |       3     | 0.13884938E-02 | 0.51017515E+02 |   20.632
 BASOPT|        3     |       1     | 0.10611144E-02 | 0.73236721E+03 |   76.363
 BASOPT|        3     |       2     | 0.16375166E-02 | 0.57428792E+03 |   52.106
 BASOPT|        3     |       3     | 0.34370927E-02 | 0.20918322E+03 |   41.530
 BASOPT| -----------------------------------------------------------------------
 BASOPT| Total residuum value: -.22370779E+04

 BASOPT| Information at iteration number:     500
 BASOPT| Training set | Combination | Rho difference | Condition num. | Time
 BASOPT| -----------------------------------------------------------------------
 BASOPT|        1     |       1     | 0.91249126E-03 | 0.93760015E+03 |   44.484
 BASOPT|        1     |       2     | 0.11480886E-02 | 0.46019334E+03 |   23.104
 BASOPT|        1     |       3     | 0.19795715E-02 | 0.14714281E+03 |   20.225
 BASOPT|        2     |       1     | 0.48758500E-03 | 0.25056951E+04 |   48.845
 BASOPT|        2     |       2     | 0.89852098E-03 | 0.44131156E+03 |   31.178
 BASOPT|        2     |       3     | 0.14086396E-02 | 0.51152304E+02 |   25.761
 BASOPT|        3     |       1     | 0.10553377E-02 | 0.72758813E+03 |   95.409
 BASOPT|        3     |       2     | 0.16382768E-02 | 0.57156215E+03 |   65.087
 BASOPT|        3     |       3     | 0.34290427E-02 | 0.20967887E+03 |   51.869
 BASOPT| -----------------------------------------------------------------------
 BASOPT| Total residuum value: -.22370817E+04

 BASOPT| Information at iteration number:     600
 BASOPT| Training set | Combination | Rho difference | Condition num. | Time
 BASOPT| -----------------------------------------------------------------------
 BASOPT|        1     |       1     | 0.90775261E-03 | 0.93646128E+03 |   52.867
 BASOPT|        1     |       2     | 0.11436242E-02 | 0.45559339E+03 |   27.715
 BASOPT|        1     |       3     | 0.19671258E-02 | 0.14765894E+03 |   24.264
 BASOPT|        2     |       1     | 0.48811879E-03 | 0.25067207E+04 |   58.590
 BASOPT|        2     |       2     | 0.90187584E-03 | 0.43240793E+03 |   37.404
 BASOPT|        2     |       3     | 0.14062421E-02 | 0.51254265E+02 |   30.901
 BASOPT|        3     |       1     | 0.10541152E-02 | 0.72941154E+03 |  114.580
 BASOPT|        3     |       2     | 0.16366382E-02 | 0.57061765E+03 |   78.078
 BASOPT|        3     |       3     | 0.34311323E-02 | 0.21033449E+03 |   62.220
 BASOPT| -----------------------------------------------------------------------
 BASOPT| Total residuum value: -.22370852E+04

 BASOPT| Information at iteration number:     700
 BASOPT| Training set | Combination | Rho difference | Condition num. | Time
 BASOPT| -----------------------------------------------------------------------
 BASOPT|        1     |       1     | 0.90784250E-03 | 0.92895469E+03 |   61.538
 BASOPT|        1     |       2     | 0.11428389E-02 | 0.44929501E+03 |   32.325
 BASOPT|        1     |       3     | 0.19634988E-02 | 0.14782855E+03 |   28.302
 BASOPT|        2     |       1     | 0.48875061E-03 | 0.25072862E+04 |   68.341
 BASOPT|        2     |       2     | 0.90323493E-03 | 0.42038969E+03 |   43.507
 BASOPT|        2     |       3     | 0.14066689E-02 | 0.51282330E+02 |   35.929
 BASOPT|        3     |       1     | 0.10539331E-02 | 0.73044570E+03 |  133.686
 BASOPT|        3     |       2     | 0.16342340E-02 | 0.56973077E+03 |   90.943
 BASOPT|        3     |       3     | 0.34338435E-02 | 0.21054927E+03 |   72.458
 BASOPT| -----------------------------------------------------------------------
 BASOPT| Total residuum value: -.22370861E+04

 BASOPT| Information at iteration number:     800
 BASOPT| Training set | Combination | Rho difference | Condition num. | Time
 BASOPT| -----------------------------------------------------------------------
 BASOPT|        1     |       1     | 0.90452863E-03 | 0.94050515E+03 |   70.046
 BASOPT|        1     |       2     | 0.11403302E-02 | 0.43947766E+03 |   36.930
 BASOPT|        1     |       3     | 0.19609706E-02 | 0.14774308E+03 |   32.339
 BASOPT|        2     |       1     | 0.48886146E-03 | 0.25081457E+04 |   78.086
 BASOPT|        2     |       2     | 0.90715618E-03 | 0.40377216E+03 |   49.394
 BASOPT|        2     |       3     | 0.14073026E-02 | 0.51230321E+02 |   40.759
 BASOPT|        3     |       1     | 0.10522778E-02 | 0.73081446E+03 |  152.762
 BASOPT|        3     |       2     | 0.16325689E-02 | 0.56761173E+03 |  103.594
 BASOPT|        3     |       3     | 0.34370058E-02 | 0.21034638E+03 |   82.499
 BASOPT| -----------------------------------------------------------------------
 BASOPT| Total residuum value: -.22370872E+04

 BASOPT| Information at iteration number:     900
 BASOPT| Training set | Combination | Rho difference | Condition num. | Time
 BASOPT| -----------------------------------------------------------------------
 BASOPT|        1     |       1     | 0.90383097E-03 | 0.94209402E+03 |   78.429
 BASOPT|        1     |       2     | 0.11397081E-02 | 0.43188711E+03 |   41.536
 BASOPT|        1     |       3     | 0.19608354E-02 | 0.14775318E+03 |   36.376
 BASOPT|        2     |       1     | 0.48886661E-03 | 0.25086760E+04 |   87.834
 BASOPT|        2     |       2     | 0.90751113E-03 | 0.38858344E+03 |   55.275
 BASOPT|        2     |       3     | 0.14024718E-02 | 0.51237371E+02 |   45.590
 BASOPT|        3     |       1     | 0.10517967E-02 | 0.73237416E+03 |  171.897
 BASOPT|        3     |       2     | 0.16306564E-02 | 0.56715303E+03 |  116.246
 BASOPT|        3     |       3     | 0.34409377E-02 | 0.21022664E+03 |   92.541
 BASOPT| -----------------------------------------------------------------------
 BASOPT| Total residuum value: -.22370880E+04

 BASOPT| Information at iteration number:    1000
 BASOPT| Training set | Combination | Rho difference | Condition num. | Time
 BASOPT| -----------------------------------------------------------------------
 BASOPT|        1     |       1     | 0.90183118E-03 | 0.93310176E+03 |   86.905
 BASOPT|        1     |       2     | 0.11393410E-02 | 0.41558428E+03 |   46.141
 BASOPT|        1     |       3     | 0.19609457E-02 | 0.14700249E+03 |   40.413
 BASOPT|        2     |       1     | 0.48902587E-03 | 0.25088952E+04 |   97.576
 BASOPT|        2     |       2     | 0.91179237E-03 | 0.36055288E+03 |   61.162
 BASOPT|        2     |       3     | 0.13935711E-02 | 0.51127662E+02 |   50.421
 BASOPT|        3     |       1     | 0.10504609E-02 | 0.73496774E+03 |  191.068
 BASOPT|        3     |       2     | 0.16269741E-02 | 0.56535084E+03 |  128.895
 BASOPT|        3     |       3     | 0.34479948E-02 | 0.20937305E+03 |  102.583
 BASOPT| -----------------------------------------------------------------------
 BASOPT| Total residuum value: -.22370898E+04

 BASOPT| Information at iteration number:    1100
 BASOPT| Training set | Combination | Rho difference | Condition num. | Time
 BASOPT| -----------------------------------------------------------------------
 BASOPT|        1     |       1     | 0.90714565E-03 | 0.92757432E+03 |   95.598
 BASOPT|        1     |       2     | 0.11444966E-02 | 0.39943742E+03 |   50.746
 BASOPT|        1     |       3     | 0.19676290E-02 | 0.14618290E+03 |   44.449
 BASOPT|        2     |       1     | 0.48662083E-03 | 0.25092691E+04 |  107.315
 BASOPT|        2     |       2     | 0.90927589E-03 | 0.32955071E+03 |   67.045
 BASOPT|        2     |       3     | 0.13874406E-02 | 0.50967412E+02 |   55.250
 BASOPT|        3     |       1     | 0.10498320E-02 | 0.73707085E+03 |  210.265
 BASOPT|        3     |       2     | 0.16182097E-02 | 0.56324666E+03 |  141.546
 BASOPT|        3     |       3     | 0.34451692E-02 | 0.20846237E+03 |  112.624
 BASOPT| -----------------------------------------------------------------------
 BASOPT| Total residuum value: -.22370916E+04

 BASOPT| Information at iteration number:    1200
 BASOPT| Training set | Combination | Rho difference | Condition num. | Time
 BASOPT| -----------------------------------------------------------------------
 BASOPT|        1     |       1     | 0.91059937E-03 | 0.91336735E+03 |  104.114
 BASOPT|        1     |       2     | 0.11451017E-02 | 0.39946313E+03 |   55.355
 BASOPT|        1     |       3     | 0.19655041E-02 | 0.14658939E+03 |   48.485
 BASOPT|        2     |       1     | 0.48727502E-03 | 0.25092836E+04 |  117.057
 BASOPT|        2     |       2     | 0.90731517E-03 | 0.32543548E+03 |   72.928
 BASOPT|        2     |       3     | 0.13763410E-02 | 0.51080805E+02 |   60.079
 BASOPT|        3     |       1     | 0.10495162E-02 | 0.73921568E+03 |  229.348
 BASOPT|        3     |       2     | 0.16129443E-02 | 0.56340752E+03 |  154.200
 BASOPT|        3     |       3     | 0.34550593E-02 | 0.20880691E+03 |  122.663
 BASOPT| -----------------------------------------------------------------------
 BASOPT| Total residuum value: -.22370921E+04

 BASOPT| Information at iteration number:    1300
 BASOPT| Training set | Combination | Rho difference | Condition num. | Time
 BASOPT| -----------------------------------------------------------------------
 BASOPT|        1     |       1     | 0.90796466E-03 | 0.88990020E+03 |  112.663
 BASOPT|        1     |       2     | 0.11423533E-02 | 0.39615572E+03 |   59.963
 BASOPT|        1     |       3     | 0.19672780E-02 | 0.14645130E+03 |   52.522
 BASOPT|        2     |       1     | 0.48869248E-03 | 0.25097399E+04 |  126.797
 BASOPT|        2     |       2     | 0.90968750E-03 | 0.32426754E+03 |   78.808
 BASOPT|        2     |       3     | 0.13664725E-02 | 0.51083071E+02 |   64.906
 BASOPT|        3     |       1     | 0.10478426E-02 | 0.74034217E+03 |  248.468
 BASOPT|        3     |       2     | 0.16099503E-02 | 0.56228569E+03 |  166.851
 BASOPT|        3     |       3     | 0.34600663E-02 | 0.20867921E+03 |  132.702
 BASOPT| -----------------------------------------------------------------------
 BASOPT| Total residuum value: -.22370936E+04

 BASOPT| Information at iteration number:    1400
 BASOPT| Training set | Combination | Rho difference | Condition num. | Time
 BASOPT| -----------------------------------------------------------------------
 BASOPT|        1     |       1     | 0.90390103E-03 | 0.85008187E+03 |  121.219
 BASOPT|        1     |       2     | 0.11385306E-02 | 0.39280770E+03 |   64.572
 BASOPT|        1     |       3     | 0.19661866E-02 | 0.14638669E+03 |   56.558
 BASOPT|        2     |       1     | 0.49168324E-03 | 0.25103291E+04 |  136.535
 BASOPT|        2     |       2     | 0.91384874E-03 | 0.32406649E+03 |   84.686
 BASOPT|        2     |       3     | 0.13653360E-02 | 0.51114970E+02 |   69.731
 BASOPT|        3     |       1     | 0.10459052E-02 | 0.73912515E+03 |  267.522
 BASOPT|        3     |       2     | 0.16067404E-02 | 0.55927395E+03 |  179.502
 BASOPT|        3     |       3     | 0.34611369E-02 | 0.20845909E+03 |  142.740
 BASOPT| -----------------------------------------------------------------------
 BASOPT| Total residuum value: -.22370950E+04

 BASOPT| Information at iteration number:    1500
 BASOPT| Training set | Combination | Rho difference | Condition num. | Time
 BASOPT| -----------------------------------------------------------------------
 BASOPT|        1     |       1     | 0.90818699E-03 | 0.82596178E+03 |  129.523
 BASOPT|        1     |       2     | 0.11395911E-02 | 0.39165737E+03 |   69.181
 BASOPT|        1     |       3     | 0.19690429E-02 | 0.14636799E+03 |   60.595
 BASOPT|        2     |       1     | 0.49188231E-03 | 0.25104821E+04 |  146.279
 BASOPT|        2     |       2     | 0.91258490E-03 | 0.32409737E+03 |   90.570
 BASOPT|        2     |       3     | 0.13543177E-02 | 0.51155443E+02 |   74.560
 BASOPT|        3     |       1     | 0.10462578E-02 | 0.73919778E+03 |  286.646
 BASOPT|        3     |       2     | 0.16006909E-02 | 0.55755427E+03 |  192.152
 BASOPT|        3     |       3     | 0.34664592E-02 | 0.20836167E+03 |  152.782
 BASOPT| -----------------------------------------------------------------------
 BASOPT| Total residuum value: -.22370958E+04

 BASOPT| Information at iteration number:    1600
 BASOPT| Training set | Combination | Rho difference | Condition num. | Time
 BASOPT| -----------------------------------------------------------------------
 BASOPT|        1     |       1     | 0.90780392E-03 | 0.80922864E+03 |  138.092
 BASOPT|        1     |       2     | 0.11395052E-02 | 0.39028969E+03 |   73.790
 BASOPT|        1     |       3     | 0.19703524E-02 | 0.14617112E+03 |   64.632
 BASOPT|        2     |       1     | 0.49277835E-03 | 0.25107614E+04 |  156.019
 BASOPT|        2     |       2     | 0.91448028E-03 | 0.32415897E+03 |   96.450
 BASOPT|        2     |       3     | 0.13576125E-02 | 0.51129721E+02 |   79.385
 BASOPT|        3     |       1     | 0.10454174E-02 | 0.73826240E+03 |  305.712
 BASOPT|        3     |       2     | 0.15988537E-02 | 0.55598626E+03 |  204.803
 BASOPT|        3     |       3     | 0.34603316E-02 | 0.20814617E+03 |  162.820
 BASOPT| -----------------------------------------------------------------------
 BASOPT| Total residuum value: -.22370963E+04

 BASOPT| Information at iteration number:    1700
 BASOPT| Training set | Combination | Rho difference | Condition num. | Time
 BASOPT| -----------------------------------------------------------------------
 BASOPT|        1     |       1     | 0.90763532E-03 | 0.79715680E+03 |  146.948
 BASOPT|        1     |       2     | 0.11389680E-02 | 0.38794142E+03 |   78.400
 BASOPT|        1     |       3     | 0.19711850E-02 | 0.14581938E+03 |   68.671
 BASOPT|        2     |       1     | 0.49265710E-03 | 0.25110727E+04 |  165.759
 BASOPT|        2     |       2     | 0.91619187E-03 | 0.32423524E+03 |  102.328
 BASOPT|        2     |       3     | 0.13602501E-02 | 0.51061139E+02 |   84.212
 BASOPT|        3     |       1     | 0.10442745E-02 | 0.73786761E+03 |  324.886
 BASOPT|        3     |       2     | 0.15952195E-02 | 0.55391517E+03 |  217.456
 BASOPT|        3     |       3     | 0.34611159E-02 | 0.20763579E+03 |  172.861
 BASOPT| -----------------------------------------------------------------------
 BASOPT| Total residuum value: -.22370971E+04

 BASOPT| Information at iteration number:    1800
 BASOPT| Training set | Combination | Rho difference | Condition num. | Time
 BASOPT| -----------------------------------------------------------------------
 BASOPT|        1     |       1     | 0.90567274E-03 | 0.79000380E+03 |  155.504
 BASOPT|        1     |       2     | 0.11368523E-02 | 0.38754945E+03 |   83.009
 BASOPT|        1     |       3     | 0.19680671E-02 | 0.14574200E+03 |   72.707
 BASOPT|        2     |       1     | 0.49333014E-03 | 0.25113512E+04 |  175.499
 BASOPT|        2     |       2     | 0.91766354E-03 | 0.32433479E+03 |  108.211
 BASOPT|        2     |       3     | 0.13673107E-02 | 0.51057462E+02 |   89.038
 BASOPT|        3     |       1     | 0.10440071E-02 | 0.73762647E+03 |  344.079
 BASOPT|        3     |       2     | 0.15936436E-02 | 0.55260627E+03 |  230.108
 BASOPT|        3     |       3     | 0.34633114E-02 | 0.20739587E+03 |  182.901
 BASOPT| -----------------------------------------------------------------------
 BASOPT| Total residuum value: -.22370975E+04

 BASOPT| Information at iteration number:    1900
 BASOPT| Training set | Combination | Rho difference | Condition num. | Time
 BASOPT| -----------------------------------------------------------------------
 BASOPT|        1     |       1     | 0.90494290E-03 | 0.78497836E+03 |  164.074
 BASOPT|        1     |       2     | 0.11358511E-02 | 0.38669672E+03 |   87.617
 BASOPT|        1     |       3     | 0.19711070E-02 | 0.14555218E+03 |   76.743
 BASOPT|        2     |       1     | 0.49395278E-03 | 0.25115300E+04 |  185.239
 BASOPT|        2     |       2     | 0.91980165E-03 | 0.32443298E+03 |  114.091
 BASOPT|        2     |       3     | 0.13773146E-02 | 0.51038947E+02 |   93.865
 BASOPT|        3     |       1     | 0.10422536E-02 | 0.73795858E+03 |  363.262
 BASOPT|        3     |       2     | 0.15904213E-02 | 0.55171694E+03 |  242.757
 BASOPT|        3     |       3     | 0.34488390E-02 | 0.20708486E+03 |  192.938
 BASOPT| -----------------------------------------------------------------------
 BASOPT| Total residuum value: -.22370981E+04

 BASOPT| Information at iteration number:    2000
 BASOPT| Training set | Combination | Rho difference | Condition num. | Time
 BASOPT| -----------------------------------------------------------------------
 BASOPT|        1     |       1     | 0.90889820E-03 | 0.77093415E+03 |  172.949
 BASOPT|        1     |       2     | 0.11358439E-02 | 0.38723902E+03 |   92.224
 BASOPT|        1     |       3     | 0.19748469E-02 | 0.14566924E+03 |   80.780
 BASOPT|        2     |       1     | 0.49408443E-03 | 0.25117339E+04 |  194.983
 BASOPT|        2     |       2     | 0.91819508E-03 | 0.32453229E+03 |  119.975
 BASOPT|        2     |       3     | 0.13765054E-02 | 0.51081764E+02 |   98.695
 BASOPT|        3     |       1     | 0.10436170E-02 | 0.73826082E+03 |  382.448
 BASOPT|        3     |       2     | 0.15859612E-02 | 0.55134381E+03 |  255.411
 BASOPT|        3     |       3     | 0.34441577E-02 | 0.20714423E+03 |  202.979
 BASOPT| -----------------------------------------------------------------------
 BASOPT| Total residuum value: -.22370984E+04

 BASOPT| Information at iteration number:    2100
 BASOPT| Training set | Combination | Rho difference | Condition num. | Time
 BASOPT| -----------------------------------------------------------------------
 BASOPT|        1     |       1     | 0.90381891E-03 | 0.75304465E+03 |  181.203
 BASOPT|        1     |       2     | 0.11310713E-02 | 0.38775790E+03 |   96.833
 BASOPT|        1     |       3     | 0.19710290E-02 | 0.14567547E+03 |   84.818
 BASOPT|        2     |       1     | 0.49719558E-03 | 0.25119723E+04 |  204.726
 BASOPT|        2     |       2     | 0.92197693E-03 | 0.32451529E+03 |  125.860
 BASOPT|        2     |       3     | 0.13791092E-02 | 0.51146828E+02 |  103.524
 BASOPT|        3     |       1     | 0.10409351E-02 | 0.74128321E+03 |  401.630
 BASOPT|        3     |       2     | 0.15833877E-02 | 0.55151374E+03 |  268.064
 BASOPT|        3     |       3     | 0.34467004E-02 | 0.20700923E+03 |  213.019
 BASOPT| -----------------------------------------------------------------------
 BASOPT| Total residuum value: -.22370992E+04

 BASOPT| Information at iteration number:    2200
 BASOPT| Training set | Combination | Rho difference | Condition num. | Time
 BASOPT| -----------------------------------------------------------------------
 BASOPT|        1     |       1     | 0.90154517E-03 | 0.74438638E+03 |  189.684
 BASOPT|        1     |       2     | 0.11278780E-02 | 0.38821150E+03 |  101.442
 BASOPT|        1     |       3     | 0.19685536E-02 | 0.14561322E+03 |   88.854
 BASOPT|        2     |       1     | 0.49980652E-03 | 0.25126503E+04 |  214.471
 BASOPT|        2     |       2     | 0.92606701E-03 | 0.32465792E+03 |  131.744
 BASOPT|        2     |       3     | 0.13755958E-02 | 0.51213152E+02 |  108.354
 BASOPT|        3     |       1     | 0.10395670E-02 | 0.74402176E+03 |  420.760
 BASOPT|        3     |       2     | 0.15814699E-02 | 0.55207188E+03 |  280.713
 BASOPT|        3     |       3     | 0.34548166E-02 | 0.20688080E+03 |  223.057
 BASOPT| -----------------------------------------------------------------------
 BASOPT| Total residuum value: -.22370996E+04

 BASOPT| Information at iteration number:    2300
 BASOPT| Training set | Combination | Rho difference | Condition num. | Time
 BASOPT| -----------------------------------------------------------------------
 BASOPT|        1     |       1     | 0.90240337E-03 | 0.72593642E+03 |  198.451
 BASOPT|        1     |       2     | 0.11255321E-02 | 0.38863092E+03 |  106.050
 BASOPT|        1     |       3     | 0.19672641E-02 | 0.14570912E+03 |   92.893
 BASOPT|        2     |       1     | 0.50081933E-03 | 0.25127610E+04 |  224.216
 BASOPT|        2     |       2     | 0.92709717E-03 | 0.32471360E+03 |  137.628
 BASOPT|        2     |       3     | 0.13779166E-02 | 0.51288889E+02 |  113.184
 BASOPT|        3     |       1     | 0.10402144E-02 | 0.74465441E+03 |  439.803
 BASOPT|        3     |       2     | 0.15773522E-02 | 0.55118556E+03 |  293.363
 BASOPT|        3     |       3     | 0.34571500E-02 | 0.20678421E+03 |  233.097
 BASOPT| -----------------------------------------------------------------------
 BASOPT| Total residuum value: -.22371002E+04

 BASOPT| Information at iteration number:    2400
 BASOPT| Training set | Combination | Rho difference | Condition num. | Time
 BASOPT| -----------------------------------------------------------------------
 BASOPT|        1     |       1     | 0.90116301E-03 | 0.69878295E+03 |  207.127
 BASOPT|        1     |       2     | 0.11226837E-02 | 0.38677018E+03 |  110.658
 BASOPT|        1     |       3     | 0.19687942E-02 | 0.14523388E+03 |   96.932
 BASOPT|        2     |       1     | 0.50218365E-03 | 0.25120076E+04 |  233.966
 BASOPT|        2     |       2     | 0.93111070E-03 | 0.32472987E+03 |  143.514
 BASOPT|        2     |       3     | 0.13848258E-02 | 0.51210946E+02 |  118.014
 BASOPT|        3     |       1     | 0.10398826E-02 | 0.74890497E+03 |  458.843
 BASOPT|        3     |       2     | 0.15727991E-02 | 0.55233893E+03 |  306.016
 BASOPT|        3     |       3     | 0.34513316E-02 | 0.20613311E+03 |  243.141
 BASOPT| -----------------------------------------------------------------------
 BASOPT| Total residuum value: -.22371012E+04

 BASOPT| Information at iteration number:    2500
 BASOPT| Training set | Combination | Rho difference | Condition num. | Time
 BASOPT| -----------------------------------------------------------------------
 BASOPT|        1     |       1     | 0.90000179E-03 | 0.68852453E+03 |  215.726
 BASOPT|        1     |       2     | 0.11201551E-02 | 0.38751077E+03 |  115.266
 BASOPT|        1     |       3     | 0.19690263E-02 | 0.14532963E+03 |  100.971
 BASOPT|        2     |       1     | 0.50386668E-03 | 0.25119469E+04 |  243.712
 BASOPT|        2     |       2     | 0.93327695E-03 | 0.32476370E+03 |  149.401
 BASOPT|        2     |       3     | 0.13892262E-02 | 0.51252979E+02 |  122.846
 BASOPT|        3     |       1     | 0.10389438E-02 | 0.75257997E+03 |  477.909
 BASOPT|        3     |       2     | 0.15703838E-02 | 0.55389419E+03 |  318.665
 BASOPT|        3     |       3     | 0.34476622E-02 | 0.20622271E+03 |  253.182
 BASOPT| -----------------------------------------------------------------------
 BASOPT| Total residuum value: -.22371015E+04

 BASOPT| Information at iteration number:    2600
 BASOPT| Training set | Combination | Rho difference | Condition num. | Time
 BASOPT| -----------------------------------------------------------------------
 BASOPT|        1     |       1     | 0.89954406E-03 | 0.67252613E+03 |  224.038
 BASOPT|        1     |       2     | 0.11199207E-02 | 0.38760756E+03 |  119.872
 BASOPT|        1     |       3     | 0.19703538E-02 | 0.14522354E+03 |  105.011
 BASOPT|        2     |       1     | 0.50571321E-03 | 0.25119683E+04 |  253.450
 BASOPT|        2     |       2     | 0.93445817E-03 | 0.32478919E+03 |  155.285
 BASOPT|        2     |       3     | 0.13658812E-02 | 0.51210529E+02 |  127.677
 BASOPT|        3     |       1     | 0.10375232E-02 | 0.75568266E+03 |  496.950
 BASOPT|        3     |       2     | 0.15678528E-02 | 0.55546322E+03 |  331.315
 BASOPT|        3     |       3     | 0.34675611E-02 | 0.20629471E+03 |  263.225
 BASOPT| -----------------------------------------------------------------------
 BASOPT| Total residuum value: -.22371021E+04

 BASOPT| Information at iteration number:    2700
 BASOPT| Training set | Combination | Rho difference | Condition num. | Time
 BASOPT| -----------------------------------------------------------------------
 BASOPT|        1     |       1     | 0.89834741E-03 | 0.66506262E+03 |  233.100
 BASOPT|        1     |       2     | 0.11173290E-02 | 0.38869972E+03 |  124.476
 BASOPT|        1     |       3     | 0.19719702E-02 | 0.14533206E+03 |  109.050
 BASOPT|        2     |       1     | 0.50679312E-03 | 0.25121143E+04 |  263.188
 BASOPT|        2     |       2     | 0.93557687E-03 | 0.32485357E+03 |  161.172
 BASOPT|        2     |       3     | 0.13605469E-02 | 0.51230062E+02 |  132.506
 BASOPT|        3     |       1     | 0.10365053E-02 | 0.75907856E+03 |  515.997
 BASOPT|        3     |       2     | 0.15655024E-02 | 0.55708850E+03 |  343.964
 BASOPT|        3     |       3     | 0.34691949E-02 | 0.20649547E+03 |  273.270
 BASOPT| -----------------------------------------------------------------------
 BASOPT| Total residuum value: -.22371027E+04

 BASOPT| Information at iteration number:    2800
 BASOPT| Training set | Combination | Rho difference | Condition num. | Time
 BASOPT| -----------------------------------------------------------------------
 BASOPT|        1     |       1     | 0.89958858E-03 | 0.65985828E+03 |  241.614
 BASOPT|        1     |       2     | 0.11172619E-02 | 0.38851122E+03 |  129.080
 BASOPT|        1     |       3     | 0.19734783E-02 | 0.14515195E+03 |  113.090
 BASOPT|        2     |       1     | 0.50645744E-03 | 0.25119772E+04 |  272.927
 BASOPT|        2     |       2     | 0.93548695E-03 | 0.32485587E+03 |  167.058
 BASOPT|        2     |       3     | 0.13558699E-02 | 0.51214897E+02 |  137.336
 BASOPT|        3     |       1     | 0.10366807E-02 | 0.76043999E+03 |  535.037
 BASOPT|        3     |       2     | 0.15636676E-02 | 0.55764791E+03 |  356.614
 BASOPT|        3     |       3     | 0.34716294E-02 | 0.20634333E+03 |  283.313
 BASOPT| -----------------------------------------------------------------------
 BASOPT| Total residuum value: -.22371030E+04

 BASOPT| Information at iteration number:    2900
 BASOPT| Training set | Combination | Rho difference | Condition num. | Time
 BASOPT| -----------------------------------------------------------------------
 BASOPT|        1     |       1     | 0.89835136E-03 | 0.64796114E+03 |  250.632
 BASOPT|        1     |       2     | 0.11165624E-02 | 0.38733136E+03 |  133.677
 BASOPT|        1     |       3     | 0.19736770E-02 | 0.14478292E+03 |  117.120
 BASOPT|        2     |       1     | 0.50771792E-03 | 0.25116946E+04 |  282.691
 BASOPT|        2     |       2     | 0.93754944E-03 | 0.32487920E+03 |  172.946
 BASOPT|        2     |       3     | 0.13564586E-02 | 0.51130419E+02 |  142.166
 BASOPT|        3     |       1     | 0.10357838E-02 | 0.76196159E+03 |  554.077
 BASOPT|        3     |       2     | 0.15622411E-02 | 0.55812197E+03 |  369.263
 BASOPT|        3     |       3     | 0.34745791E-02 | 0.20594550E+03 |  293.356
 BASOPT| -----------------------------------------------------------------------
 BASOPT| Total residuum value: -.22371035E+04

 BASOPT| Information at iteration number:    3000
 BASOPT| Training set | Combination | Rho difference | Condition num. | Time
 BASOPT| -----------------------------------------------------------------------
 BASOPT|        1     |       1     | 0.89998568E-03 | 0.63676626E+03 |  259.362
 BASOPT|        1     |       2     | 0.11154517E-02 | 0.38716116E+03 |  138.272
 BASOPT|        1     |       3     | 0.19752427E-02 | 0.14455650E+03 |  121.150
 BASOPT|        2     |       1     | 0.50764946E-03 | 0.25115983E+04 |  292.451
 BASOPT|        2     |       2     | 0.93787139E-03 | 0.32490616E+03 |  178.834
 BASOPT|        2     |       3     | 0.13532593E-02 | 0.51134092E+02 |  146.995
 BASOPT|        3     |       1     | 0.10367200E-02 | 0.76468194E+03 |  573.117
 BASOPT|        3     |       2     | 0.15586113E-02 | 0.55898768E+03 |  381.913
 BASOPT|        3     |       3     | 0.34786501E-02 | 0.20573563E+03 |  303.402
 BASOPT| -----------------------------------------------------------------------
 BASOPT| Total residuum value: -.22371041E+04

 BASOPT| Information at iteration number:    3100
 BASOPT| Training set | Combination | Rho difference | Condition num. | Time
 BASOPT| -----------------------------------------------------------------------
 BASOPT|        1     |       1     | 0.89883343E-03 | 0.63561588E+03 |  268.382
 BASOPT|        1     |       2     | 0.11138298E-02 | 0.38807797E+03 |  142.867
 BASOPT|        1     |       3     | 0.19772852E-02 | 0.14461163E+03 |  125.181
 BASOPT|        2     |       1     | 0.50827765E-03 | 0.25117274E+04 |  302.218
 BASOPT|        2     |       2     | 0.93874684E-03 | 0.32490572E+03 |  184.729
 BASOPT|        2     |       3     | 0.13572073E-02 | 0.51171799E+02 |  151.825
 BASOPT|        3     |       1     | 0.10362769E-02 | 0.76802338E+03 |  592.155
 BASOPT|        3     |       2     | 0.15576747E-02 | 0.56045194E+03 |  394.564
 BASOPT|        3     |       3     | 0.34712048E-02 | 0.20585572E+03 |  313.450
 BASOPT| -----------------------------------------------------------------------
 BASOPT| Total residuum value: -.22371043E+04

 BASOPT| Information at iteration number:    3200
 BASOPT| Training set | Combination | Rho difference | Condition num. | Time
 BASOPT| -----------------------------------------------------------------------
 BASOPT|        1     |       1     | 0.89932959E-03 | 0.63415797E+03 |  277.178
 BASOPT|        1     |       2     | 0.11140518E-02 | 0.38814802E+03 |  147.425
 BASOPT|        1     |       3     | 0.19769094E-02 | 0.14449879E+03 |  129.181
 BASOPT|        2     |       1     | 0.50811420E-03 | 0.25116759E+04 |  311.982
 BASOPT|        2     |       2     | 0.93962209E-03 | 0.32489806E+03 |  190.621
 BASOPT|        2     |       3     | 0.13485878E-02 | 0.51133221E+02 |  156.656
 BASOPT|        3     |       1     | 0.10352207E-02 | 0.77117456E+03 |  611.196
 BASOPT|        3     |       2     | 0.15556119E-02 | 0.56160349E+03 |  407.220
 BASOPT|        3     |       3     | 0.34783033E-02 | 0.20586201E+03 |  323.495
 BASOPT| -----------------------------------------------------------------------
 BASOPT| Total residuum value: -.22371047E+04

 BASOPT| Information at iteration number:    3300
 BASOPT| Training set | Combination | Rho difference | Condition num. | Time
 BASOPT| -----------------------------------------------------------------------
 BASOPT|        1     |       1     | 0.90042283E-03 | 0.63253582E+03 |  286.266
 BASOPT|        1     |       2     | 0.11140823E-02 | 0.38853906E+03 |  151.940
 BASOPT|        1     |       3     | 0.19776849E-02 | 0.14458530E+03 |  133.142
 BASOPT|        2     |       1     | 0.50709612E-03 | 0.25119138E+04 |  321.749
 BASOPT|        2     |       2     | 0.93920121E-03 | 0.32493026E+03 |  196.512
 BASOPT|        2     |       3     | 0.13388090E-02 | 0.51173649E+02 |  161.486
 BASOPT|        3     |       1     | 0.10340340E-02 | 0.77331146E+03 |  630.234
 BASOPT|        3     |       2     | 0.15520456E-02 | 0.56132916E+03 |  419.870
 BASOPT|        3     |       3     | 0.34860901E-02 | 0.20602934E+03 |  333.540
 BASOPT| -----------------------------------------------------------------------
 BASOPT| Total residuum value: -.22371054E+04

 BASOPT| Information at iteration number:    3400
 BASOPT| Training set | Combination | Rho difference | Condition num. | Time
 BASOPT| -----------------------------------------------------------------------
 BASOPT|        1     |       1     | 0.90083135E-03 | 0.63104392E+03 |  295.191
 BASOPT|        1     |       2     | 0.11136190E-02 | 0.38889265E+03 |  156.457
 BASOPT|        1     |       3     | 0.19809780E-02 | 0.14456207E+03 |  137.105
 BASOPT|        2     |       1     | 0.50756549E-03 | 0.25116399E+04 |  331.512
 BASOPT|        2     |       2     | 0.93969235E-03 | 0.32479335E+03 |  202.406
 BASOPT|        2     |       3     | 0.13396833E-02 | 0.51182944E+02 |  166.317
 BASOPT|        3     |       1     | 0.10326305E-02 | 0.77618789E+03 |  649.273
 BASOPT|        3     |       2     | 0.15487760E-02 | 0.56192817E+03 |  432.514
 BASOPT|        3     |       3     | 0.34781948E-02 | 0.20606770E+03 |  343.586
 BASOPT| -----------------------------------------------------------------------
 BASOPT| Total residuum value: -.22371059E+04

 BASOPT| Information at iteration number:    3500
 BASOPT| Training set | Combination | Rho difference | Condition num. | Time
 BASOPT| -----------------------------------------------------------------------
 BASOPT|        1     |       1     | 0.89905427E-03 | 0.62956186E+03 |  303.915
 BASOPT|        1     |       2     | 0.11136858E-02 | 0.38752728E+03 |  160.974
 BASOPT|        1     |       3     | 0.19810707E-02 | 0.14433944E+03 |  141.068
 BASOPT|        2     |       1     | 0.50743860E-03 | 0.25114077E+04 |  341.277
 BASOPT|        2     |       2     | 0.94079038E-03 | 0.32473421E+03 |  208.298
 BASOPT|        2     |       3     | 0.13470527E-02 | 0.51126251E+02 |  171.147
 BASOPT|        3     |       1     | 0.10312644E-02 | 0.77569499E+03 |  668.312
 BASOPT|        3     |       2     | 0.15485117E-02 | 0.56065752E+03 |  445.158
 BASOPT|        3     |       3     | 0.34710985E-02 | 0.20581710E+03 |  353.632
 BASOPT| -----------------------------------------------------------------------
 BASOPT| Total residuum value: -.22371062E+04

 BASOPT| Information at iteration number:    3600
 BASOPT| Training set | Combination | Rho difference | Condition num. | Time
 BASOPT| -----------------------------------------------------------------------
 BASOPT|        1     |       1     | 0.89741521E-03 | 0.62466355E+03 |  312.219
 BASOPT|        1     |       2     | 0.11128028E-02 | 0.38701246E+03 |  165.491
 BASOPT|        1     |       3     | 0.19795737E-02 | 0.14423418E+03 |  145.029
 BASOPT|        2     |       1     | 0.50818773E-03 | 0.25112061E+04 |  351.039
 BASOPT|        2     |       2     | 0.94237234E-03 | 0.32465533E+03 |  214.191
 BASOPT|        2     |       3     | 0.13476519E-02 | 0.51082248E+02 |  175.977
 BASOPT|        3     |       1     | 0.10303667E-02 | 0.77632839E+03 |  687.353
 BASOPT|        3     |       2     | 0.15479640E-02 | 0.56044895E+03 |  457.804
 BASOPT|        3     |       3     | 0.34733339E-02 | 0.20576718E+03 |  363.677
 BASOPT| -----------------------------------------------------------------------
 BASOPT| Total residuum value: -.22371065E+04

 BASOPT| Information at iteration number:    3700
 BASOPT| Training set | Combination | Rho difference | Condition num. | Time
 BASOPT| -----------------------------------------------------------------------
 BASOPT|        1     |       1     | 0.89913464E-03 | 0.62171204E+03 |  320.744
 BASOPT|        1     |       2     | 0.11133647E-02 | 0.38707689E+03 |  170.006
 BASOPT|        1     |       3     | 0.19802941E-02 | 0.14425835E+03 |  148.989
 BASOPT|        2     |       1     | 0.50711230E-03 | 0.25110974E+04 |  360.806
 BASOPT|        2     |       2     | 0.94141339E-03 | 0.32454884E+03 |  220.083
 BASOPT|        2     |       3     | 0.13524534E-02 | 0.51087064E+02 |  180.809
 BASOPT|        3     |       1     | 0.10304758E-02 | 0.77767886E+03 |  706.396
 BASOPT|        3     |       2     | 0.15456354E-02 | 0.56030293E+03 |  470.452
 BASOPT|        3     |       3     | 0.34680139E-02 | 0.20580651E+03 |  373.720
 BASOPT| -----------------------------------------------------------------------
 BASOPT| Total residuum value: -.22371069E+04

 BASOPT| Information at iteration number:    3800
 BASOPT| Training set | Combination | Rho difference | Condition num. | Time
 BASOPT| -----------------------------------------------------------------------
 BASOPT|        1     |       1     | 0.89791381E-03 | 0.62166507E+03 |  329.449
 BASOPT|        1     |       2     | 0.11113771E-02 | 0.38829671E+03 |  174.523
 BASOPT|        1     |       3     | 0.19791628E-02 | 0.14452732E+03 |  152.950
 BASOPT|        2     |       1     | 0.50755108E-03 | 0.25111255E+04 |  370.569
 BASOPT|        2     |       2     | 0.94240832E-03 | 0.32452398E+03 |  225.980
 BASOPT|        2     |       3     | 0.13628849E-02 | 0.51167921E+02 |  185.641
 BASOPT|        3     |       1     | 0.10295494E-02 | 0.78042604E+03 |  725.436
 BASOPT|        3     |       2     | 0.15445124E-02 | 0.56103920E+03 |  483.102
 BASOPT|        3     |       3     | 0.34588756E-02 | 0.20610004E+03 |  383.766
 BASOPT| -----------------------------------------------------------------------
 BASOPT| Total residuum value: -.22371071E+04

 BASOPT| Information at iteration number:    3900
 BASOPT| Training set | Combination | Rho difference | Condition num. | Time
 BASOPT| -----------------------------------------------------------------------
 BASOPT|        1     |       1     | 0.89510732E-03 | 0.60461131E+03 |  338.427
 BASOPT|        1     |       2     | 0.11074176E-02 | 0.38883401E+03 |  179.042
 BASOPT|        1     |       3     | 0.19774170E-02 | 0.14463593E+03 |  156.910
 BASOPT|        2     |       1     | 0.51113603E-03 | 0.25110072E+04 |  380.335
 BASOPT|        2     |       2     | 0.94702597E-03 | 0.32448525E+03 |  231.873
 BASOPT|        2     |       3     | 0.13673744E-02 | 0.51251723E+02 |  190.472
 BASOPT|        3     |       1     | 0.10288996E-02 | 0.78297204E+03 |  744.476
 BASOPT|        3     |       2     | 0.15428145E-02 | 0.56209278E+03 |  495.761
 BASOPT|        3     |       3     | 0.34552450E-02 | 0.20634704E+03 |  393.809
 BASOPT| -----------------------------------------------------------------------
 BASOPT| Total residuum value: -.22371078E+04

 BASOPT| Information at iteration number:    4000
 BASOPT| Training set | Combination | Rho difference | Condition num. | Time
 BASOPT| -----------------------------------------------------------------------
 BASOPT|        1     |       1     | 0.89420637E-03 | 0.59833056E+03 |  346.876
 BASOPT|        1     |       2     | 0.11070084E-02 | 0.38852235E+03 |  183.559
 BASOPT|        1     |       3     | 0.19754121E-02 | 0.14454305E+03 |  160.869
 BASOPT|        2     |       1     | 0.51183046E-03 | 0.25109554E+04 |  390.094
 BASOPT|        2     |       2     | 0.94827102E-03 | 0.32445430E+03 |  237.766
 BASOPT|        2     |       3     | 0.13653849E-02 | 0.51280429E+02 |  195.301
 BASOPT|        3     |       1     | 0.10283562E-02 | 0.78345386E+03 |  763.516
 BASOPT|        3     |       2     | 0.15426487E-02 | 0.56219010E+03 |  508.408
 BASOPT|        3     |       3     | 0.34601602E-02 | 0.20624902E+03 |  403.852
 BASOPT| -----------------------------------------------------------------------
 BASOPT| Total residuum value: -.22371081E+04

 BASOPT| Information at iteration number:    4100
 BASOPT| Training set | Combination | Rho difference | Condition num. | Time
 BASOPT| -----------------------------------------------------------------------
 BASOPT|        1     |       1     | 0.89786131E-03 | 0.58730502E+03 |  355.683
 BASOPT|        1     |       2     | 0.11082194E-02 | 0.38905483E+03 |  188.078
 BASOPT|        1     |       3     | 0.19787100E-02 | 0.14461861E+03 |  164.828
 BASOPT|        2     |       1     | 0.51120637E-03 | 0.25112426E+04 |  399.857
 BASOPT|        2     |       2     | 0.94757253E-03 | 0.32445357E+03 |  243.659
 BASOPT|        2     |       3     | 0.13606669E-02 | 0.51340138E+02 |  200.130
 BASOPT|        3     |       1     | 0.10290721E-02 | 0.78670974E+03 |  782.554
 BASOPT|        3     |       2     | 0.15392814E-02 | 0.56334376E+03 |  521.061
 BASOPT|        3     |       3     | 0.34567534E-02 | 0.20652529E+03 |  413.950
 BASOPT| -----------------------------------------------------------------------
 BASOPT| Total residuum value: -.22371084E+04

 BASOPT| Information at iteration number:    4200
 BASOPT| Training set | Combination | Rho difference | Condition num. | Time
 BASOPT| -----------------------------------------------------------------------
 BASOPT|        1     |       1     | 0.89925675E-03 | 0.57321050E+03 |  364.324
 BASOPT|        1     |       2     | 0.11077527E-02 | 0.38826391E+03 |  192.599
 BASOPT|        1     |       3     | 0.19785322E-02 | 0.14438344E+03 |  168.788
 BASOPT|        2     |       1     | 0.51161297E-03 | 0.25113436E+04 |  409.621
 BASOPT|        2     |       2     | 0.94881115E-03 | 0.32442595E+03 |  249.559
 BASOPT|        2     |       3     | 0.13615348E-02 | 0.51317031E+02 |  204.959
 BASOPT|        3     |       1     | 0.10293001E-02 | 0.78868041E+03 |  801.593
 BASOPT|        3     |       2     | 0.15359823E-02 | 0.56365010E+03 |  533.710
 BASOPT|        3     |       3     | 0.34569876E-02 | 0.20640783E+03 |  424.073
 BASOPT| -----------------------------------------------------------------------
 BASOPT| Total residuum value: -.22371090E+04

 BASOPT| Information at iteration number:    4300
 BASOPT| Training set | Combination | Rho difference | Condition num. | Time
 BASOPT| -----------------------------------------------------------------------
 BASOPT|        1     |       1     | 0.89720139E-03 | 0.56611453E+03 |  373.026
 BASOPT|        1     |       2     | 0.11054791E-02 | 0.38836385E+03 |  197.118
 BASOPT|        1     |       3     | 0.19782815E-02 | 0.14440171E+03 |  172.749
 BASOPT|        2     |       1     | 0.51296849E-03 | 0.25109490E+04 |  419.384
 BASOPT|        2     |       2     | 0.95080694E-03 | 0.32432299E+03 |  255.459
 BASOPT|        2     |       3     | 0.13625469E-02 | 0.51341798E+02 |  209.787
 BASOPT|        3     |       1     | 0.10281842E-02 | 0.79073140E+03 |  820.635
 BASOPT|        3     |       2     | 0.15352204E-02 | 0.56445433E+03 |  546.360
 BASOPT|        3     |       3     | 0.34546615E-02 | 0.20654512E+03 |  434.125
 BASOPT| -----------------------------------------------------------------------
 BASOPT| Total residuum value: -.22371094E+04

 BASOPT| Information at iteration number:    4400
 BASOPT| Training set | Combination | Rho difference | Condition num. | Time
 BASOPT| -----------------------------------------------------------------------
 BASOPT|        1     |       1     | 0.89525889E-03 | 0.56194466E+03 |  382.516
 BASOPT|        1     |       2     | 0.11023445E-02 | 0.39021788E+03 |  201.636
 BASOPT|        1     |       3     | 0.19765702E-02 | 0.14479113E+03 |  176.708
 BASOPT|        2     |       1     | 0.51482202E-03 | 0.25109385E+04 |  429.144
 BASOPT|        2     |       2     | 0.95282143E-03 | 0.32428088E+03 |  261.353
 BASOPT|        2     |       3     | 0.13664712E-02 | 0.51485109E+02 |  214.614
 BASOPT|        3     |       1     | 0.10275776E-02 | 0.79430834E+03 |  839.674
 BASOPT|        3     |       2     | 0.15344040E-02 | 0.56587291E+03 |  559.013
 BASOPT|        3     |       3     | 0.34507869E-02 | 0.20699828E+03 |  444.178
 BASOPT| -----------------------------------------------------------------------
 BASOPT| Total residuum value: -.22371097E+04

 BASOPT| Information at iteration number:    4500
 BASOPT| Training set | Combination | Rho difference | Condition num. | Time
 BASOPT| -----------------------------------------------------------------------
 BASOPT|        1     |       1     | 0.89529291E-03 | 0.55233294E+03 |  391.119
 BASOPT|        1     |       2     | 0.11022799E-02 | 0.39023889E+03 |  206.155
 BASOPT|        1     |       3     | 0.19794913E-02 | 0.14467086E+03 |  180.667
 BASOPT|        2     |       1     | 0.51512946E-03 | 0.25104201E+04 |  438.906
 BASOPT|        2     |       2     | 0.95319243E-03 | 0.32407408E+03 |  267.247
 BASOPT|        2     |       3     | 0.13676952E-02 | 0.51471264E+02 |  219.443
 BASOPT|        3     |       1     | 0.10280149E-02 | 0.79869072E+03 |  858.714
 BASOPT|        3     |       2     | 0.15339361E-02 | 0.56786104E+03 |  571.665
 BASOPT|        3     |       3     | 0.34447761E-02 | 0.20710197E+03 |  454.229
 BASOPT| -----------------------------------------------------------------------
 BASOPT| Total residuum value: -.22371101E+04

 BASOPT| Information at iteration number:    4600
 BASOPT| Training set | Combination | Rho difference | Condition num. | Time
 BASOPT| -----------------------------------------------------------------------
 BASOPT|        1     |       1     | 0.89527041E-03 | 0.54327615E+03 |  399.414
 BASOPT|        1     |       2     | 0.11021259E-02 | 0.39072902E+03 |  210.672
 BASOPT|        1     |       3     | 0.19787634E-02 | 0.14481001E+03 |  184.626
 BASOPT|        2     |       1     | 0.51480772E-03 | 0.25097476E+04 |  448.664
 BASOPT|        2     |       2     | 0.95351975E-03 | 0.32392328E+03 |  273.138
 BASOPT|        2     |       3     | 0.13734574E-02 | 0.51515411E+02 |  224.273
 BASOPT|        3     |       1     | 0.10281559E-02 | 0.80145921E+03 |  877.755
 BASOPT|        3     |       2     | 0.15336731E-02 | 0.56869856E+03 |  584.318
 BASOPT|        3     |       3     | 0.34404916E-02 | 0.20731548E+03 |  464.356
 BASOPT| -----------------------------------------------------------------------
 BASOPT| Total residuum value: -.22371105E+04

 BASOPT| Information at iteration number:    4700
 BASOPT| Training set | Combination | Rho difference | Condition num. | Time
 BASOPT| -----------------------------------------------------------------------
 BASOPT|        1     |       1     | 0.89449806E-03 | 0.53823216E+03 |  408.094
 BASOPT|        1     |       2     | 0.11017069E-02 | 0.39163343E+03 |  215.193
 BASOPT|        1     |       3     | 0.19757428E-02 | 0.14502216E+03 |  188.585
 BASOPT|        2     |       1     | 0.51638059E-03 | 0.25093591E+04 |  458.425
 BASOPT|        2     |       2     | 0.95510910E-03 | 0.32385237E+03 |  279.029
 BASOPT|        2     |       3     | 0.13777583E-02 | 0.51590516E+02 |  229.101
 BASOPT|        3     |       1     | 0.10259674E-02 | 0.80284450E+03 |  896.793
 BASOPT|        3     |       2     | 0.15320753E-02 | 0.56863536E+03 |  596.971
 BASOPT|        3     |       3     | 0.34389655E-02 | 0.20750786E+03 |  474.486
 BASOPT| -----------------------------------------------------------------------
 BASOPT| Total residuum value: -.22371107E+04

 BASOPT| Information at iteration number:    4800
 BASOPT| Training set | Combination | Rho difference | Condition num. | Time
 BASOPT| -----------------------------------------------------------------------
 BASOPT|        1     |       1     | 0.89406541E-03 | 0.52857093E+03 |  416.773
 BASOPT|        1     |       2     | 0.11000788E-02 | 0.39279077E+03 |  219.712
 BASOPT|        1     |       3     | 0.19754290E-02 | 0.14509669E+03 |  192.543
 BASOPT|        2     |       1     | 0.51690099E-03 | 0.25080411E+04 |  468.186
 BASOPT|        2     |       2     | 0.95551256E-03 | 0.32358528E+03 |  284.923
 BASOPT|        2     |       3     | 0.13728683E-02 | 0.51721782E+02 |  233.930
 BASOPT|        3     |       1     | 0.10256032E-02 | 0.80699762E+03 |  915.832
 BASOPT|        3     |       2     | 0.15310766E-02 | 0.57019832E+03 |  609.624
 BASOPT|        3     |       3     | 0.34423768E-02 | 0.20760384E+03 |  484.620
 BASOPT| -----------------------------------------------------------------------
 BASOPT| Total residuum value: -.22371113E+04

 BASOPT| Information at iteration number:    4900
 BASOPT| Training set | Combination | Rho difference | Condition num. | Time
 BASOPT| -----------------------------------------------------------------------
 BASOPT|        1     |       1     | 0.89666064E-03 | 0.52341513E+03 |  425.382
 BASOPT|        1     |       2     | 0.11017125E-02 | 0.39271716E+03 |  224.231
 BASOPT|        1     |       3     | 0.19805653E-02 | 0.14493277E+03 |  196.501
 BASOPT|        2     |       1     | 0.51596122E-03 | 0.25074147E+04 |  477.947
 BASOPT|        2     |       2     | 0.95326208E-03 | 0.32340286E+03 |  290.815
 BASOPT|        2     |       3     | 0.13700220E-02 | 0.51744706E+02 |  238.754
 BASOPT|        3     |       1     | 0.10260402E-02 | 0.80909232E+03 |  934.870
 BASOPT|        3     |       2     | 0.15290773E-02 | 0.57042536E+03 |  622.275
 BASOPT|        3     |       3     | 0.34390105E-02 | 0.20740729E+03 |  494.750
 BASOPT| -----------------------------------------------------------------------
 BASOPT| Total residuum value: -.22371116E+04

 BASOPT| Information at iteration number:    5000
 BASOPT| Training set | Combination | Rho difference | Condition num. | Time
 BASOPT| -----------------------------------------------------------------------
 BASOPT|        1     |       1     | 0.89796985E-03 | 0.52072836E+03 |  434.110
 BASOPT|        1     |       2     | 0.11019508E-02 | 0.39432618E+03 |  228.752
 BASOPT|        1     |       3     | 0.19819401E-02 | 0.14526735E+03 |  200.459
 BASOPT|        2     |       1     | 0.51585422E-03 | 0.25071374E+04 |  487.707
 BASOPT|        2     |       2     | 0.95211458E-03 | 0.32328980E+03 |  296.706
 BASOPT|        2     |       3     | 0.13745887E-02 | 0.51855584E+02 |  243.582
 BASOPT|        3     |       1     | 0.10252743E-02 | 0.81241771E+03 |  953.908
 BASOPT|        3     |       2     | 0.15272596E-02 | 0.57159754E+03 |  634.927
 BASOPT|        3     |       3     | 0.34303599E-02 | 0.20780436E+03 |  504.871
 BASOPT| -----------------------------------------------------------------------
 BASOPT| Total residuum value: -.22371119E+04

 BASOPT| Information at iteration number:    5100
 BASOPT| Training set | Combination | Rho difference | Condition num. | Time
 BASOPT| -----------------------------------------------------------------------
 BASOPT|        1     |       1     | 0.89592055E-03 | 0.52099275E+03 |  443.562
 BASOPT|        1     |       2     | 0.11006173E-02 | 0.39469299E+03 |  233.275
 BASOPT|        1     |       3     | 0.19796644E-02 | 0.14508745E+03 |  204.417
 BASOPT|        2     |       1     | 0.51672847E-03 | 0.25066245E+04 |  497.465
 BASOPT|        2     |       2     | 0.95452129E-03 | 0.32315264E+03 |  302.593
 BASOPT|        2     |       3     | 0.13750004E-02 | 0.51824149E+02 |  248.410
 BASOPT|        3     |       1     | 0.10244006E-02 | 0.81501164E+03 |  972.950
 BASOPT|        3     |       2     | 0.15275513E-02 | 0.57232028E+03 |  647.578
 BASOPT|        3     |       3     | 0.34346067E-02 | 0.20765017E+03 |  514.916
 BASOPT| -----------------------------------------------------------------------
 BASOPT| Total residuum value: -.22371121E+04

 BASOPT| Information at iteration number:    5200
 BASOPT| Training set | Combination | Rho difference | Condition num. | Time
 BASOPT| -----------------------------------------------------------------------
 BASOPT|        1     |       1     | 0.89772847E-03 | 0.52167295E+03 |  452.597
 BASOPT|        1     |       2     | 0.11031273E-02 | 0.39403819E+03 |  237.796
 BASOPT|        1     |       3     | 0.19823195E-02 | 0.14466712E+03 |  208.375
 BASOPT|        2     |       1     | 0.51507581E-03 | 0.25059490E+04 |  507.232
 BASOPT|        2     |       2     | 0.95384996E-03 | 0.32300731E+03 |  308.489
 BASOPT|        2     |       3     | 0.13716526E-02 | 0.51725576E+02 |  253.240
 BASOPT|        3     |       1     | 0.10227938E-02 | 0.81711686E+03 |  991.990
 BASOPT|        3     |       2     | 0.15258178E-02 | 0.57251562E+03 |  660.226
 BASOPT|        3     |       3     | 0.34353764E-02 | 0.20727630E+03 |  524.967
 BASOPT| -----------------------------------------------------------------------
 BASOPT| Total residuum value: -.22371123E+04

 BASOPT| Information at iteration number:    5300
 BASOPT| Training set | Combination | Rho difference | Condition num. | Time
 BASOPT| -----------------------------------------------------------------------
 BASOPT|        1     |       1     | 0.89712991E-03 | 0.52319367E+03 |  461.185
 BASOPT|        1     |       2     | 0.11019217E-02 | 0.39489000E+03 |  242.315
 BASOPT|        1     |       3     | 0.19821211E-02 | 0.14483272E+03 |  212.334
 BASOPT|        2     |       1     | 0.51516364E-03 | 0.25057244E+04 |  516.992
 BASOPT|        2     |       2     | 0.95375400E-03 | 0.32293690E+03 |  314.381
 BASOPT|        2     |       3     | 0.13724749E-02 | 0.51786104E+02 |  258.068
 BASOPT|        3     |       1     | 0.10229388E-02 | 0.81885200E+03 | 1011.028
 BASOPT|        3     |       2     | 0.15255534E-02 | 0.57308828E+03 |  672.874
 BASOPT|        3     |       3     | 0.34335985E-02 | 0.20746195E+03 |  535.012
 BASOPT| -----------------------------------------------------------------------
 BASOPT| Total residuum value: -.22371125E+04

 BASOPT| Information at iteration number:    5400
 BASOPT| Training set | Combination | Rho difference | Condition num. | Time
 BASOPT| -----------------------------------------------------------------------
 BASOPT|        1     |       1     | 0.89643516E-03 | 0.52475715E+03 |  469.792
 BASOPT|        1     |       2     | 0.11016076E-02 | 0.39547874E+03 |  246.835
 BASOPT|        1     |       3     | 0.19839203E-02 | 0.14490515E+03 |  216.294
 BASOPT|        2     |       1     | 0.51484532E-03 | 0.25051697E+04 |  526.763
 BASOPT|        2     |       2     | 0.95356988E-03 | 0.32283405E+03 |  320.276
 BASOPT|        2     |       3     | 0.13739054E-02 | 0.51835200E+02 |  262.900
 BASOPT|        3     |       1     | 0.10220574E-02 | 0.81972801E+03 | 1030.072
 BASOPT|        3     |       2     | 0.15248876E-02 | 0.57284899E+03 |  685.523
 BASOPT|        3     |       3     | 0.34281710E-02 | 0.20747283E+03 |  545.061
 BASOPT| -----------------------------------------------------------------------
 BASOPT| Total residuum value: -.22371126E+04

 BASOPT| Information at iteration number:    5500
 BASOPT| Training set | Combination | Rho difference | Condition num. | Time
 BASOPT| -----------------------------------------------------------------------
 BASOPT|        1     |       1     | 0.89617127E-03 | 0.52594017E+03 |  478.244
 BASOPT|        1     |       2     | 0.11006881E-02 | 0.39613559E+03 |  251.356
 BASOPT|        1     |       3     | 0.19832258E-02 | 0.14505998E+03 |  220.254
 BASOPT|        2     |       1     | 0.51547510E-03 | 0.25047861E+04 |  536.526
 BASOPT|        2     |       2     | 0.95321374E-03 | 0.32278717E+03 |  326.166
 BASOPT|        2     |       3     | 0.13754907E-02 | 0.51886780E+02 |  267.730
 BASOPT|        3     |       1     | 0.10213887E-02 | 0.82078242E+03 | 1049.113
 BASOPT|        3     |       2     | 0.15235823E-02 | 0.57297392E+03 |  698.172
 BASOPT|        3     |       3     | 0.34275509E-02 | 0.20754189E+03 |  555.103
 BASOPT| -----------------------------------------------------------------------
 BASOPT| Total residuum value: -.22371125E+04

 BASOPT| Information at iteration number:    5600
 BASOPT| Training set | Combination | Rho difference | Condition num. | Time
 BASOPT| -----------------------------------------------------------------------
 BASOPT|        1     |       1     | 0.89721943E-03 | 0.52586259E+03 |  486.593
 BASOPT|        1     |       2     | 0.11013349E-02 | 0.39583732E+03 |  255.875
 BASOPT|        1     |       3     | 0.19818196E-02 | 0.14504279E+03 |  224.214
 BASOPT|        2     |       1     | 0.51417517E-03 | 0.25042866E+04 |  546.290
 BASOPT|        2     |       2     | 0.95112550E-03 | 0.32273475E+03 |  332.059
 BASOPT|        2     |       3     | 0.13776056E-02 | 0.51845429E+02 |  272.560
 BASOPT|        3     |       1     | 0.10211677E-02 | 0.81971027E+03 | 1068.154
 BASOPT|        3     |       2     | 0.15218461E-02 | 0.57183890E+03 |  710.824
 BASOPT|        3     |       3     | 0.34298327E-02 | 0.20736758E+03 |  565.149
 BASOPT| -----------------------------------------------------------------------
 BASOPT| Total residuum value: -.22371130E+04

 BASOPT| Information at iteration number:    5700
 BASOPT| Training set | Combination | Rho difference | Condition num. | Time
 BASOPT| -----------------------------------------------------------------------
 BASOPT|        1     |       1     | 0.89746775E-03 | 0.52567917E+03 |  494.915
 BASOPT|        1     |       2     | 0.11029840E-02 | 0.39451758E+03 |  260.395
 BASOPT|        1     |       3     | 0.19818261E-02 | 0.14475614E+03 |  228.176
 BASOPT|        2     |       1     | 0.51369479E-03 | 0.25034479E+04 |  556.054
 BASOPT|        2     |       2     | 0.95115984E-03 | 0.32266190E+03 |  337.955
 BASOPT|        2     |       3     | 0.13785101E-02 | 0.51741432E+02 |  277.391
 BASOPT|        3     |       1     | 0.10200417E-02 | 0.81872262E+03 | 1087.193
 BASOPT|        3     |       2     | 0.15211934E-02 | 0.57074846E+03 |  723.479
 BASOPT|        3     |       3     | 0.34329573E-02 | 0.20695477E+03 |  575.195
 BASOPT| -----------------------------------------------------------------------
 BASOPT| Total residuum value: -.22371130E+04

 BASOPT| Information at iteration number:    5800
 BASOPT| Training set | Combination | Rho difference | Condition num. | Time
 BASOPT| -----------------------------------------------------------------------
 BASOPT|        1     |       1     | 0.90054104E-03 | 0.52371059E+03 |  503.125
 BASOPT|        1     |       2     | 0.11054900E-02 | 0.39378082E+03 |  264.912
 BASOPT|        1     |       3     | 0.19861246E-02 | 0.14455070E+03 |  232.136
 BASOPT|        2     |       1     | 0.51195620E-03 | 0.25028235E+04 |  565.820
 BASOPT|        2     |       2     | 0.94749916E-03 | 0.32258029E+03 |  343.850
 BASOPT|        2     |       3     | 0.13739096E-02 | 0.51639582E+02 |  282.221
 BASOPT|        3     |       1     | 0.10203429E-02 | 0.81794570E+03 | 1106.232
 BASOPT|        3     |       2     | 0.15192120E-02 | 0.57027461E+03 |  736.131
 BASOPT|        3     |       3     | 0.34302644E-02 | 0.20672463E+03 |  585.245
 BASOPT| -----------------------------------------------------------------------
 BASOPT| Total residuum value: -.22371133E+04

 BASOPT| Information at iteration number:    5900
 BASOPT| Training set | Combination | Rho difference | Condition num. | Time
 BASOPT| -----------------------------------------------------------------------
 BASOPT|        1     |       1     | 0.90077159E-03 | 0.52451231E+03 |  511.946
 BASOPT|        1     |       2     | 0.11057006E-02 | 0.39416640E+03 |  269.430
 BASOPT|        1     |       3     | 0.19874400E-02 | 0.14464574E+03 |  236.097
 BASOPT|        2     |       1     | 0.51253316E-03 | 0.25023824E+04 |  575.581
 BASOPT|        2     |       2     | 0.94717002E-03 | 0.32254913E+03 |  349.743
 BASOPT|        2     |       3     | 0.13747136E-02 | 0.51641424E+02 |  287.050
 BASOPT|        3     |       1     | 0.10197233E-02 | 0.81789369E+03 | 1125.270
 BASOPT|        3     |       2     | 0.15183903E-02 | 0.57007563E+03 |  748.780
 BASOPT|        3     |       3     | 0.34267945E-02 | 0.20676529E+03 |  595.292
 BASOPT| -----------------------------------------------------------------------
 BASOPT| Total residuum value: -.22371132E+04

 BASOPT| Information at iteration number:    6000
 BASOPT| Training set | Combination | Rho difference | Condition num. | Time
 BASOPT| -----------------------------------------------------------------------
 BASOPT|        1     |       1     | 0.89997396E-03 | 0.52530900E+03 |  520.770
 BASOPT|        1     |       2     | 0.11035030E-02 | 0.39452378E+03 |  273.949
 BASOPT|        1     |       3     | 0.19871275E-02 | 0.14478069E+03 |  240.057
 BASOPT|        2     |       1     | 0.51246464E-03 | 0.25023151E+04 |  585.344
 BASOPT|        2     |       2     | 0.94680965E-03 | 0.32252009E+03 |  355.635
 BASOPT|        2     |       3     | 0.13749266E-02 | 0.51708099E+02 |  291.878
 BASOPT|        3     |       1     | 0.10207145E-02 | 0.81676582E+03 | 1144.317
 BASOPT|        3     |       2     | 0.15178906E-02 | 0.56885471E+03 |  761.433
 BASOPT|        3     |       3     | 0.34292964E-02 | 0.20676054E+03 |  605.341
 BASOPT| -----------------------------------------------------------------------
 BASOPT| Total residuum value: -.22371134E+04

 BASOPT| Information at iteration number:    6100
 BASOPT| Training set | Combination | Rho difference | Condition num. | Time
 BASOPT| -----------------------------------------------------------------------
 BASOPT|        1     |       1     | 0.89762344E-03 | 0.52532472E+03 |  530.194
 BASOPT|        1     |       2     | 0.11025887E-02 | 0.39429361E+03 |  278.471
 BASOPT|        1     |       3     | 0.19842230E-02 | 0.14472472E+03 |  244.016
 BASOPT|        2     |       1     | 0.51390380E-03 | 0.25020163E+04 |  595.101
 BASOPT|        2     |       2     | 0.94857931E-03 | 0.32248660E+03 |  361.527
 BASOPT|        2     |       3     | 0.13791327E-02 | 0.51710418E+02 |  296.706
 BASOPT|        3     |       1     | 0.10190736E-02 | 0.81516073E+03 | 1163.361
 BASOPT|        3     |       2     | 0.15178934E-02 | 0.56750790E+03 |  774.087
 BASOPT|        3     |       3     | 0.34287670E-02 | 0.20654830E+03 |  615.385
 BASOPT| -----------------------------------------------------------------------
 BASOPT| Total residuum value: -.22371137E+04

 BASOPT| Information at iteration number:    6200
 BASOPT| Training set | Combination | Rho difference | Condition num. | Time
 BASOPT| -----------------------------------------------------------------------
 BASOPT|        1     |       1     | 0.89668605E-03 | 0.52548894E+03 |  538.839
 BASOPT|        1     |       2     | 0.11028087E-02 | 0.39351283E+03 |  282.991
 BASOPT|        1     |       3     | 0.19842662E-02 | 0.14443567E+03 |  247.977
 BASOPT|        2     |       1     | 0.51383066E-03 | 0.25016328E+04 |  604.866
 BASOPT|        2     |       2     | 0.94927644E-03 | 0.32240992E+03 |  367.421
 BASOPT|        2     |       3     | 0.13825250E-02 | 0.51667723E+02 |  301.535
 BASOPT|        3     |       1     | 0.10182086E-02 | 0.81308143E+03 | 1182.401
 BASOPT|        3     |       2     | 0.15174311E-02 | 0.56549730E+03 |  786.747
 BASOPT|        3     |       3     | 0.34260123E-02 | 0.20604165E+03 |  625.427
 BASOPT| -----------------------------------------------------------------------
 BASOPT| Total residuum value: -.22371138E+04

 BASOPT| Information at iteration number:    6300
 BASOPT| Training set | Combination | Rho difference | Condition num. | Time
 BASOPT| -----------------------------------------------------------------------
 BASOPT|        1     |       1     | 0.89873304E-03 | 0.52495166E+03 |  547.422
 BASOPT|        1     |       2     | 0.11038884E-02 | 0.39322358E+03 |  287.515
 BASOPT|        1     |       3     | 0.19863495E-02 | 0.14434113E+03 |  251.937
 BASOPT|        2     |       1     | 0.51316062E-03 | 0.25012813E+04 |  614.630
 BASOPT|        2     |       2     | 0.94759551E-03 | 0.32237045E+03 |  373.318
 BASOPT|        2     |       3     | 0.13776385E-02 | 0.51639764E+02 |  306.365
 BASOPT|        3     |       1     | 0.10181277E-02 | 0.81299773E+03 | 1201.442
 BASOPT|        3     |       2     | 0.15151224E-02 | 0.56494158E+03 |  799.404
 BASOPT|        3     |       3     | 0.34282548E-02 | 0.20586373E+03 |  635.475
 BASOPT| -----------------------------------------------------------------------
 BASOPT| Total residuum value: -.22371138E+04

 BASOPT| Information at iteration number:    6400
 BASOPT| Training set | Combination | Rho difference | Condition num. | Time
 BASOPT| -----------------------------------------------------------------------
 BASOPT|        1     |       1     | 0.89873939E-03 | 0.52578417E+03 |  555.869
 BASOPT|        1     |       2     | 0.11040726E-02 | 0.39279347E+03 |  292.036
 BASOPT|        1     |       3     | 0.19865624E-02 | 0.14415574E+03 |  255.898
 BASOPT|        2     |       1     | 0.51267102E-03 | 0.25011686E+04 |  624.396
 BASOPT|        2     |       2     | 0.94765701E-03 | 0.32233613E+03 |  379.211
 BASOPT|        2     |       3     | 0.13813329E-02 | 0.51623201E+02 |  311.195
 BASOPT|        3     |       1     | 0.10181739E-02 | 0.81162946E+03 | 1220.484
 BASOPT|        3     |       2     | 0.15147783E-02 | 0.56328776E+03 |  812.061
 BASOPT|        3     |       3     | 0.34259823E-02 | 0.20551058E+03 |  645.521
 BASOPT| -----------------------------------------------------------------------
 BASOPT| Total residuum value: -.22371140E+04

 BASOPT| Information at iteration number:    6500
 BASOPT| Training set | Combination | Rho difference | Condition num. | Time
 BASOPT| -----------------------------------------------------------------------
 BASOPT|        1     |       1     | 0.89898828E-03 | 0.52635717E+03 |  564.287
 BASOPT|        1     |       2     | 0.11037548E-02 | 0.39317651E+03 |  296.557
 BASOPT|        1     |       3     | 0.19854073E-02 | 0.14408587E+03 |  259.858
 BASOPT|        2     |       1     | 0.51259431E-03 | 0.25008629E+04 |  634.155
 BASOPT|        2     |       2     | 0.94754916E-03 | 0.32229662E+03 |  385.105
 BASOPT|        2     |       3     | 0.13753950E-02 | 0.51616981E+02 |  316.025
 BASOPT|        3     |       1     | 0.10185296E-02 | 0.81250801E+03 | 1239.526
 BASOPT|        3     |       2     | 0.15142415E-02 | 0.56323018E+03 |  824.718
 BASOPT|        3     |       3     | 0.34350596E-02 | 0.20534408E+03 |  655.567
 BASOPT| -----------------------------------------------------------------------
 BASOPT| Total residuum value: -.22371141E+04

 BASOPT| Information at iteration number:    6600
 BASOPT| Training set | Combination | Rho difference | Condition num. | Time
 BASOPT| -----------------------------------------------------------------------
 BASOPT|        1     |       1     | 0.89995508E-03 | 0.52635978E+03 |  572.631
 BASOPT|        1     |       2     | 0.11047264E-02 | 0.39241107E+03 |  301.075
 BASOPT|        1     |       3     | 0.19871949E-02 | 0.14375771E+03 |  263.817
 BASOPT|        2     |       1     | 0.51170741E-03 | 0.25003285E+04 |  643.915
 BASOPT|        2     |       2     | 0.94706992E-03 | 0.32220311E+03 |  390.999
 BASOPT|        2     |       3     | 0.13759184E-02 | 0.51576163E+02 |  320.854
 BASOPT|        3     |       1     | 0.10182129E-02 | 0.81201804E+03 | 1258.570
 BASOPT|        3     |       2     | 0.15130757E-02 | 0.56194834E+03 |  837.371
 BASOPT|        3     |       3     | 0.34339845E-02 | 0.20483511E+03 |  665.612
 BASOPT| -----------------------------------------------------------------------
 BASOPT| Total residuum value: -.22371143E+04

 BASOPT| Information at iteration number:    6700
 BASOPT| Training set | Combination | Rho difference | Condition num. | Time
 BASOPT| -----------------------------------------------------------------------
[...]
 BASOPT|        3     |       2     | 0.14528264E-02 | 0.51797133E+03 | 9739.704
 BASOPT|        3     |       3     | 0.34850730E-02 | 0.19530548E+03 | 7735.439
 BASOPT| -----------------------------------------------------------------------
 BASOPT| Total residuum value: -.22371335E+04

 BASOPT| Information at iteration number:   77100
 BASOPT| Training set | Combination | Rho difference | Condition num. | Time
 BASOPT| -----------------------------------------------------------------------
 BASOPT|        1     |       1     | 0.87032815E-03 | 0.49734596E+03 | 6361.812
 BASOPT|        1     |       2     | 0.10853529E-02 | 0.35411573E+03 | 3482.067
 BASOPT|        1     |       3     | 0.19976029E-02 | 0.13934156E+03 | 3057.881
 BASOPT|        2     |       1     | 0.53043886E-03 | 0.23352963E+04 | 7509.597
 BASOPT|        2     |       2     | 0.98358993E-03 | 0.29323272E+03 | 4541.607
 BASOPT|        2     |       3     | 0.13971397E-02 | 0.57349703E+02 | 3726.507
 BASOPT|        3     |       1     | 0.94206118E-03 | 0.80297616E+03 | ********
 BASOPT|        3     |       2     | 0.14528264E-02 | 0.51797133E+03 | 9752.345
 BASOPT|        3     |       3     | 0.34850730E-02 | 0.19530548E+03 | 7745.479
 BASOPT| -----------------------------------------------------------------------
 BASOPT| Total residuum value: -.22371335E+04

 BASOPT| Information at iteration number:   77200
 BASOPT| Training set | Combination | Rho difference | Condition num. | Time
 BASOPT| -----------------------------------------------------------------------
 BASOPT|        1     |       1     | 0.87032815E-03 | 0.49734596E+03 | 6368.852
 BASOPT|        1     |       2     | 0.10853529E-02 | 0.35411573E+03 | 3486.574
 BASOPT|        1     |       3     | 0.19976029E-02 | 0.13934156E+03 | 3061.851
 BASOPT|        2     |       1     | 0.53043886E-03 | 0.23352963E+04 | 7519.333
 BASOPT|        2     |       2     | 0.98358993E-03 | 0.29323272E+03 | 4547.494
 BASOPT|        2     |       3     | 0.13971397E-02 | 0.57349703E+02 | 3731.343
 BASOPT|        3     |       1     | 0.94206118E-03 | 0.80297616E+03 | ********
 BASOPT|        3     |       2     | 0.14528264E-02 | 0.51797133E+03 | 9764.986
 BASOPT|        3     |       3     | 0.34850730E-02 | 0.19530548E+03 | 7755.517
 BASOPT| -----------------------------------------------------------------------
 BASOPT| Total residuum value: -.22371335E+04

 BASOPT| Information at iteration number:   77300
 BASOPT| Training set | Combination | Rho difference | Condition num. | Time
 BASOPT| -----------------------------------------------------------------------
 BASOPT|        1     |       1     | 0.87032815E-03 | 0.49734596E+03 | 6375.987
 BASOPT|        1     |       2     | 0.10853529E-02 | 0.35411573E+03 | 3491.084
 BASOPT|        1     |       3     | 0.19976029E-02 | 0.13934156E+03 | 3065.829
 BASOPT|        2     |       1     | 0.53043886E-03 | 0.23352963E+04 | 7529.070
 BASOPT|        2     |       2     | 0.98358993E-03 | 0.29323272E+03 | 4553.383
 BASOPT|        2     |       3     | 0.13971397E-02 | 0.57349703E+02 | 3736.179
 BASOPT|        3     |       1     | 0.94206118E-03 | 0.80297616E+03 | ********
 BASOPT|        3     |       2     | 0.14528264E-02 | 0.51797133E+03 | 9777.629
 BASOPT|        3     |       3     | 0.34850730E-02 | 0.19530548E+03 | 7765.554
 BASOPT| -----------------------------------------------------------------------
 BASOPT| Total residuum value: -.22371335E+04

 BASOPT| Information at iteration number:   77400
 BASOPT| Training set | Combination | Rho difference | Condition num. | Time
 BASOPT| -----------------------------------------------------------------------
 BASOPT|        1     |       1     | 0.87032815E-03 | 0.49734596E+03 | 6383.214
 BASOPT|        1     |       2     | 0.10853529E-02 | 0.35411573E+03 | 3495.592
 BASOPT|        1     |       3     | 0.19976029E-02 | 0.13934156E+03 | 3069.797
 BASOPT|        2     |       1     | 0.53043886E-03 | 0.23352963E+04 | 7538.805
 BASOPT|        2     |       2     | 0.98358993E-03 | 0.29323272E+03 | 4559.273
 BASOPT|        2     |       3     | 0.13971397E-02 | 0.57349703E+02 | 3741.013
 BASOPT|        3     |       1     | 0.94206118E-03 | 0.80297616E+03 | ********
 BASOPT|        3     |       2     | 0.14528264E-02 | 0.51797133E+03 | 9790.269
 BASOPT|        3     |       3     | 0.34850730E-02 | 0.19530548E+03 | 7775.589
 BASOPT| -----------------------------------------------------------------------
 BASOPT| Total residuum value: -.22371335E+04

 BASOPT| Information at iteration number:   77500
 BASOPT| Training set | Combination | Rho difference | Condition num. | Time
 BASOPT| -----------------------------------------------------------------------
 BASOPT|        1     |       1     | 0.87032815E-03 | 0.49734596E+03 | 6390.357
 BASOPT|        1     |       2     | 0.10853529E-02 | 0.35411573E+03 | 3500.100
 BASOPT|        1     |       3     | 0.19976029E-02 | 0.13934156E+03 | 3073.763
 BASOPT|        2     |       1     | 0.53043886E-03 | 0.23352963E+04 | 7548.543
 BASOPT|        2     |       2     | 0.98358993E-03 | 0.29323272E+03 | 4565.161
 BASOPT|        2     |       3     | 0.13971397E-02 | 0.57349703E+02 | 3745.848
 BASOPT|        3     |       1     | 0.94206118E-03 | 0.80297616E+03 | ********
 BASOPT|        3     |       2     | 0.14528264E-02 | 0.51797133E+03 | 9802.908
 BASOPT|        3     |       3     | 0.34850730E-02 | 0.19530548E+03 | 7785.627
 BASOPT| -----------------------------------------------------------------------
 BASOPT| Total residuum value: -.22371335E+04


 -------------------------------------------------------------------------------
 -                                                                             -
 -                                DBCSR STATISTICS                             -
 -                                                                             -
 -------------------------------------------------------------------------------
 COUNTER                                    TOTAL       BLAS       SMM       ACC
 flops   116 x   116 x     9               726624       0.0%    100.0%      0.0%
 flops   116 x   144 x     9               902016       0.0%    100.0%      0.0%
 flops   144 x    68 x     9              1057536       0.0%    100.0%      0.0%
 flops    68 x   144 x     9              1586304       0.0%    100.0%      0.0%
 flops   144 x   144 x     9              2239488       0.0%    100.0%      0.0%
 flops   144 x   144 x    20              2488320       0.0%    100.0%      0.0%
 flops    68 x    68 x     9              3745440       0.0%    100.0%      0.0%
 flops   144 x   116 x    20              4008960       0.0%    100.0%      0.0%
 flops   116 x   144 x    20              4008960       0.0%    100.0%      0.0%
 flops   116 x   116 x    20             16147200       0.0%    100.0%      0.0%
 flops inhomo. stacks                           0       0.0%      0.0%      0.0%
 flops total                        36.910848E+06       0.0%    100.0%      0.0%
 flops max/rank                      2.165760E+06       0.0%    100.0%      0.0%
 matmuls inhomo. stacks                         0       0.0%      0.0%      0.0%
 matmuls total                                117       0.0%    100.0%      0.0%
 number of processed stacks                    57       0.0%    100.0%      0.0%
 average stack size                                     0.0       2.1       0.0
 marketing flops                    60.659904E+06
 -------------------------------------------------------------------------------
 # multiplications                              1
 max memory usage/rank             693.854208E+06
 # max total images/rank                        3
 # max 3D layers                                1
 # MPI messages exchanged                     246
 MPI messages size (bytes):
  total size                         1.754016E+06
  min size                           0.000000E+00
  max size                          97.280000E+03
  average size                       7.130146E+03
 MPI breakdown and total messages size (bytes):
             size <=      128                 213                        0
       128 < size <=     8192                   0                        0
      8192 < size <=    32768                   9                   168480
     32768 < size <=   131072                  24                  1585536
    131072 < size <=  4194304                   0                        0
   4194304 < size <= 16777216                   0                        0
  16777216 < size                               0                        0
 -------------------------------------------------------------------------------

 *** WARNING in dbcsr_mm.F:294 :: Using a non-square number of MPI ranks ***
 *** might lead to poor performance. Used ranks: 6 Suggested: 4 9        ***

 -------------------------------------------------------------------------------
 -                                                                             -
 -                      DBCSR MESSAGE PASSING PERFORMANCE                      -
 -                                                                             -
 -------------------------------------------------------------------------------
 ROUTINE             CALLS      AVE VOLUME [Bytes]
 MP_Bcast               11                     12.
 MP_Allreduce           46                     21.
 MP_Alltoall       4654821                  85158.
 MP_ISend               18                   2140.
 MP_IRecv               18                     57.
 -------------------------------------------------------------------------------

 -------------------------------------------------------------------------------
 -                                                                             -
 -                                GRID STATISTICS                              -
 -                                                                             -
 -------------------------------------------------------------------------------
 LP    KERNEL             BACKEND                              COUNT     PERCENT
 2     collocate ortho    REF                                   5622      10.82%
 2     integrate ortho    REF                                   5622      10.82%
 4     collocate ortho    REF                                   5091       9.80%
 4     integrate ortho    REF                                   5091       9.80%
 3     collocate ortho    REF                                   3939       7.58%
 3     integrate ortho    REF                                   3939       7.58%
 5     collocate ortho    REF                                   3351       6.45%
 5     integrate ortho    REF                                   3351       6.45%
 0     collocate ortho    REF                                   2784       5.36%
 0     integrate ortho    REF                                   2784       5.36%
 6     collocate ortho    REF                                   2442       4.70%
 6     integrate ortho    REF                                   2442       4.70%
 1     collocate ortho    REF                                   1260       2.42%
 1     integrate ortho    REF                                   1260       2.42%
 7     collocate ortho    REF                                    741       1.43%
 7     integrate ortho    REF                                    741       1.43%
 8     collocate ortho    REF                                    651       1.25%
 8     integrate ortho    REF                                    651       1.25%
 0     collocate general  REF                                    201       0.39%
 -------------------------------------------------------------------------------

 MEMORY| Estimated peak process memory [MiB]                                1446

 -------------------------------------------------------------------------------
 -                                                                             -
 -                         MESSAGE PASSING PERFORMANCE                         -
 -                                                                             -
 -------------------------------------------------------------------------------

 ROUTINE             CALLS      AVE VOLUME [Bytes]
 MP_Bcast           232777                    326.
 MP_Allreduce      1008909                     73.
 MP_Sync            232740
 MP_Alltoall            44               13339943.
 MP_ISendRecv           30                 511552.
 MP_Wait                60
 MP_comm_split      155161
 MP_ISend               24                1701000.
 MP_IRecv               24                1701000.
 -------------------------------------------------------------------------------


 -------------------------------------------------------------------------------
 -                                                                             -
 -                           R E F E R E N C E S                               -
 -                                                                             -
 -------------------------------------------------------------------------------
 
 CP2K version 9.0 (Development Version), the CP2K developers group (2020).
 CP2K is freely available from https://www.cp2k.org/ .

 Kuehne,Thomas D.; Iannuzzi,Marcella; Del Ben,Mauro;
 Rybkin,Vladimir V.; Seewald,Patrick; Stein,Frederick; Laino,Teodoro;
 Khaliullin,Rustam Z.; Schuett,Ole; Schiffmann,Florian; Golze,Dorothea;
 Wilhelm,Jan; Chulkov,Sergey; Bani-Hashemian,Mohammad Hossein;
 Weber,Valery; Borstnik,Urban; Taillefumier,Mathieu;
 Jakobovits,Alice Shoshana; Lazzaro,Alfio; Pabst,Hans; Mueller,Tiziano;
 Schade,Robert; Guidon,Manuel; Andermatt,Samuel; Holmberg,Nico;
 Schenter,Gregory K.; Hehn,Anna; Bussy,Augustin; Belleflamme,Fabian;
 Tabacchi,Gloria; Gloess,Andreas; Lass,Michael; Bethune,Iain;
 Mundy,Christopher J.; Plessl,Christian; Watkins,Matt;
 VandeVondele,Joost; Krack,Matthias; Hutter,Juerg. 
 The Journal of Chemical Physics, 152 (19), (2020). 
 CP2K: An electronic structure and molecular dynamics software package -
 Quickstep: Efficient and accurate electronic structure calculations.
 https://doi.org/10.1063/5.0007045

 Schuett, Ole; Messmer, Peter; Hutter, Juerg; VandeVondele, Joost. 
 Electronic Structure Calculations on Graphics Processing Units, John
 Wiley & Sons, Ltd, 173-190 (2016). 
 GPU-Accelerated Sparse Matrix-Matrix Multiplication for
 Linear Scaling Density Functional Theory.
 https://doi.org/10.1002/9781118670712.ch8

 Borstnik, U; VandeVondele, J; Weber, V; Hutter, J. 
 PARALLEL COMPUTING, 40 (5-6), 47-58 (2014). 
 Sparse matrix multiplication: The distributed block-compressed sparse
 row library.
 https://doi.org/10.1016/j.parco.2014.03.012

 Hutter, J; Iannuzzi, M; Schiffmann, F; VandeVondele, J. 
 WIREs Comput Mol Sci., 4 (1), 15-25 (2014). 
 CP2K: atomistic simulations of condensed matter systems.
 https://doi.org/10.1002/wcms.1159

 Marek, A; Blum, V; Johanni, R; Havu, V; Lang, B; Auckenthaler, T;
 Heinecke, A; Bungartz, H; Lederer, H. 
 Journal of Physics: Condensed Matter, 26 (21), (2014). 
 The ELPA library: scalable parallel eigenvalue solutions for
 electronic structure
 theory and computational science.
 https://doi.org/10.1088/0953-8984/26/21/213201

 Guidon, M; Hutter, J; VandeVondele, J. 
 JOURNAL OF CHEMICAL THEORY AND COMPUTATION, 6 (8), 2348-2364 (2010). 
 Auxiliary Density Matrix Methods for Hartree-Fock Exchange Calculations.
 https://doi.org/10.1021/ct1002225

 VandeVondele, J; Hutter, J. 
 JOURNAL OF CHEMICAL PHYSICS, 127 (11), 114105 (2007). 
 Gaussian basis sets for accurate calculations on molecular systems in
 gas and condensed phases.
 https://doi.org/10.1063/1.2770708

 Krack, M. 
 THEORETICAL CHEMISTRY ACCOUNTS, 114 (1-3), 145-152 (2005). 
 Pseudopotentials for H to Kr optimized for gradient-corrected
 exchange-correlation functionals.
 https://doi.org/10.1007/s00214-005-0655-y

 VandeVondele, J; Krack, M; Mohamed, F; Parrinello, M; Chassaing, T;
 Hutter, J. COMPUTER PHYSICS COMMUNICATIONS, 167 (2), 103-128 (2005). 
 QUICKSTEP: Fast and accurate density functional calculations using a
 mixed Gaussian and plane waves approach.
 https://doi.org/10.1016/j.cpc.2004.12.014

 Frigo, M; Johnson, SG. 
 PROCEEDINGS OF THE IEEE, 93 (2), 216-231 (2005). 
 The design and implementation of FFTW3.
 https://doi.org/10.1109/JPROC.2004.840301

 Hartwigsen, C; Goedecker, S; Hutter, J. 
 PHYSICAL REVIEW B, 58 (7), 3641-3662 (1998). 
 Relativistic separable dual-space Gaussian pseudopotentials from H to Rn.
 https://doi.org/10.1103/PhysRevB.58.3641

 Lippert, G; Hutter, J; Parrinello, M. 
 MOLECULAR PHYSICS, 92 (3), 477-487 (1997). 
 A hybrid Gaussian and plane wave density functional scheme.
 https://doi.org/10.1080/002689797170220

 Perdew, JP; Burke, K; Ernzerhof, M. 
 PHYSICAL REVIEW LETTERS, 77 (18), 3865-3868 (1996). 
 Generalized gradient approximation made simple.
 https://doi.org/10.1103/PhysRevLett.77.3865

 Goedecker, S; Teter, M; Hutter, J. 
 PHYSICAL REVIEW B, 54 (3), 1703-1710 (1996). 
 Separable dual-space Gaussian pseudopotentials.
 https://doi.org/10.1103/PhysRevB.54.1703


 -------------------------------------------------------------------------------
 -                                                                             -
 -                                T I M I N G                                  -
 -                                                                             -
 -------------------------------------------------------------------------------
 SUBROUTINE                       CALLS  ASD         SELF TIME        TOTAL TIME
                                MAXIMUM       AVERAGE  MAXIMUM  AVERAGE  MAXIMUM
 CP2K                                 1  1.0     0.00     0.00 14839.42 14839.58
 run_optimize_basis                   1  2.0     0.00     0.00 14839.40 14839.57
 driver_para_opt_basis                1  3.0     0.00     0.00 14839.39 14839.56
 driver_optimization_para_low         1  4.0     0.86     1.86 14839.39 14839.56
 compute_residuum_vectors         77580  5.0     4.82     6.35 14795.21 14799.73
 cp_gemm                         930960  7.2     1.38     1.87  4477.61 12401.39
 cp_gemm_fm_gemm                 930960  8.2     0.82     1.10  4476.23 12400.06
 cp_fm_gemm                      930960  9.2  4475.41 12399.29  4475.41 12399.29
 mp_sum_dv                       387901  5.8  8144.36 11721.85  8144.36 11721.85
 admm_fit_mo_coeffs               77580  6.0     0.21     0.32  2847.63  5274.79
 fit_mo_coeffs                    77580  7.0     0.73     0.95  2418.80  4946.31
 copy_dbcsr_to_fm                387901  6.8     4.07     6.14  1198.45  4675.11
 dbcsr_desymmetrize_deep         387901  7.8    11.20    18.39  1017.74  4535.67
 mp_alltoall_i22                 775803  8.8   967.57  4498.99   967.57  4498.99
 build_overlap_matrix_low        155164  6.0   292.13  4472.19   295.42  4475.98
 cp_fm_syevd                     155160  7.0     0.46     0.69   397.68   905.52
 cp_fm_redistribute_end          155160  8.0    92.19   868.19    93.81   870.69
 cp_fm_syevd_base                155160  8.0   262.79   855.59   262.79   855.59
 purify_mo_diag                   77580  7.0     0.92     1.27   428.62   829.47
 -------------------------------------------------------------------------------

 The number of warnings for this run is : 1
 
 -------------------------------------------------------------------------------
  **** **** ******  **  PROGRAM ENDED AT                 2021-01-21 14:40:09.078
 ***** ** ***  *** **   PROGRAM RAN ON                                   tcopt10
 **    ****   ******    PROGRAM RAN BY                                    hutter
 ***** **    ** ** **   PROGRAM PROCESS ID                                 37668
  **** **  *******  **  PROGRAM STOPPED IN /data/hutter/GITHUB/BASIS/MOLOPT/PBE/
                                           V
