 DBCSR| CPU Multiplication driver                                           XSMM
 DBCSR| Multrec recursion limit                                              512
 DBCSR| Multiplication stack size                                           1000
 DBCSR| Maximum elements for images                                    UNLIMITED
 DBCSR| Multiplicative factor virtual images                                   1
 DBCSR| Use multiplication densification                                       T
 DBCSR| Multiplication size stacks                                             3
 DBCSR| Use memory pool for CPU allocation                                     F
 DBCSR| Number of 3D layers                                               SINGLE
 DBCSR| Use MPI memory allocation                                              F
 DBCSR| Use RMA algorithm                                                      F
 DBCSR| Use Communication thread                                               T
 DBCSR| Communication thread load                                             87
 DBCSR| Split modifier for TAS multiplication algorithm                  1.0E+00


  **** **** ******  **  PROGRAM STARTED AT               2020-12-04 18:27:19.638
 ***** ** ***  *** **   PROGRAM STARTED ON                               tcopt10
 **    ****   ******    PROGRAM STARTED BY                                hutter
 ***** **    ** ** **   PROGRAM PROCESS ID                                 44961
  **** **  *******  **  PROGRAM STARTED IN /data/hutter/GITHUB/BASIS/MOLOPT/PBE0
                                           /Mg

 CP2K| version string:                    CP2K version 8.0 (Development Version)
 CP2K| source code revision number:                                  git:afc71fa
 CP2K| cp2kflags: omp libint fftw3 libxc elpa parallel mpi3 scalapack xsmm spgli
 CP2K|            b sirius
 CP2K| is freely available from                            https://www.cp2k.org/
 CP2K| Program compiled at                          Tue Nov 17 10:27:14 CET 2020
 CP2K| Program compiled on                                               tcopt10
 CP2K| Program compiled for                                                local
 CP2K| Data directory path                 /data/hutter/GITHUB/CURRENT/cp2k/data
 CP2K| Input file name                                               MgF-ref.inp

 GLOBAL| Force Environment number                                              1
 GLOBAL| Basis set file name                                  ../PBE0_UCSEGBASIS
 GLOBAL| Potential file name                                        ../POTENTIAL
 GLOBAL| MM Potential file name                                     MM_POTENTIAL
 GLOBAL| Coordinate file name                                      __STD_INPUT__
 GLOBAL| Method name                                                        CP2K
 GLOBAL| Project name                                                  refMgFq10
 GLOBAL| Preferred FFT library                                             FFTW3
 GLOBAL| Preferred diagonalization lib.                                     ELPA
 GLOBAL| Run type                                                         ENERGY
 GLOBAL| All-to-all communication in single precision                          F
 GLOBAL| FFTs using library dependent lengths                                  F
 GLOBAL| Global print level                                                  LOW
 GLOBAL| MPI I/O enabled                                                       T
 GLOBAL| Total number of message passing processes                            16
 GLOBAL| Number of threads for this process                                    1
 GLOBAL| This output is from process                                           0
 GLOBAL| CPU model name                          AMD EPYC 7401 24-Core Processor
 GLOBAL| CPUID                                                              1002

 MEMORY| system memory details [Kb]
 MEMORY|                        rank 0           min           max       average
 MEMORY| MemTotal            263987256     263987256     263987256     263987256
 MEMORY| MemFree             138029200     138029200     138029200     138029200
 MEMORY| Buffers                    32            32            32            32
 MEMORY| Cached               16330268      16330268      16330268      16330268
 MEMORY| Slab                  1371324       1371324       1371324       1371324
 MEMORY| SReclaimable           706336        706336        706336        706336
 MEMORY| MemLikelyFree       155065836     155065836     155065836     155065836


 GENERATE|  Preliminary Number of Bonds generated:                             0
 GENERATE|  Achieved consistency in connectivity generation.

 *******************************************************************************
 *******************************************************************************
 **                                                                           **
 **     #####                         ##              ##                      **
 **    ##   ##            ##          ##              ##                      **
 **   ##     ##                       ##            ######                    **
 **   ##     ##  ##   ##  ##   #####  ##  ##   ####   ##    #####    #####    **
 **   ##     ##  ##   ##  ##  ##      ## ##   ##      ##   ##   ##  ##   ##   **
 **   ##  ## ##  ##   ##  ##  ##      ####     ###    ##   ######   ######    **
 **    ##  ###   ##   ##  ##  ##      ## ##      ##   ##   ##       ##        **
 **     #######   #####   ##   #####  ##  ##  ####    ##    #####   ##        **
 **           ##                                                    ##        **
 **                                                                           **
 **                                                ... make the atoms dance   **
 **                                                                           **
 **            Copyright (C) by CP2K developers group (2000 - 2020)           **
 **                      J. Chem. Phys. 152, 194103 (2020)                    **
 **                                                                           **
 *******************************************************************************


 TOTAL NUMBERS AND MAXIMUM NUMBERS

  Total number of            - Atomic kinds:                                   2
                             - Atoms:                                          2
                             - Shell sets:                                    28
                             - Shells:                                        52
                             - Primitive Cartesian functions:                 28
                             - Cartesian basis functions:                    192
                             - Spherical basis functions:                    164

  Maximum angular momentum of- Orbital basis functions:                        3
                             - Local part of the GTH pseudopotential:          4
                             - Non-local part of the GTH pseudopotential:      1


 SCF PARAMETERS         Density guess:                                    ATOMIC
                        --------------------------------------------------------
                        max_scf:                                              10
                        max_scf_history:                                       0
                        max_diis:                                              4
                        --------------------------------------------------------
                        eps_scf:                                        1.00E-07
                        eps_scf_history:                                0.00E+00
                        eps_diis:                                       1.00E-01
                        eps_eigval:                                     1.00E-05
                        --------------------------------------------------------
                        level_shift [a.u.]:                                 0.00
                        --------------------------------------------------------
                        Outer loop SCF in use 
                        No variables optimised in outer loop
                        eps_scf                                         1.00E-07
                        max_scf                                               10
                        No outer loop optimization
                        step_size                                       5.00E-01

 Spin 1

 Number of electrons:                                                          9
 Number of occupied orbitals:                                                  9
 Number of molecular orbitals:                                                 9

 Spin 2

 Number of electrons:                                                          8
 Number of occupied orbitals:                                                  8
 Number of molecular orbitals:                                                 8

 Number of orbital functions:                                                164
 Number of independent orbital functions:                                    164

 Extrapolation method: initial_guess


 SCF WAVEFUNCTION OPTIMIZATION

  ----------------------------------- OT ---------------------------------------
  Minimizer      : DIIS                : direct inversion
                                         in the iterative subspace
                                         using   7 DIIS vectors
                                         safer DIIS on
  Preconditioner : FULL_ALL            : diagonalization, state selective
  Precond_solver : DEFAULT
  stepsize       :    0.15000000                  energy_gap     :    0.08000000
  eps_taylor     :   0.10000E-15                  max_taylor     :             4
  ----------------------------------- OT ---------------------------------------

  Step     Update method      Time    Convergence         Total energy    Change
  ------------------------------------------------------------------------------
     1 OT DIIS     0.15E+00   14.6     0.09899725       -85.8305599051 -8.58E+01
     2 OT DIIS     0.15E+00    2.8     0.05733051       -87.1599720504 -1.33E+00
     3 OT DIIS     0.15E+00    2.7     0.01265223       -87.5512832737 -3.91E-01
     4 OT DIIS     0.15E+00    2.7     0.00497961       -87.5781440639 -2.69E-02
     5 OT DIIS     0.15E+00    2.7     0.00293538       -87.5900153885 -1.19E-02
     6 OT DIIS     0.15E+00    2.8     0.00175852       -87.5932967416 -3.28E-03
     7 OT DIIS     0.15E+00    2.7     0.00169656       -87.5953157519 -2.02E-03
     8 OT DIIS     0.15E+00    2.7     0.00070928       -87.5963549816 -1.04E-03
     9 OT DIIS     0.15E+00    2.7     0.00047081       -87.5966681798 -3.13E-04
    10 OT DIIS     0.15E+00    2.7     0.00025240       -87.5968982565 -2.30E-04

  Leaving inner SCF loop after reaching    10 steps.


  Electronic density on regular grids:        -17.0000128101       -0.0000128101
  Core density on regular grids:               17.0000000000        0.0000000000
  Total charge density on r-space grids:       -0.0000128101
  Total charge density g-space grids:          -0.0000128101

  Overlap energy of the core charge distribution:               0.00000000000000
  Self energy of the core charge distribution:               -212.88831863607041
  Core Hamiltonian energy:                                     61.68392750279853
  Hartree energy:                                              76.88419833842811
  Exchange-correlation energy:                                -10.12312207410643
  Hartree-Fock Exchange energy:                                -3.15358338754258

  Total energy:                                               -87.59689825649279

  outer SCF iter =    1 RMS gradient =   0.25E-03 energy =        -87.5968982565

  ----------------------------------- OT ---------------------------------------
  Minimizer      : DIIS                : direct inversion
                                         in the iterative subspace
                                         using   7 DIIS vectors
                                         safer DIIS on
  Preconditioner : FULL_ALL            : diagonalization, state selective
  Precond_solver : DEFAULT
  stepsize       :    0.15000000                  energy_gap     :    0.08000000
  eps_taylor     :   0.10000E-15                  max_taylor     :             4
  ----------------------------------- OT ---------------------------------------

  Step     Update method      Time    Convergence         Total energy    Change
  ------------------------------------------------------------------------------
     1 OT DIIS     0.15E+00    5.5     0.00016979       -87.5969567248 -5.85E-05
     2 OT DIIS     0.15E+00    2.7     0.00012836       -87.5969672854 -1.06E-05
     3 OT DIIS     0.15E+00    2.7     0.00002981       -87.5969816519 -1.44E-05
     4 OT DIIS     0.15E+00    2.7     0.00001562       -87.5969822665 -6.15E-07
     5 OT DIIS     0.15E+00    2.7     0.00000617       -87.5969824695 -2.03E-07
     6 OT DIIS     0.15E+00    2.7     0.00000134       -87.5969825038 -3.43E-08
     7 OT DIIS     0.15E+00    2.7     0.00000098       -87.5969825050 -1.19E-09
     8 OT DIIS     0.15E+00    2.7     0.00000027       -87.5969825053 -3.28E-10
     9 OT DIIS     0.15E+00    2.7     0.00000007       -87.5969825053 -4.09E-11

  *** SCF run converged in     9 steps ***


  Electronic density on regular grids:        -17.0000128064       -0.0000128064
  Core density on regular grids:               17.0000000000        0.0000000000
  Total charge density on r-space grids:       -0.0000128064
  Total charge density g-space grids:          -0.0000128064

  Overlap energy of the core charge distribution:               0.00000000000000
  Self energy of the core charge distribution:               -212.88831863607041
  Core Hamiltonian energy:                                     61.67390803959599
  Hartree energy:                                              76.89347929176252
  Exchange-correlation energy:                                -10.12260370223769
  Hartree-Fock Exchange energy:                                -3.15344749838138

  Total energy:                                               -87.59698250533096

  outer SCF iter =    2 RMS gradient =   0.68E-07 energy =        -87.5969825053
  outer SCF loop converged in   2 iterations or   19 steps


  Integrated absolute spin density  :                               1.0089208354
  Ideal and single determinant S**2 :                    0.750000       0.750353

 ENERGY| Total FORCE_EVAL ( QS ) energy [a.u.]:              -87.596982505330956

 -------------------------------------------------------------------------------
 -                                                                             -
 -                                DBCSR STATISTICS                             -
 -                                                                             -
 -------------------------------------------------------------------------------
 COUNTER                                    TOTAL       BLAS       SMM       ACC
 flops     8 x     8 x     8               137216       0.0%    100.0%      0.0%
 flops     9 x     9 x     9               195372       0.0%    100.0%      0.0%
 flops     8 x     8 x    52               519168       0.0%    100.0%      0.0%
 flops    52 x     8 x     8               645632       0.0%    100.0%      0.0%
 flops     9 x     9 x    52               657072       0.0%    100.0%      0.0%
 flops    52 x     9 x     9               817128       0.0%    100.0%      0.0%
 flops    52 x    52 x     8               865280       0.0%    100.0%      0.0%
 flops    52 x    52 x     9               973440       0.0%    100.0%      0.0%
 flops     8 x     8 x   112              1118208       0.0%    100.0%      0.0%
 flops   112 x     8 x     8              1390592       0.0%    100.0%      0.0%
 flops     9 x     9 x   112              1415232       0.0%    100.0%      0.0%
 flops   112 x     9 x     9              1759968       0.0%    100.0%      0.0%
 flops    52 x   112 x     8              1863680       0.0%    100.0%      0.0%
 flops    52 x   112 x     9              2096640       0.0%    100.0%      0.0%
 flops   112 x   112 x     8              4014080       0.0%    100.0%      0.0%
 flops    52 x     8 x    52              4110080       0.0%    100.0%      0.0%
 flops   112 x   112 x     9              4515840       0.0%    100.0%      0.0%
 flops    52 x     9 x    52              4575168       0.0%    100.0%      0.0%
 flops   112 x     8 x    52              8852480       0.0%    100.0%      0.0%
 flops    52 x     8 x   112              8852480       0.0%    100.0%      0.0%
 flops   112 x     9 x    52              9854208       0.0%    100.0%      0.0%
 flops    52 x     9 x   112              9854208       0.0%    100.0%      0.0%
 flops   112 x     8 x   112             19066880       0.0%    100.0%      0.0%
 flops   112 x     9 x   112             21224448       0.0%    100.0%      0.0%
 flops inhomo. stacks                           0       0.0%      0.0%      0.0%
 flops total                       109.374500E+06       0.0%    100.0%      0.0%
 flops max/rank                     74.720764E+06       0.0%    100.0%      0.0%
 matmuls inhomo. stacks                         0       0.0%      0.0%      0.0%
 matmuls total                               1844       0.0%    100.0%      0.0%
 number of processed stacks                  1844       0.0%    100.0%      0.0%
 average stack size                                     0.0       1.0       0.0
 marketing flops                   113.429744E+06
 -------------------------------------------------------------------------------
 # multiplications                            851
 max memory usage/rank               1.276535E+09
 # max total images/rank                        1
 # max 3D layers                                1
 # MPI messages exchanged                   81696
 MPI messages size (bytes):
  total size                       149.196896E+06
  min size                           0.000000E+00
  max size                         100.352000E+03
  average size                       1.826245E+03
 MPI breakdown and total messages size (bytes):
             size <=      128               72588                        0
       128 < size <=     8192                6840                 27196632
      8192 < size <=    32768                 567                 12265344
     32768 < size <=   131072                1701                109734912
    131072 < size <=  4194304                   0                        0
   4194304 < size <= 16777216                   0                        0
  16777216 < size                               0                        0
 -------------------------------------------------------------------------------
 -                                                                             -
 -                      DBCSR MESSAGE PASSING PERFORMANCE                      -
 -                                                                             -
 -------------------------------------------------------------------------------
 ROUTINE             CALLS      AVE VOLUME [Bytes]
 MP_Bcast               25                     12.
 MP_Allreduce         4558                      8.
 MP_Alltoall          3397                   2441.
 MP_ISend            13600                   2691.
 MP_IRecv            13600                    830.
 -------------------------------------------------------------------------------

 -------------------------------------------------------------------------------
 -                                                                             -
 -                                GRID STATISTICS                              -
 -                                                                             -
 -------------------------------------------------------------------------------
 LP    KERNEL    OPERATION                                     COUNT     PERCENT
 0     general   collocate                                        32       0.07%
 2     ortho     integrate                                      8892      19.71%
 2     ortho     collocate                                      9360      20.75%
 3     ortho     integrate                                      3952       8.76%
 3     ortho     collocate                                      4160       9.22%
 4     ortho     integrate                                      6840      15.16%
 4     ortho     collocate                                      7200      15.96%
 5     ortho     integrate                                       912       2.02%
 5     ortho     collocate                                       960       2.13%
 6     ortho     integrate                                      1368       3.03%
 6     ortho     collocate                                      1440       3.19%
 -------------------------------------------------------------------------------

 MEMORY| Estimated peak process memory [MiB]                                1218

 -------------------------------------------------------------------------------
 -                                                                             -
 -                         MESSAGE PASSING PERFORMANCE                         -
 -                                                                             -
 -------------------------------------------------------------------------------

 ROUTINE             CALLS      AVE VOLUME [Bytes]
 MP_Group                5
 MP_Bcast              330                 527908.
 MP_Allreduce          946                   1480.
 MP_Sync               192
 MP_Alltoall           729               13615131.
 MP_ISendRecv         4680                 224323.
 MP_Wait              6497
 MP_comm_split          14
 MP_ISend             1580                 792242.
 MP_IRecv             1580                 792118.
 MP_Recv                 5                   3149.
 -------------------------------------------------------------------------------


 -------------------------------------------------------------------------------
 -                                                                             -
 -                           R E F E R E N C E S                               -
 -                                                                             -
 -------------------------------------------------------------------------------
 
 CP2K version 8.0 (Development Version), the CP2K developers group (2020).
 CP2K is freely available from https://www.cp2k.org/ .

 Kuehne,Thomas D.; Iannuzzi,Marcella; Del Ben,Mauro;
 Rybkin,Vladimir V.; Seewald,Patrick; Stein,Frederick; Laino,Teodoro;
 Khaliullin,Rustam Z.; Schuett,Ole; Schiffmann,Florian; Golze,Dorothea;
 Wilhelm,Jan; Chulkov,Sergey; Bani-Hashemian,Mohammad Hossein;
 Weber,Valery; Borstnik,Urban; Taillefumier,Mathieu;
 Jakobovits,Alice Shoshana; Lazzaro,Alfio; Pabst,Hans; Mueller,Tiziano;
 Schade,Robert; Guidon,Manuel; Andermatt,Samuel; Holmberg,Nico;
 Schenter,Gregory K.; Hehn,Anna; Bussy,Augustin; Belleflamme,Fabian;
 Tabacchi,Gloria; Gloess,Andreas; Lass,Michael; Bethune,Iain;
 Mundy,Christopher J.; Plessl,Christian; Watkins,Matt;
 VandeVondele,Joost; Krack,Matthias; Hutter,Juerg. 
 The Journal of Chemical Physics, 152 (19), (2020). 
 CP2K: An electronic structure and molecular dynamics software package -
 Quickstep: Efficient and accurate electronic structure calculations.
 https://doi.org/10.1063/5.0007045

 Schuett, Ole; Messmer, Peter; Hutter, Juerg; VandeVondele, Joost. 
 Electronic Structure Calculations on Graphics Processing Units, John
 Wiley & Sons, Ltd, 173-190 (2016). 
 GPU-Accelerated Sparse Matrix-Matrix Multiplication for
 Linear Scaling Density Functional Theory.
 https://doi.org/10.1002/9781118670712.ch8

 Borstnik, U; VandeVondele, J; Weber, V; Hutter, J. 
 PARALLEL COMPUTING, 40 (5-6), 47-58 (2014). 
 Sparse matrix multiplication: The distributed block-compressed sparse
 row library.
 https://doi.org/10.1016/j.parco.2014.03.012

 Hutter, J; Iannuzzi, M; Schiffmann, F; VandeVondele, J. 
 WIREs Comput Mol Sci., 4 (1), 15-25 (2014). 
 CP2K: atomistic simulations of condensed matter systems.
 https://doi.org/10.1002/wcms.1159

 Marek, A; Blum, V; Johanni, R; Havu, V; Lang, B; Auckenthaler, T;
 Heinecke, A; Bungartz, H; Lederer, H. 
 Journal of Physics: Condensed Matter, 26 (21), (2014). 
 The ELPA library: scalable parallel eigenvalue solutions for
 electronic structure
 theory and computational science.
 https://doi.org/10.1088/0953-8984/26/21/213201

 Guidon, M; Hutter, J; VandeVondele, J. 
 JOURNAL OF CHEMICAL THEORY AND COMPUTATION, 5 (11), 3010-3021 (2009). 
 Robust Periodic Hartree-Fock Exchange for Large-Scale Simulations Using
 Gaussian Basis Sets.
 https://doi.org/10.1021/ct900494g

 Guidon, M; Schiffmann, F; Hutter, J; VandeVondele, J. 
 JOURNAL OF CHEMICAL PHYSICS, 128 (21), 214104 (2008). 
 Ab initio molecular dynamics using hybrid density functionals.
 https://doi.org/10.1063/1.2931945

 Krack, M. 
 THEORETICAL CHEMISTRY ACCOUNTS, 114 (1-3), 145-152 (2005). 
 Pseudopotentials for H to Kr optimized for gradient-corrected
 exchange-correlation functionals.
 https://doi.org/10.1007/s00214-005-0655-y

 VandeVondele, J; Krack, M; Mohamed, F; Parrinello, M; Chassaing, T;
 Hutter, J. COMPUTER PHYSICS COMMUNICATIONS, 167 (2), 103-128 (2005). 
 QUICKSTEP: Fast and accurate density functional calculations using a
 mixed Gaussian and plane waves approach.
 https://doi.org/10.1016/j.cpc.2004.12.014

 Frigo, M; Johnson, SG. 
 PROCEEDINGS OF THE IEEE, 93 (2), 216-231 (2005). 
 The design and implementation of FFTW3.
 https://doi.org/10.1109/JPROC.2004.840301

 VandeVondele, J; Hutter, J. 
 JOURNAL OF CHEMICAL PHYSICS, 118 (10), 4365-4369 (2003). 
 An efficient orbital transformation method for electronic structure
 calculations.
 https://doi.org/10.1063/1.1543154

 Martyna, GJ; Tuckerman, ME. 
 JOURNAL OF CHEMICAL PHYSICS, 110 (6), 2810-2821 (1999). 
 A reciprocal space based method for treating long range interactions in
 ab initio and force-field-based calculations in clusters.
 https://doi.org/10.1063/1.477923

 Hartwigsen, C; Goedecker, S; Hutter, J. 
 PHYSICAL REVIEW B, 58 (7), 3641-3662 (1998). 
 Relativistic separable dual-space Gaussian pseudopotentials from H to Rn.
 https://doi.org/10.1103/PhysRevB.58.3641

 Lippert, G; Hutter, J; Parrinello, M. 
 MOLECULAR PHYSICS, 92 (3), 477-487 (1997). 
 A hybrid Gaussian and plane wave density functional scheme.
 https://doi.org/10.1080/002689797170220

 Perdew, JP; Burke, K; Ernzerhof, M. 
 PHYSICAL REVIEW LETTERS, 77 (18), 3865-3868 (1996). 
 Generalized gradient approximation made simple.
 https://doi.org/10.1103/PhysRevLett.77.3865

 Goedecker, S; Teter, M; Hutter, J. 
 PHYSICAL REVIEW B, 54 (3), 1703-1710 (1996). 
 Separable dual-space Gaussian pseudopotentials.
 https://doi.org/10.1103/PhysRevB.54.1703


 -------------------------------------------------------------------------------
 -                                                                             -
 -                                T I M I N G                                  -
 -                                                                             -
 -------------------------------------------------------------------------------
 SUBROUTINE                       CALLS  ASD         SELF TIME        TOTAL TIME
                                MAXIMUM       AVERAGE  MAXIMUM  AVERAGE  MAXIMUM
 CP2K                                 1  1.0    0.013    0.055   64.637   64.638
 qs_energies                          1  2.0    0.000    0.000   64.146   64.147
 scf_env_do_scf                       1  3.0    0.000    0.000   63.695   63.695
 qs_ks_update_qs_env                 21  5.0    0.000    0.000   57.136   57.136
 rebuild_ks_matrix                   19  6.0    0.000    0.000   57.132   57.133
 qs_ks_build_kohn_sham_matrix        19  7.0    0.004    0.004   57.132   57.133
 scf_env_do_scf_inner_loop           19  4.0    0.001    0.002   46.723   46.723
 hfx_ks_matrix                       19  8.0    0.001    0.001   35.315   35.317
 integrate_four_center               19  9.0    0.009    0.010   35.314   35.314
 mp_sync                            192 10.9   24.962   28.833   24.962   28.833
 integrate_four_center_main          19 10.0    0.003    0.004    3.867   28.814
 integrate_four_center_bin         2432 11.0    3.864   28.811    3.864   28.811
 pw_transfer                        677  9.7    0.069    0.082   15.692   17.573
 fft_wrap_pw1pw2                    639 10.7    0.010    0.012   15.570   17.441
 init_scf_loop                        2  4.0    0.000    0.000   16.971   16.971
 fft_wrap_pw1pw2_300                404 11.9    0.748    0.795   14.690   16.551
 qs_vxc_create                       19  8.0    0.000    0.001   16.176   16.194
 xc_vxc_pw_create                    19  9.0    0.187    0.209   16.176   16.193
 fft3d_ps                           639 12.7    6.582    6.841   11.820   13.788
 xc_rho_set_and_dset_create          19 10.0    0.093    0.097    9.277   10.404
 qs_rho_update_rho                   20  5.0    0.000    0.000    6.243    6.243
 calculate_rho_elec                  40  6.0    0.064    0.068    6.243    6.243
 xc_functional_eval                  19 11.0    0.000    0.000    4.853    5.980
 pbe_lsd_eval                        19 12.0    4.853    5.979    4.853    5.979
 mp_alltoall_z22v                   639 14.7    3.368    5.701    3.368    5.701
 yz_to_x                            314 13.1    0.935    1.109    3.227    5.226
 density_rs2pw                       40  7.0    0.002    0.003    4.982    5.189
 calc_screening_functions             1 10.0    3.903    3.931    4.851    4.891
 sum_up_and_integrate                19  8.0    0.027    0.032    4.390    4.392
 integrate_v_rspace_low              38  9.0    0.148    0.953    4.363    4.370
 rs_pw_transfer                     313  9.5    0.007    0.008    3.585    3.760
 potential_pw2rs                     38 10.0    0.004    0.005    3.391    3.395
 x_to_yz                            325 14.3    0.917    1.001    1.993    2.121
 rs_pw_transfer_RS2PW_300            41  9.0    0.501    0.592    1.455    1.642
 pw_scatter_p                       325 13.3    1.461    1.561    1.461    1.561
 pw_gather_p                        314 12.1    1.486    1.548    1.486    1.548
 grid_collocate_task_list            40  7.0    0.565    1.440    0.565    1.440
 calc_pair_dist_radii                 1 10.0    1.094    1.101    1.377    1.385
 mp_waitany                        1580 11.4    1.094    1.310    1.094    1.310
 -------------------------------------------------------------------------------

 The number of warnings for this run is : 0
 
 -------------------------------------------------------------------------------
  **** **** ******  **  PROGRAM ENDED AT                 2020-12-04 18:28:24.918
 ***** ** ***  *** **   PROGRAM RAN ON                                   tcopt10
 **    ****   ******    PROGRAM RAN BY                                    hutter
 ***** **    ** ** **   PROGRAM PROCESS ID                                 44961
  **** **  *******  **  PROGRAM STOPPED IN /data/hutter/GITHUB/BASIS/MOLOPT/PBE0
                                           /Mg
