 DBCSR| CPU Multiplication driver                                           XSMM
 DBCSR| Multrec recursion limit                                              512
 DBCSR| Multiplication stack size                                           1000
 DBCSR| Maximum elements for images                                    UNLIMITED
 DBCSR| Multiplicative factor virtual images                                   1
 DBCSR| Use multiplication densification                                       T
 DBCSR| Multiplication size stacks                                             3
 DBCSR| Use memory pool for CPU allocation                                     F
 DBCSR| Number of 3D layers                                               SINGLE
 DBCSR| Use MPI memory allocation                                              F
 DBCSR| Use RMA algorithm                                                      F
 DBCSR| Use Communication thread                                               T
 DBCSR| Communication thread load                                             87
 DBCSR| Split modifier for TAS multiplication algorithm                  1.0E+00


  **** **** ******  **  PROGRAM STARTED AT               2020-12-04 18:26:25.872
 ***** ** ***  *** **   PROGRAM STARTED ON                               tcopt10
 **    ****   ******    PROGRAM STARTED BY                                hutter
 ***** **    ** ** **   PROGRAM PROCESS ID                                 44829
  **** **  *******  **  PROGRAM STARTED IN /data/hutter/GITHUB/BASIS/MOLOPT/PBE0
                                           /Mg

 CP2K| version string:                    CP2K version 8.0 (Development Version)
 CP2K| source code revision number:                                  git:afc71fa
 CP2K| cp2kflags: omp libint fftw3 libxc elpa parallel mpi3 scalapack xsmm spgli
 CP2K|            b sirius
 CP2K| is freely available from                            https://www.cp2k.org/
 CP2K| Program compiled at                          Tue Nov 17 10:27:14 CET 2020
 CP2K| Program compiled on                                               tcopt10
 CP2K| Program compiled for                                                local
 CP2K| Data directory path                 /data/hutter/GITHUB/CURRENT/cp2k/data
 CP2K| Input file name                                              MgF2-ref.inp

 GLOBAL| Force Environment number                                              1
 GLOBAL| Basis set file name                                  ../PBE0_UCSEGBASIS
 GLOBAL| Potential file name                                        ../POTENTIAL
 GLOBAL| MM Potential file name                                     MM_POTENTIAL
 GLOBAL| Coordinate file name                                      __STD_INPUT__
 GLOBAL| Method name                                                        CP2K
 GLOBAL| Project name                                                 refMgF2q10
 GLOBAL| Preferred FFT library                                             FFTW3
 GLOBAL| Preferred diagonalization lib.                                     ELPA
 GLOBAL| Run type                                                         ENERGY
 GLOBAL| All-to-all communication in single precision                          F
 GLOBAL| FFTs using library dependent lengths                                  F
 GLOBAL| Global print level                                                  LOW
 GLOBAL| MPI I/O enabled                                                       T
 GLOBAL| Total number of message passing processes                            16
 GLOBAL| Number of threads for this process                                    1
 GLOBAL| This output is from process                                           0
 GLOBAL| CPU model name                          AMD EPYC 7401 24-Core Processor
 GLOBAL| CPUID                                                              1002

 MEMORY| system memory details [Kb]
 MEMORY|                        rank 0           min           max       average
 MEMORY| MemTotal            263987256     263987256     263987256     263987256
 MEMORY| MemFree             138190592     138190592     138190592     138190592
 MEMORY| Buffers                    32            32            32            32
 MEMORY| Cached               16331148      16331148      16331148      16331148
 MEMORY| Slab                  1372048       1372048       1372048       1372048
 MEMORY| SReclaimable           706400        706400        706400        706400
 MEMORY| MemLikelyFree       155228172     155228172     155228172     155228172


 GENERATE|  Preliminary Number of Bonds generated:                             0
 GENERATE|  Achieved consistency in connectivity generation.

 *******************************************************************************
 *******************************************************************************
 **                                                                           **
 **     #####                         ##              ##                      **
 **    ##   ##            ##          ##              ##                      **
 **   ##     ##                       ##            ######                    **
 **   ##     ##  ##   ##  ##   #####  ##  ##   ####   ##    #####    #####    **
 **   ##     ##  ##   ##  ##  ##      ## ##   ##      ##   ##   ##  ##   ##   **
 **   ##  ## ##  ##   ##  ##  ##      ####     ###    ##   ######   ######    **
 **    ##  ###   ##   ##  ##  ##      ## ##      ##   ##   ##       ##        **
 **     #######   #####   ##   #####  ##  ##  ####    ##    #####   ##        **
 **           ##                                                    ##        **
 **                                                                           **
 **                                                ... make the atoms dance   **
 **                                                                           **
 **            Copyright (C) by CP2K developers group (2000 - 2020)           **
 **                      J. Chem. Phys. 152, 194103 (2020)                    **
 **                                                                           **
 *******************************************************************************


 TOTAL NUMBERS AND MAXIMUM NUMBERS

  Total number of            - Atomic kinds:                                   2
                             - Atoms:                                          3
                             - Shell sets:                                    40
                             - Shells:                                        72
                             - Primitive Cartesian functions:                 40
                             - Cartesian basis functions:                    248
                             - Spherical basis functions:                    216

  Maximum angular momentum of- Orbital basis functions:                        3
                             - Local part of the GTH pseudopotential:          4
                             - Non-local part of the GTH pseudopotential:      1


 SCF PARAMETERS         Density guess:                                    ATOMIC
                        --------------------------------------------------------
                        max_scf:                                              10
                        max_scf_history:                                       0
                        max_diis:                                              4
                        --------------------------------------------------------
                        eps_scf:                                        1.00E-07
                        eps_scf_history:                                0.00E+00
                        eps_diis:                                       1.00E-01
                        eps_eigval:                                     1.00E-05
                        --------------------------------------------------------
                        level_shift [a.u.]:                                 0.00
                        --------------------------------------------------------
                        Outer loop SCF in use 
                        No variables optimised in outer loop
                        eps_scf                                         1.00E-07
                        max_scf                                               10
                        No outer loop optimization
                        step_size                                       5.00E-01

 Number of electrons:                                                         24
 Number of occupied orbitals:                                                 12
 Number of molecular orbitals:                                                12

 Number of orbital functions:                                                216
 Number of independent orbital functions:                                    216

 Extrapolation method: initial_guess


 SCF WAVEFUNCTION OPTIMIZATION

  ----------------------------------- OT ---------------------------------------
  Minimizer      : DIIS                : direct inversion
                                         in the iterative subspace
                                         using   7 DIIS vectors
                                         safer DIIS on
  Preconditioner : FULL_ALL            : diagonalization, state selective
  Precond_solver : DEFAULT
  stepsize       :    0.15000000                  energy_gap     :    0.08000000
  eps_taylor     :   0.10000E-15                  max_taylor     :             4
  ----------------------------------- OT ---------------------------------------

  Step     Update method      Time    Convergence         Total energy    Change
  ------------------------------------------------------------------------------
     1 OT DIIS     0.15E+00   13.7     0.07501924      -110.4530641462 -1.10E+02
     2 OT DIIS     0.15E+00    1.6     0.07389287      -111.3709550025 -9.18E-01
     3 OT DIIS     0.15E+00    1.6     0.02947558      -111.7582129637 -3.87E-01
     4 OT DIIS     0.15E+00    1.5     0.01856254      -111.8626090777 -1.04E-01
     5 OT DIIS     0.15E+00    1.5     0.01514780      -111.8770194751 -1.44E-02
     6 OT DIIS     0.15E+00    1.5     0.00678489      -111.8994036799 -2.24E-02
     7 OT DIIS     0.15E+00    1.5     0.00351746      -111.9079317907 -8.53E-03
     8 OT DIIS     0.15E+00    1.6     0.00194822      -111.9100539671 -2.12E-03
     9 OT DIIS     0.15E+00    1.6     0.00037059      -111.9110219431 -9.68E-04
    10 OT DIIS     0.15E+00    1.5     0.00014292      -111.9110681089 -4.62E-05

  Leaving inner SCF loop after reaching    10 steps.


  Electronic density on regular grids:        -24.0000256595       -0.0000256595
  Core density on regular grids:               24.0000000000        0.0000000000
  Total charge density on r-space grids:       -0.0000256595
  Total charge density g-space grids:          -0.0000256595

  Overlap energy of the core charge distribution:               0.00000000000000
  Self energy of the core charge distribution:               -278.48311478137845
  Core Hamiltonian energy:                                     80.00725649622997
  Hartree energy:                                             104.60308999843609
  Exchange-correlation energy:                                -13.77199966936927
  Hartree-Fock Exchange energy:                                -4.26630015280859

  Total energy:                                              -111.91106810889026

  outer SCF iter =    1 RMS gradient =   0.14E-03 energy =       -111.9110681089

  ----------------------------------- OT ---------------------------------------
  Minimizer      : DIIS                : direct inversion
                                         in the iterative subspace
                                         using   7 DIIS vectors
                                         safer DIIS on
  Preconditioner : FULL_ALL            : diagonalization, state selective
  Precond_solver : DEFAULT
  stepsize       :    0.15000000                  energy_gap     :    0.08000000
  eps_taylor     :   0.10000E-15                  max_taylor     :             4
  ----------------------------------- OT ---------------------------------------

  Step     Update method      Time    Convergence         Total energy    Change
  ------------------------------------------------------------------------------
     1 OT DIIS     0.15E+00    3.1     0.00004180      -111.9110727713 -4.66E-06
     2 OT DIIS     0.15E+00    1.5     0.00002002      -111.9110731966 -4.25E-07
     3 OT DIIS     0.15E+00    1.5     0.00001016      -111.9110732876 -9.10E-08
     4 OT DIIS     0.15E+00    1.5     0.00000097      -111.9110733137 -2.61E-08
     5 OT DIIS     0.15E+00    1.5     0.00000020      -111.9110733140 -3.42E-10
     6 OT DIIS     0.15E+00    1.5     0.00000009      -111.9110733140 -1.04E-11

  *** SCF run converged in     6 steps ***


  Electronic density on regular grids:        -24.0000256590       -0.0000256590
  Core density on regular grids:               24.0000000000        0.0000000000
  Total charge density on r-space grids:       -0.0000256590
  Total charge density g-space grids:          -0.0000256590

  Overlap energy of the core charge distribution:               0.00000000000000
  Self energy of the core charge distribution:               -278.48311478137845
  Core Hamiltonian energy:                                     80.01396029387512
  Hartree energy:                                             104.59819002886945
  Exchange-correlation energy:                                -13.77330161310737
  Hartree-Fock Exchange energy:                                -4.26680724229746

  Total energy:                                              -111.91107331403869

  outer SCF iter =    2 RMS gradient =   0.86E-07 energy =       -111.9110733140
  outer SCF loop converged in   2 iterations or   16 steps


 ENERGY| Total FORCE_EVAL ( QS ) energy [a.u.]:             -111.911073314038688

 -------------------------------------------------------------------------------
 -                                                                             -
 -                                DBCSR STATISTICS                             -
 -                                                                             -
 -------------------------------------------------------------------------------
 COUNTER                                    TOTAL       BLAS       SMM       ACC
 flops    12 x    12 x    12               311040       0.0%    100.0%      0.0%
 flops    12 x    12 x    52              1976832       0.0%    100.0%      0.0%
 flops    12 x    12 x   112              2128896       0.0%    100.0%      0.0%
 flops    52 x   112 x    12              2376192       0.0%    100.0%      0.0%
 flops   112 x    52 x    12              2376192       0.0%    100.0%      0.0%
 flops    52 x    12 x    12              2456064       0.0%    100.0%      0.0%
 flops   112 x    12 x    12              2644992       0.0%    100.0%      0.0%
 flops    52 x    52 x    12              3309696       0.0%    100.0%      0.0%
 flops   112 x   112 x    12              5117952       0.0%    100.0%      0.0%
 flops    52 x    12 x    52             21285888       0.0%    100.0%      0.0%
 flops   112 x    12 x    52             22923264       0.0%    100.0%      0.0%
 flops    52 x    12 x   112             22923264       0.0%    100.0%      0.0%
 flops   112 x    12 x   112             24686592       0.0%    100.0%      0.0%
 flops inhomo. stacks                           0       0.0%      0.0%      0.0%
 flops total                       114.516864E+06       0.0%    100.0%      0.0%
 flops max/rank                     59.789568E+06       0.0%    100.0%      0.0%
 matmuls inhomo. stacks                         0       0.0%      0.0%      0.0%
 matmuls total                               1374       0.0%    100.0%      0.0%
 number of processed stacks                  1374       0.0%    100.0%      0.0%
 average stack size                                     0.0       1.0       0.0
 marketing flops                   120.496896E+06
 -------------------------------------------------------------------------------
 # multiplications                            339
 max memory usage/rank               1.225458E+09
 # max total images/rank                        1
 # max 3D layers                                1
 # MPI messages exchanged                   32544
 MPI messages size (bytes):
  total size                       113.253120E+06
  min size                           0.000000E+00
  max size                         100.352000E+03
  average size                       3.480000E+03
 MPI breakdown and total messages size (bytes):
             size <=      128               26574                        0
       128 < size <=     8192                2766                 10789632
      8192 < size <=    32768                1974                 31930368
     32768 < size <=   131072                1230                 70533120
    131072 < size <=  4194304                   0                        0
   4194304 < size <= 16777216                   0                        0
  16777216 < size                               0                        0
 -------------------------------------------------------------------------------
 -                                                                             -
 -                      DBCSR MESSAGE PASSING PERFORMANCE                      -
 -                                                                             -
 -------------------------------------------------------------------------------
 ROUTINE             CALLS      AVE VOLUME [Bytes]
 MP_Bcast               14                     12.
 MP_Allreduce         1829                      8.
 MP_Alltoall          1474                   2998.
 MP_ISend             5416                   3187.
 MP_IRecv             5416                   1858.
 -------------------------------------------------------------------------------

 -------------------------------------------------------------------------------
 -                                                                             -
 -                                GRID STATISTICS                              -
 -                                                                             -
 -------------------------------------------------------------------------------
 LP    KERNEL    OPERATION                                     COUNT     PERCENT
 0     general   collocate                                        48       0.15%
 2     ortho     integrate                                      6496      19.68%
 2     ortho     collocate                                      6902      20.91%
 3     ortho     integrate                                      4064      12.31%
 3     ortho     collocate                                      4318      13.08%
 4     ortho     integrate                                      4080      12.36%
 4     ortho     collocate                                      4335      13.13%
 5     ortho     integrate                                       768       2.33%
 5     ortho     collocate                                       816       2.47%
 6     ortho     integrate                                       576       1.74%
 6     ortho     collocate                                       612       1.85%
 -------------------------------------------------------------------------------

 MEMORY| Estimated peak process memory [MiB]                                1169

 -------------------------------------------------------------------------------
 -                                                                             -
 -                         MESSAGE PASSING PERFORMANCE                         -
 -                                                                             -
 -------------------------------------------------------------------------------

 ROUTINE             CALLS      AVE VOLUME [Bytes]
 MP_Group                5
 MP_Bcast              244                 713144.
 MP_Allreduce          714                   1964.
 MP_Sync                87
 MP_Alltoall           324               13634762.
 MP_ISendRecv         1995                 222529.
 MP_Wait              2777
 MP_ISend              680                 792275.
 MP_IRecv              680                 792085.
 MP_Recv                 3                   5184.
 -------------------------------------------------------------------------------


 -------------------------------------------------------------------------------
 -                                                                             -
 -                           R E F E R E N C E S                               -
 -                                                                             -
 -------------------------------------------------------------------------------
 
 CP2K version 8.0 (Development Version), the CP2K developers group (2020).
 CP2K is freely available from https://www.cp2k.org/ .

 Kuehne,Thomas D.; Iannuzzi,Marcella; Del Ben,Mauro;
 Rybkin,Vladimir V.; Seewald,Patrick; Stein,Frederick; Laino,Teodoro;
 Khaliullin,Rustam Z.; Schuett,Ole; Schiffmann,Florian; Golze,Dorothea;
 Wilhelm,Jan; Chulkov,Sergey; Bani-Hashemian,Mohammad Hossein;
 Weber,Valery; Borstnik,Urban; Taillefumier,Mathieu;
 Jakobovits,Alice Shoshana; Lazzaro,Alfio; Pabst,Hans; Mueller,Tiziano;
 Schade,Robert; Guidon,Manuel; Andermatt,Samuel; Holmberg,Nico;
 Schenter,Gregory K.; Hehn,Anna; Bussy,Augustin; Belleflamme,Fabian;
 Tabacchi,Gloria; Gloess,Andreas; Lass,Michael; Bethune,Iain;
 Mundy,Christopher J.; Plessl,Christian; Watkins,Matt;
 VandeVondele,Joost; Krack,Matthias; Hutter,Juerg. 
 The Journal of Chemical Physics, 152 (19), (2020). 
 CP2K: An electronic structure and molecular dynamics software package -
 Quickstep: Efficient and accurate electronic structure calculations.
 https://doi.org/10.1063/5.0007045

 Schuett, Ole; Messmer, Peter; Hutter, Juerg; VandeVondele, Joost. 
 Electronic Structure Calculations on Graphics Processing Units, John
 Wiley & Sons, Ltd, 173-190 (2016). 
 GPU-Accelerated Sparse Matrix-Matrix Multiplication for
 Linear Scaling Density Functional Theory.
 https://doi.org/10.1002/9781118670712.ch8

 Borstnik, U; VandeVondele, J; Weber, V; Hutter, J. 
 PARALLEL COMPUTING, 40 (5-6), 47-58 (2014). 
 Sparse matrix multiplication: The distributed block-compressed sparse
 row library.
 https://doi.org/10.1016/j.parco.2014.03.012

 Hutter, J; Iannuzzi, M; Schiffmann, F; VandeVondele, J. 
 WIREs Comput Mol Sci., 4 (1), 15-25 (2014). 
 CP2K: atomistic simulations of condensed matter systems.
 https://doi.org/10.1002/wcms.1159

 Marek, A; Blum, V; Johanni, R; Havu, V; Lang, B; Auckenthaler, T;
 Heinecke, A; Bungartz, H; Lederer, H. 
 Journal of Physics: Condensed Matter, 26 (21), (2014). 
 The ELPA library: scalable parallel eigenvalue solutions for
 electronic structure
 theory and computational science.
 https://doi.org/10.1088/0953-8984/26/21/213201

 Guidon, M; Hutter, J; VandeVondele, J. 
 JOURNAL OF CHEMICAL THEORY AND COMPUTATION, 5 (11), 3010-3021 (2009). 
 Robust Periodic Hartree-Fock Exchange for Large-Scale Simulations Using
 Gaussian Basis Sets.
 https://doi.org/10.1021/ct900494g

 Guidon, M; Schiffmann, F; Hutter, J; VandeVondele, J. 
 JOURNAL OF CHEMICAL PHYSICS, 128 (21), 214104 (2008). 
 Ab initio molecular dynamics using hybrid density functionals.
 https://doi.org/10.1063/1.2931945

 Krack, M. 
 THEORETICAL CHEMISTRY ACCOUNTS, 114 (1-3), 145-152 (2005). 
 Pseudopotentials for H to Kr optimized for gradient-corrected
 exchange-correlation functionals.
 https://doi.org/10.1007/s00214-005-0655-y

 VandeVondele, J; Krack, M; Mohamed, F; Parrinello, M; Chassaing, T;
 Hutter, J. COMPUTER PHYSICS COMMUNICATIONS, 167 (2), 103-128 (2005). 
 QUICKSTEP: Fast and accurate density functional calculations using a
 mixed Gaussian and plane waves approach.
 https://doi.org/10.1016/j.cpc.2004.12.014

 Frigo, M; Johnson, SG. 
 PROCEEDINGS OF THE IEEE, 93 (2), 216-231 (2005). 
 The design and implementation of FFTW3.
 https://doi.org/10.1109/JPROC.2004.840301

 VandeVondele, J; Hutter, J. 
 JOURNAL OF CHEMICAL PHYSICS, 118 (10), 4365-4369 (2003). 
 An efficient orbital transformation method for electronic structure
 calculations.
 https://doi.org/10.1063/1.1543154

 Martyna, GJ; Tuckerman, ME. 
 JOURNAL OF CHEMICAL PHYSICS, 110 (6), 2810-2821 (1999). 
 A reciprocal space based method for treating long range interactions in
 ab initio and force-field-based calculations in clusters.
 https://doi.org/10.1063/1.477923

 Hartwigsen, C; Goedecker, S; Hutter, J. 
 PHYSICAL REVIEW B, 58 (7), 3641-3662 (1998). 
 Relativistic separable dual-space Gaussian pseudopotentials from H to Rn.
 https://doi.org/10.1103/PhysRevB.58.3641

 Lippert, G; Hutter, J; Parrinello, M. 
 MOLECULAR PHYSICS, 92 (3), 477-487 (1997). 
 A hybrid Gaussian and plane wave density functional scheme.
 https://doi.org/10.1080/002689797170220

 Perdew, JP; Burke, K; Ernzerhof, M. 
 PHYSICAL REVIEW LETTERS, 77 (18), 3865-3868 (1996). 
 Generalized gradient approximation made simple.
 https://doi.org/10.1103/PhysRevLett.77.3865

 Goedecker, S; Teter, M; Hutter, J. 
 PHYSICAL REVIEW B, 54 (3), 1703-1710 (1996). 
 Separable dual-space Gaussian pseudopotentials.
 https://doi.org/10.1103/PhysRevB.54.1703


 -------------------------------------------------------------------------------
 -                                                                             -
 -                                T I M I N G                                  -
 -                                                                             -
 -------------------------------------------------------------------------------
 SUBROUTINE                       CALLS  ASD         SELF TIME        TOTAL TIME
                                MAXIMUM       AVERAGE  MAXIMUM  AVERAGE  MAXIMUM
 CP2K                                 1  1.0    0.018    0.076   37.636   37.637
 qs_energies                          1  2.0    0.000    0.000   37.120   37.120
 scf_env_do_scf                       1  3.0    0.000    0.000   36.852   36.852
 qs_ks_update_qs_env                 18  5.0    0.000    0.000   33.999   34.001
 rebuild_ks_matrix                   16  6.0    0.000    0.000   33.997   33.999
 qs_ks_build_kohn_sham_matrix        16  7.0    0.003    0.004   33.997   33.999
 hfx_ks_matrix                       16  8.0    0.001    0.001   24.044   24.045
 integrate_four_center               16  9.0    0.007    0.008   24.043   24.043
 scf_env_do_scf_inner_loop           16  4.0    0.001    0.002   21.759   21.759
 integrate_four_center_main          16 10.0    0.003    0.003    4.631   17.631
 integrate_four_center_bin         2032 11.0    4.629   17.629    4.629   17.629
 mp_sync                             87 10.7   13.007   15.624   13.007   15.624
 init_scf_loop                        2  4.0    0.000    0.000   15.092   15.092
 pw_transfer                        311  9.6    0.034    0.038    7.214    8.475
 fft_wrap_pw1pw2                    279 10.7    0.004    0.005    7.138    8.402
 fft_wrap_pw1pw2_300                179 11.8    0.325    0.345    6.623    7.886
 qs_vxc_create                       16  8.0    0.000    0.000    6.972    6.984
 xc_vxc_pw_create                    16  9.0    0.060    0.066    6.972    6.984
 fft3d_ps                           279 12.7    2.986    3.113    5.487    6.719
 calc_screening_functions             1 10.0    3.911    3.928    4.869    4.898
 xc_rho_set_and_dset_create          16 10.0    0.022    0.023    3.924    4.630
 mp_alltoall_z22v                   279 14.7    1.707    2.879    1.707    2.879
 yz_to_x                            134 13.1    0.381    0.434    1.593    2.837
 xc_functional_eval                  16 11.0    0.000    0.000    2.106    2.811
 pbe_lda_eval                        16 12.0    2.106    2.811    2.106    2.811
 qs_rho_update_rho                   17  5.0    0.000    0.000    2.698    2.699
 calculate_rho_elec                  17  6.0    0.027    0.029    2.698    2.699
 density_rs2pw                       17  7.0    0.001    0.001    2.123    2.255
 sum_up_and_integrate                16  8.0    0.012    0.014    1.912    1.914
 integrate_v_rspace_low              16  9.0    0.098    0.455    1.900    1.903
 rs_pw_transfer                     133  9.4    0.003    0.004    1.535    1.651
 potential_pw2rs                     16 10.0    0.002    0.002    1.437    1.440
 calc_pair_dist_radii                 1 10.0    1.095    1.100    1.380    1.394
 powell_optimize                 460876 11.0    1.243    1.280    1.243    1.280
 x_to_yz                            145 14.2    0.403    0.463    0.898    0.939
 rs_pw_transfer_RS2PW_300            18  8.9    0.216    0.247    0.660    0.787
 -------------------------------------------------------------------------------

 The number of warnings for this run is : 0
 
 -------------------------------------------------------------------------------
  **** **** ******  **  PROGRAM ENDED AT                 2020-12-04 18:27:04.151
 ***** ** ***  *** **   PROGRAM RAN ON                                   tcopt10
 **    ****   ******    PROGRAM RAN BY                                    hutter
 ***** **    ** ** **   PROGRAM PROCESS ID                                 44829
  **** **  *******  **  PROGRAM STOPPED IN /data/hutter/GITHUB/BASIS/MOLOPT/PBE0
                                           /Mg
