 DBCSR| CPU Multiplication driver                                           XSMM
 DBCSR| Multrec recursion limit                                              512
 DBCSR| Multiplication stack size                                           1000
 DBCSR| Maximum elements for images                                    UNLIMITED
 DBCSR| Multiplicative factor virtual images                                   1
 DBCSR| Use multiplication densification                                       T
 DBCSR| Multiplication size stacks                                             3
 DBCSR| Use memory pool for CPU allocation                                     F
 DBCSR| Number of 3D layers                                               SINGLE
 DBCSR| Use MPI memory allocation                                              F
 DBCSR| Use RMA algorithm                                                      F
 DBCSR| Use Communication thread                                               T
 DBCSR| Communication thread load                                             87
 DBCSR| Split modifier for TAS multiplication algorithm                  1.0E+00


  **** **** ******  **  PROGRAM STARTED AT               2020-12-04 18:28:46.719
 ***** ** ***  *** **   PROGRAM STARTED ON                               tcopt10
 **    ****   ******    PROGRAM STARTED BY                                hutter
 ***** **    ** ** **   PROGRAM PROCESS ID                                 45145
  **** **  *******  **  PROGRAM STARTED IN /data/hutter/GITHUB/BASIS/MOLOPT/PBE0
                                           /Mg

 CP2K| version string:                    CP2K version 8.0 (Development Version)
 CP2K| source code revision number:                                  git:afc71fa
 CP2K| cp2kflags: omp libint fftw3 libxc elpa parallel mpi3 scalapack xsmm spgli
 CP2K|            b sirius
 CP2K| is freely available from                            https://www.cp2k.org/
 CP2K| Program compiled at                          Tue Nov 17 10:27:14 CET 2020
 CP2K| Program compiled on                                               tcopt10
 CP2K| Program compiled for                                                local
 CP2K| Data directory path                 /data/hutter/GITHUB/CURRENT/cp2k/data
 CP2K| Input file name                                              MgH2-ref.inp

 GLOBAL| Force Environment number                                              1
 GLOBAL| Basis set file name                                  ../PBE0_UCSEGBASIS
 GLOBAL| Potential file name                                        ../POTENTIAL
 GLOBAL| MM Potential file name                                     MM_POTENTIAL
 GLOBAL| Coordinate file name                                      __STD_INPUT__
 GLOBAL| Method name                                                        CP2K
 GLOBAL| Project name                                                 refMgH2q10
 GLOBAL| Preferred FFT library                                             FFTW3
 GLOBAL| Preferred diagonalization lib.                                     ELPA
 GLOBAL| Run type                                                         ENERGY
 GLOBAL| All-to-all communication in single precision                          F
 GLOBAL| FFTs using library dependent lengths                                  F
 GLOBAL| Global print level                                                  LOW
 GLOBAL| MPI I/O enabled                                                       T
 GLOBAL| Total number of message passing processes                            16
 GLOBAL| Number of threads for this process                                    1
 GLOBAL| This output is from process                                           0
 GLOBAL| CPU model name                          AMD EPYC 7401 24-Core Processor
 GLOBAL| CPUID                                                              1002

 MEMORY| system memory details [Kb]
 MEMORY|                        rank 0           min           max       average
 MEMORY| MemTotal            263987256     263987256     263987256     263987256
 MEMORY| MemFree             137909192     137909192     137909192     137909192
 MEMORY| Buffers                    32            32            32            32
 MEMORY| Cached               16330172      16330172      16330172      16330172
 MEMORY| Slab                  1371188       1371188       1371188       1371188
 MEMORY| SReclaimable           706016        706016        706016        706016
 MEMORY| MemLikelyFree       154945412     154945412     154945412     154945412


 GENERATE|  Preliminary Number of Bonds generated:                             0
 GENERATE|  Achieved consistency in connectivity generation.

 *******************************************************************************
 *******************************************************************************
 **                                                                           **
 **     #####                         ##              ##                      **
 **    ##   ##            ##          ##              ##                      **
 **   ##     ##                       ##            ######                    **
 **   ##     ##  ##   ##  ##   #####  ##  ##   ####   ##    #####    #####    **
 **   ##     ##  ##   ##  ##  ##      ## ##   ##      ##   ##   ##  ##   ##   **
 **   ##  ## ##  ##   ##  ##  ##      ####     ###    ##   ######   ######    **
 **    ##  ###   ##   ##  ##  ##      ## ##      ##   ##   ##       ##        **
 **     #######   #####   ##   #####  ##  ##  ####    ##    #####   ##        **
 **           ##                                                    ##        **
 **                                                                           **
 **                                                ... make the atoms dance   **
 **                                                                           **
 **            Copyright (C) by CP2K developers group (2000 - 2020)           **
 **                      J. Chem. Phys. 152, 194103 (2020)                    **
 **                                                                           **
 *******************************************************************************


 TOTAL NUMBERS AND MAXIMUM NUMBERS

  Total number of            - Atomic kinds:                                   2
                             - Atoms:                                          3
                             - Shell sets:                                    40
                             - Shells:                                        72
                             - Primitive Cartesian functions:                 40
                             - Cartesian basis functions:                    304
                             - Spherical basis functions:                    248

  Maximum angular momentum of- Orbital basis functions:                        3
                             - Local part of the GTH pseudopotential:          4
                             - Non-local part of the GTH pseudopotential:      1


 SCF PARAMETERS         Density guess:                                    ATOMIC
                        --------------------------------------------------------
                        max_scf:                                              10
                        max_scf_history:                                       0
                        max_diis:                                              4
                        --------------------------------------------------------
                        eps_scf:                                        1.00E-07
                        eps_scf_history:                                0.00E+00
                        eps_diis:                                       1.00E-01
                        eps_eigval:                                     1.00E-05
                        --------------------------------------------------------
                        level_shift [a.u.]:                                 0.00
                        --------------------------------------------------------
                        Outer loop SCF in use 
                        No variables optimised in outer loop
                        eps_scf                                         1.00E-07
                        max_scf                                               10
                        No outer loop optimization
                        step_size                                       5.00E-01

 Number of electrons:                                                         12
 Number of occupied orbitals:                                                  6
 Number of molecular orbitals:                                                 6

 Number of orbital functions:                                                248
 Number of independent orbital functions:                                    248

 Extrapolation method: initial_guess


 SCF WAVEFUNCTION OPTIMIZATION

  ----------------------------------- OT ---------------------------------------
  Minimizer      : DIIS                : direct inversion
                                         in the iterative subspace
                                         using   7 DIIS vectors
                                         safer DIIS on
  Preconditioner : FULL_ALL            : diagonalization, state selective
  Precond_solver : DEFAULT
  stepsize       :    0.15000000                  energy_gap     :    0.08000000
  eps_taylor     :   0.10000E-15                  max_taylor     :             4
  ----------------------------------- OT ---------------------------------------

  Step     Update method      Time    Convergence         Total energy    Change
  ------------------------------------------------------------------------------
     1 OT DIIS     0.15E+00   16.8     0.16699848       -62.5683805088 -6.26E+01
     2 OT DIIS     0.15E+00    1.6     0.09707937       -63.6032643928 -1.03E+00
     3 OT DIIS     0.15E+00    1.6     0.02839428       -64.3982675608 -7.95E-01
     4 OT DIIS     0.15E+00    1.5     0.02275605       -64.4303982423 -3.21E-02
     5 OT DIIS     0.15E+00    1.6     0.00388051       -64.4910293973 -6.06E-02
     6 OT DIIS     0.15E+00    1.6     0.00184669       -64.4927654701 -1.74E-03
     7 OT DIIS     0.15E+00    1.5     0.00111056       -64.4932824872 -5.17E-04
     8 OT DIIS     0.15E+00    1.5     0.00031710       -64.4934891435 -2.07E-04
     9 OT DIIS     0.15E+00    1.5     0.00012105       -64.4935070870 -1.79E-05
    10 OT DIIS     0.15E+00    1.5     0.00002039       -64.4935085318 -1.44E-06

  Leaving inner SCF loop after reaching    10 steps.


  Electronic density on regular grids:        -11.9999744976        0.0000255024
  Core density on regular grids:               12.0000000000       -0.0000000000
  Total charge density on r-space grids:        0.0000255024
  Total charge density g-space grids:           0.0000255024

  Overlap energy of the core charge distribution:               0.00000000000000
  Self energy of the core charge distribution:               -150.10750021956179
  Core Hamiltonian energy:                                     44.39211039600964
  Hartree energy:                                              50.49443210438189
  Exchange-correlation energy:                                 -7.05702070450832
  Hartree-Fock Exchange energy:                                -2.21553010813171

  Total energy:                                               -64.49350853181028

  outer SCF iter =    1 RMS gradient =   0.20E-04 energy =        -64.4935085318

  ----------------------------------- OT ---------------------------------------
  Minimizer      : DIIS                : direct inversion
                                         in the iterative subspace
                                         using   7 DIIS vectors
                                         safer DIIS on
  Preconditioner : FULL_ALL            : diagonalization, state selective
  Precond_solver : DEFAULT
  stepsize       :    0.15000000                  energy_gap     :    0.08000000
  eps_taylor     :   0.10000E-15                  max_taylor     :             4
  ----------------------------------- OT ---------------------------------------

  Step     Update method      Time    Convergence         Total energy    Change
  ------------------------------------------------------------------------------
     1 OT DIIS     0.15E+00    3.1     0.00002981       -64.4935086217 -8.99E-08
     2 OT DIIS     0.15E+00    1.6     0.00001728       -64.4935085781  4.37E-08
     3 OT DIIS     0.15E+00    1.5     0.00001075       -64.4935086126 -3.45E-08
     4 OT DIIS     0.15E+00    1.6     0.00000117       -64.4935086344 -2.18E-08
     5 OT DIIS     0.15E+00    1.5     0.00000132       -64.4935086341  2.34E-10
     6 OT DIIS     0.15E+00    1.6     0.00000052       -64.4935086344 -2.42E-10
     7 OT DIIS     0.15E+00    1.5     0.00000065       -64.4935086344 -1.24E-11
     8 OT DIIS     0.15E+00    1.5     0.00000050       -64.4935086344  1.08E-11
     9 OT SD       0.15E+00    1.5     0.00000027       -64.4935086344 -1.66E-11
    10 OT DIIS     0.15E+00    1.5     0.00000039       -64.4935086344  1.42E-14

  Leaving inner SCF loop after reaching    10 steps.


  Electronic density on regular grids:        -11.9999744981        0.0000255019
  Core density on regular grids:               12.0000000000       -0.0000000000
  Total charge density on r-space grids:        0.0000255019
  Total charge density g-space grids:           0.0000255019

  Overlap energy of the core charge distribution:               0.00000000000000
  Self energy of the core charge distribution:               -150.10750021956179
  Core Hamiltonian energy:                                     44.39210209596782
  Hartree energy:                                              50.49442614592903
  Exchange-correlation energy:                                 -7.05701084832658
  Hartree-Fock Exchange energy:                                -2.21552580838874

  Total energy:                                               -64.49350863438026

  outer SCF iter =    2 RMS gradient =   0.39E-06 energy =        -64.4935086344

  ----------------------------------- OT ---------------------------------------
  Minimizer      : DIIS                : direct inversion
                                         in the iterative subspace
                                         using   7 DIIS vectors
                                         safer DIIS on
  Preconditioner : FULL_ALL            : diagonalization, state selective
  Precond_solver : DEFAULT
  stepsize       :    0.15000000                  energy_gap     :    0.08000000
  eps_taylor     :   0.10000E-15                  max_taylor     :             4
  ----------------------------------- OT ---------------------------------------

  Step     Update method      Time    Convergence         Total energy    Change
  ------------------------------------------------------------------------------
     1 OT DIIS     0.15E+00    3.1     0.00000030       -64.4935086344  1.15E-12
     2 OT DIIS     0.15E+00    1.5     0.00000043       -64.4935086344 -1.28E-13
     3 OT DIIS     0.15E+00    1.5     0.00000010       -64.4935086344 -5.44E-12

  *** SCF run converged in     3 steps ***


  Electronic density on regular grids:        -11.9999744981        0.0000255019
  Core density on regular grids:               12.0000000000       -0.0000000000
  Total charge density on r-space grids:        0.0000255019
  Total charge density g-space grids:           0.0000255019

  Overlap energy of the core charge distribution:               0.00000000000000
  Self energy of the core charge distribution:               -150.10750021956179
  Core Hamiltonian energy:                                     44.39210209253499
  Hartree energy:                                              50.49442614906256
  Exchange-correlation energy:                                 -7.05701084810550
  Hartree-Fock Exchange energy:                                -2.21552580831494

  Total energy:                                               -64.49350863438468

  outer SCF iter =    3 RMS gradient =   0.98E-07 energy =        -64.4935086344
  outer SCF loop converged in   3 iterations or   23 steps


 ENERGY| Total FORCE_EVAL ( QS ) energy [a.u.]:              -64.493508634384682

 -------------------------------------------------------------------------------
 -                                                                             -
 -                                DBCSR STATISTICS                             -
 -                                                                             -
 -------------------------------------------------------------------------------
 COUNTER                                    TOTAL       BLAS       SMM       ACC
 flops     6 x     6 x     6                41904       0.0%    100.0%      0.0%
 flops     6 x     6 x   112               749952       0.0%    100.0%      0.0%
 flops     6 x     6 x    68               910656       0.0%    100.0%      0.0%
 flops   112 x     6 x     6               943488       0.0%    100.0%      0.0%
 flops    68 x     6 x     6              1145664       0.0%    100.0%      0.0%
 flops    68 x   112 x     6              2193408       0.0%    100.0%      0.0%
 flops   112 x    68 x     6              2193408       0.0%    100.0%      0.0%
 flops   112 x   112 x     6              3612672       0.0%    100.0%      0.0%
 flops    68 x    68 x     6              3995136       0.0%    100.0%      0.0%
 flops   112 x     6 x   112             17762304       0.0%    100.0%      0.0%
 flops   112 x     6 x    68             21568512       0.0%    100.0%      0.0%
 flops    68 x     6 x   112             21568512       0.0%    100.0%      0.0%
 flops    68 x     6 x    68             26190336       0.0%    100.0%      0.0%
 flops inhomo. stacks                           0       0.0%      0.0%      0.0%
 flops total                       102.875952E+06       0.0%    100.0%      0.0%
 flops max/rank                     45.589488E+06       0.0%    100.0%      0.0%
 matmuls inhomo. stacks                         0       0.0%      0.0%      0.0%
 matmuls total                               1933       0.0%    100.0%      0.0%
 number of processed stacks                  1933       0.0%    100.0%      0.0%
 average stack size                                     0.0       1.0       0.0
 marketing flops                   108.648048E+06
 -------------------------------------------------------------------------------
 # multiplications                            452
 max memory usage/rank               1.226367E+09
 # max total images/rank                        1
 # max 3D layers                                1
 # MPI messages exchanged                   43392
 MPI messages size (bytes):
  total size                       191.196960E+06
  min size                           0.000000E+00
  max size                         100.352000E+03
  average size                       4.406272E+03
 MPI breakdown and total messages size (bytes):
             size <=      128               35052                        0
       128 < size <=     8192                5154                 17017632
      8192 < size <=    32768                   0                        0
     32768 < size <=   131072                3186                174179328
    131072 < size <=  4194304                   0                        0
   4194304 < size <= 16777216                   0                        0
  16777216 < size                               0                        0
 -------------------------------------------------------------------------------
 -                                                                             -
 -                      DBCSR MESSAGE PASSING PERFORMANCE                      -
 -                                                                             -
 -------------------------------------------------------------------------------
 ROUTINE             CALLS      AVE VOLUME [Bytes]
 MP_Bcast               14                     12.
 MP_Allreduce         2436                      8.
 MP_Alltoall          1977                   2776.
 MP_ISend             7220                   3189.
 MP_IRecv             7220                   2319.
 -------------------------------------------------------------------------------

 -------------------------------------------------------------------------------
 -                                                                             -
 -                                GRID STATISTICS                              -
 -                                                                             -
 -------------------------------------------------------------------------------
 LP    KERNEL    OPERATION                                     COUNT     PERCENT
 0     general   collocate                                        48       0.10%
 0     ortho     integrate                                      4117       8.42%
 0     ortho     collocate                                      4296       8.79%
 1     ortho     integrate                                      3404       6.96%
 1     ortho     collocate                                      3552       7.27%
 2     ortho     integrate                                      2300       4.71%
 2     ortho     collocate                                      2400       4.91%
 3     ortho     integrate                                      6440      13.17%
 3     ortho     collocate                                      6720      13.75%
 4     ortho     integrate                                      4600       9.41%
 4     ortho     collocate                                      4800       9.82%
 6     ortho     integrate                                      3036       6.21%
 6     ortho     collocate                                      3168       6.48%
 -------------------------------------------------------------------------------

 MEMORY| Estimated peak process memory [MiB]                                1170

 -------------------------------------------------------------------------------
 -                                                                             -
 -                         MESSAGE PASSING PERFORMANCE                         -
 -                                                                             -
 -------------------------------------------------------------------------------

 ROUTINE             CALLS      AVE VOLUME [Bytes]
 MP_Group                5
 MP_Bcast              218                 798486.
 MP_Allreduce          665                   2089.
 MP_Sync               138
 MP_Alltoall           457               13758870.
 MP_ISendRecv         2835                 223250.
 MP_Wait              3939
 MP_comm_split          16
 MP_ISend              960                 792248.
 MP_IRecv              960                 792112.
 MP_Recv                 4                   3968.
 -------------------------------------------------------------------------------


 -------------------------------------------------------------------------------
 -                                                                             -
 -                           R E F E R E N C E S                               -
 -                                                                             -
 -------------------------------------------------------------------------------
 
 CP2K version 8.0 (Development Version), the CP2K developers group (2020).
 CP2K is freely available from https://www.cp2k.org/ .

 Kuehne,Thomas D.; Iannuzzi,Marcella; Del Ben,Mauro;
 Rybkin,Vladimir V.; Seewald,Patrick; Stein,Frederick; Laino,Teodoro;
 Khaliullin,Rustam Z.; Schuett,Ole; Schiffmann,Florian; Golze,Dorothea;
 Wilhelm,Jan; Chulkov,Sergey; Bani-Hashemian,Mohammad Hossein;
 Weber,Valery; Borstnik,Urban; Taillefumier,Mathieu;
 Jakobovits,Alice Shoshana; Lazzaro,Alfio; Pabst,Hans; Mueller,Tiziano;
 Schade,Robert; Guidon,Manuel; Andermatt,Samuel; Holmberg,Nico;
 Schenter,Gregory K.; Hehn,Anna; Bussy,Augustin; Belleflamme,Fabian;
 Tabacchi,Gloria; Gloess,Andreas; Lass,Michael; Bethune,Iain;
 Mundy,Christopher J.; Plessl,Christian; Watkins,Matt;
 VandeVondele,Joost; Krack,Matthias; Hutter,Juerg. 
 The Journal of Chemical Physics, 152 (19), (2020). 
 CP2K: An electronic structure and molecular dynamics software package -
 Quickstep: Efficient and accurate electronic structure calculations.
 https://doi.org/10.1063/5.0007045

 Schuett, Ole; Messmer, Peter; Hutter, Juerg; VandeVondele, Joost. 
 Electronic Structure Calculations on Graphics Processing Units, John
 Wiley & Sons, Ltd, 173-190 (2016). 
 GPU-Accelerated Sparse Matrix-Matrix Multiplication for
 Linear Scaling Density Functional Theory.
 https://doi.org/10.1002/9781118670712.ch8

 Borstnik, U; VandeVondele, J; Weber, V; Hutter, J. 
 PARALLEL COMPUTING, 40 (5-6), 47-58 (2014). 
 Sparse matrix multiplication: The distributed block-compressed sparse
 row library.
 https://doi.org/10.1016/j.parco.2014.03.012

 Hutter, J; Iannuzzi, M; Schiffmann, F; VandeVondele, J. 
 WIREs Comput Mol Sci., 4 (1), 15-25 (2014). 
 CP2K: atomistic simulations of condensed matter systems.
 https://doi.org/10.1002/wcms.1159

 Marek, A; Blum, V; Johanni, R; Havu, V; Lang, B; Auckenthaler, T;
 Heinecke, A; Bungartz, H; Lederer, H. 
 Journal of Physics: Condensed Matter, 26 (21), (2014). 
 The ELPA library: scalable parallel eigenvalue solutions for
 electronic structure
 theory and computational science.
 https://doi.org/10.1088/0953-8984/26/21/213201

 Guidon, M; Hutter, J; VandeVondele, J. 
 JOURNAL OF CHEMICAL THEORY AND COMPUTATION, 5 (11), 3010-3021 (2009). 
 Robust Periodic Hartree-Fock Exchange for Large-Scale Simulations Using
 Gaussian Basis Sets.
 https://doi.org/10.1021/ct900494g

 Guidon, M; Schiffmann, F; Hutter, J; VandeVondele, J. 
 JOURNAL OF CHEMICAL PHYSICS, 128 (21), 214104 (2008). 
 Ab initio molecular dynamics using hybrid density functionals.
 https://doi.org/10.1063/1.2931945

 Krack, M. 
 THEORETICAL CHEMISTRY ACCOUNTS, 114 (1-3), 145-152 (2005). 
 Pseudopotentials for H to Kr optimized for gradient-corrected
 exchange-correlation functionals.
 https://doi.org/10.1007/s00214-005-0655-y

 VandeVondele, J; Krack, M; Mohamed, F; Parrinello, M; Chassaing, T;
 Hutter, J. COMPUTER PHYSICS COMMUNICATIONS, 167 (2), 103-128 (2005). 
 QUICKSTEP: Fast and accurate density functional calculations using a
 mixed Gaussian and plane waves approach.
 https://doi.org/10.1016/j.cpc.2004.12.014

 Frigo, M; Johnson, SG. 
 PROCEEDINGS OF THE IEEE, 93 (2), 216-231 (2005). 
 The design and implementation of FFTW3.
 https://doi.org/10.1109/JPROC.2004.840301

 VandeVondele, J; Hutter, J. 
 JOURNAL OF CHEMICAL PHYSICS, 118 (10), 4365-4369 (2003). 
 An efficient orbital transformation method for electronic structure
 calculations.
 https://doi.org/10.1063/1.1543154

 Martyna, GJ; Tuckerman, ME. 
 JOURNAL OF CHEMICAL PHYSICS, 110 (6), 2810-2821 (1999). 
 A reciprocal space based method for treating long range interactions in
 ab initio and force-field-based calculations in clusters.
 https://doi.org/10.1063/1.477923

 Hartwigsen, C; Goedecker, S; Hutter, J. 
 PHYSICAL REVIEW B, 58 (7), 3641-3662 (1998). 
 Relativistic separable dual-space Gaussian pseudopotentials from H to Rn.
 https://doi.org/10.1103/PhysRevB.58.3641

 Lippert, G; Hutter, J; Parrinello, M. 
 MOLECULAR PHYSICS, 92 (3), 477-487 (1997). 
 A hybrid Gaussian and plane wave density functional scheme.
 https://doi.org/10.1080/002689797170220

 Perdew, JP; Burke, K; Ernzerhof, M. 
 PHYSICAL REVIEW LETTERS, 77 (18), 3865-3868 (1996). 
 Generalized gradient approximation made simple.
 https://doi.org/10.1103/PhysRevLett.77.3865

 Goedecker, S; Teter, M; Hutter, J. 
 PHYSICAL REVIEW B, 54 (3), 1703-1710 (1996). 
 Separable dual-space Gaussian pseudopotentials.
 https://doi.org/10.1103/PhysRevB.54.1703


 -------------------------------------------------------------------------------
 -                                                                             -
 -                                T I M I N G                                  -
 -                                                                             -
 -------------------------------------------------------------------------------
 SUBROUTINE                       CALLS  ASD         SELF TIME        TOTAL TIME
                                MAXIMUM       AVERAGE  MAXIMUM  AVERAGE  MAXIMUM
 CP2K                                 1  1.0    0.028    0.073   51.922   51.923
 qs_energies                          1  2.0    0.000    0.000   51.417   51.418
 scf_env_do_scf                       1  3.0    0.000    0.000   51.149   51.150
 qs_ks_update_qs_env                 26  5.0    0.000    0.000   47.055   47.056
 rebuild_ks_matrix                   23  6.0    0.000    0.000   47.052   47.053
 qs_ks_build_kohn_sham_matrix        23  7.0    0.004    0.005   47.052   47.053
 hfx_ks_matrix                       23  8.0    0.001    0.001   32.342   32.343
 integrate_four_center               23  9.0    0.011    0.012   32.340   32.341
 scf_env_do_scf_inner_loop           23  4.0    0.001    0.002   31.577   31.578
 integrate_four_center_main          23 10.0    0.004    0.005   10.135   22.645
 integrate_four_center_bin         2921 11.0   10.131   22.642   10.131   22.642
 init_scf_loop                        3  4.0    0.000    0.000   19.571   19.571
 mp_sync                            138 10.8   12.522   17.078   12.522   17.078
 pw_transfer                        444  9.6    0.047    0.055   10.187   11.829
 fft_wrap_pw1pw2                    398 10.7    0.006    0.007   10.078   11.718
 fft_wrap_pw1pw2_300                256 11.8    0.466    0.499    9.460   11.058
 qs_vxc_create                       23  8.0    0.001    0.001   10.560   10.587
 xc_vxc_pw_create                    23  9.0    0.087    0.095   10.559   10.586
 fft3d_ps                           398 12.7    4.227    4.411    7.700    9.506
 calc_screening_functions             1 10.0    7.102    7.170    7.923    8.029
 xc_rho_set_and_dset_create          23 10.0    0.032    0.035    6.285    7.114
 mp_alltoall_z22v                   398 14.7    2.317    4.523    2.317    4.523
 xc_functional_eval                  23 11.0    0.000    0.000    3.608    4.437
 pbe_lda_eval                        23 12.0    3.608    4.437    3.608    4.437
 yz_to_x                            190 13.1    0.551    0.640    2.124    3.955
 qs_rho_update_rho                   24  5.0    0.000    0.000    3.842    3.843
 calculate_rho_elec                  24  6.0    0.039    0.041    3.842    3.842
 density_rs2pw                       24  7.0    0.001    0.001    2.983    3.198
 sum_up_and_integrate                23  8.0    0.016    0.019    2.746    2.747
 integrate_v_rspace_low              23  9.0    0.178    0.662    2.730    2.733
 rs_pw_transfer                     189  9.4    0.004    0.005    2.154    2.357
 potential_pw2rs                     23 10.0    0.003    0.003    2.052    2.055
 x_to_yz                            208 14.2    0.592    0.675    1.336    1.517
 calc_pair_dist_radii                 1 10.0    1.221    1.232    1.484    1.504
 powell_optimize                 405140 11.0    1.084    1.132    1.084    1.132
 rs_pw_transfer_RS2PW_300            25  8.9    0.304    0.346    0.882    1.101
 -------------------------------------------------------------------------------

 The number of warnings for this run is : 0
 
 -------------------------------------------------------------------------------
  **** **** ******  **  PROGRAM ENDED AT                 2020-12-04 18:29:39.282
 ***** ** ***  *** **   PROGRAM RAN ON                                   tcopt10
 **    ****   ******    PROGRAM RAN BY                                    hutter
 ***** **    ** ** **   PROGRAM PROCESS ID                                 45145
  **** **  *******  **  PROGRAM STOPPED IN /data/hutter/GITHUB/BASIS/MOLOPT/PBE0
                                           /Mg
