
  **** **** ******  **  PROGRAM STARTED AT               2020-12-07 16:01:37.583
 ***** ** ***  *** **   PROGRAM STARTED ON                               tcopt10
 **    ****   ******    PROGRAM STARTED BY                                hutter
 ***** **    ** ** **   PROGRAM PROCESS ID                                 73551
  **** **  *******  **  PROGRAM STARTED IN /data/hutter/GITHUB/BASIS/MOLOPT/PBE0
                                           /Mg

 CP2K| version string:                    CP2K version 8.0 (Development Version)
 CP2K| source code revision number:                                  git:afc71fa
 CP2K| cp2kflags: omp libint fftw3 libxc elpa parallel mpi3 scalapack xsmm spgli
 CP2K|            b sirius
 CP2K| is freely available from                            https://www.cp2k.org/
 CP2K| Program compiled at                          Tue Nov 17 10:27:14 CET 2020
 CP2K| Program compiled on                                               tcopt10
 CP2K| Program compiled for                                                local
 CP2K| Data directory path                 /data/hutter/GITHUB/CURRENT/cp2k/data
 CP2K| Input file name                                              opt-dzvp.inp

 GLOBAL| Method name                                              OPTIMIZE_BASIS
 GLOBAL| Project name                                                     molopt
 GLOBAL| Preferred FFT library                                             FFTW3
 GLOBAL| Preferred diagonalization lib.                                     ELPA
 GLOBAL| Run type                                                   ENERGY_FORCE
 GLOBAL| All-to-all communication in single precision                          F
 GLOBAL| FFTs using library dependent lengths                                  F
 GLOBAL| Global print level                                               MEDIUM
 GLOBAL| MPI I/O enabled                                                       T
 GLOBAL| Total number of message passing processes                            36
 GLOBAL| Number of threads for this process                                    1
 GLOBAL| This output is from process                                           0
 GLOBAL| CPU model name                          AMD EPYC 7401 24-Core Processor
 GLOBAL| CPUID                                                              1002

 MEMORY| system memory details [Kb]
 MEMORY|                        rank 0           min           max       average
 MEMORY| MemTotal            263987256     263987256     263987256     263987256
 MEMORY| MemFree             253887592     253887592     253887592     253887592
 MEMORY| Buffers                   148           148           148           148
 MEMORY| Cached                5883460       5883460       5883460       5883460
 MEMORY| Slab                  1222816       1222816       1222816       1222816
 MEMORY| SReclaimable           595760        595760        595760        595760
 MEMORY| MemLikelyFree       260366960     260366960     260366960     260366960


 *** Fundamental physical constants (SI units) ***

 *** Literature: B. J. Mohr and B. N. Taylor,
 ***             CODATA recommended values of the fundamental physical
 ***             constants: 2006, Web Version 5.1
 ***             http://physics.nist.gov/constants

 Speed of light in vacuum [m/s]                             2.99792458000000E+08
 Magnetic constant or permeability of vacuum [N/A**2]       1.25663706143592E-06
 Electric constant or permittivity of vacuum [F/m]          8.85418781762039E-12
 Planck constant (h) [J*s]                                  6.62606896000000E-34
 Planck constant (h-bar) [J*s]                              1.05457162825177E-34
 Elementary charge [C]                                      1.60217648700000E-19
 Electron mass [kg]                                         9.10938215000000E-31
 Electron g factor [ ]                                     -2.00231930436220E+00
 Proton mass [kg]                                           1.67262163700000E-27
 Fine-structure constant                                    7.29735253760000E-03
 Rydberg constant [1/m]                                     1.09737315685270E+07
 Avogadro constant [1/mol]                                  6.02214179000000E+23
 Boltzmann constant [J/K]                                   1.38065040000000E-23
 Atomic mass unit [kg]                                      1.66053878200000E-27
 Bohr radius [m]                                            5.29177208590000E-11

 *** Conversion factors ***

 [u] -> [a.u.]                                              1.82288848426455E+03
 [Angstrom] -> [Bohr] = [a.u.]                              1.88972613288564E+00
 [a.u.] = [Bohr] -> [Angstrom]                              5.29177208590000E-01
 [a.u.] -> [s]                                              2.41888432650478E-17
 [a.u.] -> [fs]                                             2.41888432650478E-02
 [a.u.] -> [J]                                              4.35974393937059E-18
 [a.u.] -> [N]                                              8.23872205491840E-08
 [a.u.] -> [K]                                              3.15774647902944E+05
 [a.u.] -> [kJ/mol]                                         2.62549961709828E+03
 [a.u.] -> [kcal/mol]                                       6.27509468713739E+02
 [a.u.] -> [Pa]                                             2.94210107994716E+13
 [a.u.] -> [bar]                                            2.94210107994716E+08
 [a.u.] -> [atm]                                            2.90362800883016E+08
 [a.u.] -> [eV]                                             2.72113838565563E+01
 [a.u.] -> [Hz]                                             6.57968392072181E+15
 [a.u.] -> [1/cm] (wave numbers)                            2.19474631370540E+05
 [a.u./Bohr**2] -> [1/cm]                                   5.14048714338585E+03
 
 DBCSR| CPU Multiplication driver                                           XSMM
 DBCSR| Multrec recursion limit                                              512
 DBCSR| Multiplication stack size                                           1000
 DBCSR| Maximum elements for images                                    UNLIMITED
 DBCSR| Multiplicative factor virtual images                                   1
 DBCSR| Use multiplication densification                                       T
 DBCSR| Multiplication size stacks                                             3
 DBCSR| Use memory pool for CPU allocation                                     F
 DBCSR| Number of 3D layers                                               SINGLE
 DBCSR| Use MPI memory allocation                                              F
 DBCSR| Use RMA algorithm                                                      F
 DBCSR| Use Communication thread                                               T
 DBCSR| Communication thread load                                             87
 DBCSR| Split modifier for TAS multiplication algorithm                  1.0E+00

 BASOPT| Total number of calculations      5

 BASOPT| Content of basis combination      1
 BASOPT|     Element:   MG    Basis set:    DZVP-MOLOPT-PBE0-GTH-Q10
 BASOPT|     Element:    H    Basis set:    DZVP-MOLOPT-PBE0-GTH-Q1
 BASOPT|     Element:    F    Basis set:    DZVP-MOLOPT-PBE0-GTH-Q7
 BASOPT|     Element:   CL    Basis set:    DZVP-MOLOPT-PBE0-GTH-Q7

 BASOPT| Information at iteration number:       0
 BASOPT| Training set | Combination | Rho difference | Condition num. | Time
 BASOPT| -----------------------------------------------------------------------
 BASOPT|        1     |       1     | 0.11486795E-01 | 0.23608447E+02 |    0.041
 BASOPT|        2     |       1     | 0.12233868E-01 | 0.33096894E+02 |    0.014
 BASOPT|        3     |       1     | 0.13068090E-01 | 0.55665967E+02 |    0.025
 BASOPT|        4     |       1     | 0.65047813E-02 | 0.12120927E+02 |    0.014
 BASOPT|        5     |       1     | 0.10085388E-01 | 0.76555064E+02 |    0.018
 BASOPT| -----------------------------------------------------------------------
 BASOPT| Total residuum value: -.14980397E+04

 BASOPT| Information at iteration number:     100
 BASOPT| Training set | Combination | Rho difference | Condition num. | Time
 BASOPT| -----------------------------------------------------------------------
 BASOPT|        1     |       1     | 0.11610023E-01 | 0.23873600E+02 |    3.291
 BASOPT|        2     |       1     | 0.12190330E-01 | 0.32964352E+02 |    1.284
 BASOPT|        3     |       1     | 0.13100339E-01 | 0.55443892E+02 |    2.295
 BASOPT|        4     |       1     | 0.64113425E-02 | 0.12074800E+02 |    1.239
 BASOPT|        5     |       1     | 0.10101859E-01 | 0.75743625E+02 |    1.447
 BASOPT| -----------------------------------------------------------------------
 BASOPT| Total residuum value: -.14980586E+04

 BASOPT| Information at iteration number:     200
 BASOPT| Training set | Combination | Rho difference | Condition num. | Time
 BASOPT| -----------------------------------------------------------------------
 BASOPT|        1     |       1     | 0.11722249E-01 | 0.23363463E+02 |    6.537
 BASOPT|        2     |       1     | 0.12343123E-01 | 0.33219414E+02 |    2.553
 BASOPT|        3     |       1     | 0.12953367E-01 | 0.54572682E+02 |    4.562
 BASOPT|        4     |       1     | 0.66257217E-02 | 0.12178912E+02 |    2.461
 BASOPT|        5     |       1     | 0.10019412E-01 | 0.76498384E+02 |    2.873
 BASOPT| -----------------------------------------------------------------------
 BASOPT| Total residuum value: -.14981237E+04

 BASOPT| Information at iteration number:     300
 BASOPT| Training set | Combination | Rho difference | Condition num. | Time
 BASOPT| -----------------------------------------------------------------------
 BASOPT|        1     |       1     | 0.11454906E-01 | 0.24563723E+02 |    9.781
 BASOPT|        2     |       1     | 0.12060671E-01 | 0.32846608E+02 |    3.822
 BASOPT|        3     |       1     | 0.13132455E-01 | 0.55981098E+02 |    6.832
 BASOPT|        4     |       1     | 0.63100180E-02 | 0.12078645E+02 |    3.683
 BASOPT|        5     |       1     | 0.10089447E-01 | 0.75120029E+02 |    4.299
 BASOPT| -----------------------------------------------------------------------
 BASOPT| Total residuum value: -.14981405E+04

 BASOPT| Information at iteration number:     400
 BASOPT| Training set | Combination | Rho difference | Condition num. | Time
 BASOPT| -----------------------------------------------------------------------
 BASOPT|        1     |       1     | 0.11414474E-01 | 0.25108939E+02 |   13.019
 BASOPT|        2     |       1     | 0.12039531E-01 | 0.32803451E+02 |    5.101
 BASOPT|        3     |       1     | 0.13226182E-01 | 0.56770403E+02 |    9.101
 BASOPT|        4     |       1     | 0.62477030E-02 | 0.12087814E+02 |    4.904
 BASOPT|        5     |       1     | 0.10141084E-01 | 0.75153672E+02 |    5.724
 BASOPT| -----------------------------------------------------------------------
 BASOPT| Total residuum value: -.14981479E+04

 BASOPT| Information at iteration number:     500
 BASOPT| Training set | Combination | Rho difference | Condition num. | Time
 BASOPT| -----------------------------------------------------------------------
 BASOPT|        1     |       1     | 0.11318627E-01 | 0.25568631E+02 |   16.257
 BASOPT|        2     |       1     | 0.12003737E-01 | 0.32754416E+02 |    6.382
 BASOPT|        3     |       1     | 0.13316842E-01 | 0.57619055E+02 |   11.368
 BASOPT|        4     |       1     | 0.61929485E-02 | 0.12078566E+02 |    6.123
 BASOPT|        5     |       1     | 0.10185095E-01 | 0.75100715E+02 |    7.148
 BASOPT| -----------------------------------------------------------------------
 BASOPT| Total residuum value: -.14981484E+04

 BASOPT| Information at iteration number:     600
 BASOPT| Training set | Combination | Rho difference | Condition num. | Time
 BASOPT| -----------------------------------------------------------------------
 BASOPT|        1     |       1     | 0.11205591E-01 | 0.25330816E+02 |   19.492
 BASOPT|        2     |       1     | 0.12074572E-01 | 0.32941488E+02 |    7.664
 BASOPT|        3     |       1     | 0.13301053E-01 | 0.58302665E+02 |   13.632
 BASOPT|        4     |       1     | 0.62779143E-02 | 0.12156806E+02 |    7.342
 BASOPT|        5     |       1     | 0.10181999E-01 | 0.76330911E+02 |    8.572
 BASOPT| -----------------------------------------------------------------------
 BASOPT| Total residuum value: -.14981502E+04

 BASOPT| Information at iteration number:     700
 BASOPT| Training set | Combination | Rho difference | Condition num. | Time
 BASOPT| -----------------------------------------------------------------------
 BASOPT|        1     |       1     | 0.11328039E-01 | 0.25027851E+02 |   22.728
 BASOPT|        2     |       1     | 0.12039289E-01 | 0.32826061E+02 |    8.946
 BASOPT|        3     |       1     | 0.13286853E-01 | 0.57910291E+02 |   15.896
 BASOPT|        4     |       1     | 0.62084579E-02 | 0.12113032E+02 |    8.563
 BASOPT|        5     |       1     | 0.10170647E-01 | 0.75855300E+02 |    9.997
 BASOPT| -----------------------------------------------------------------------
 BASOPT| Total residuum value: -.14981538E+04

 BASOPT| Information at iteration number:     800
 BASOPT| Training set | Combination | Rho difference | Condition num. | Time
 BASOPT| -----------------------------------------------------------------------
 BASOPT|        1     |       1     | 0.11348845E-01 | 0.24828873E+02 |   25.965
 BASOPT|        2     |       1     | 0.12032689E-01 | 0.32833884E+02 |   10.228
 BASOPT|        3     |       1     | 0.13264377E-01 | 0.57835897E+02 |   18.157
 BASOPT|        4     |       1     | 0.62068952E-02 | 0.12121238E+02 |    9.782
 BASOPT|        5     |       1     | 0.10153325E-01 | 0.75951028E+02 |   11.421
 BASOPT| -----------------------------------------------------------------------
 BASOPT| Total residuum value: -.14981545E+04

 BASOPT| Information at iteration number:     900
 BASOPT| Training set | Combination | Rho difference | Condition num. | Time
 BASOPT| -----------------------------------------------------------------------
 BASOPT|        1     |       1     | 0.11393998E-01 | 0.24842851E+02 |   29.203
 BASOPT|        2     |       1     | 0.11973617E-01 | 0.32690698E+02 |   11.510
 BASOPT|        3     |       1     | 0.13293038E-01 | 0.57697817E+02 |   20.420
 BASOPT|        4     |       1     | 0.61211467E-02 | 0.12073501E+02 |   11.003
 BASOPT|        5     |       1     | 0.10163601E-01 | 0.75219471E+02 |   12.845
 BASOPT| -----------------------------------------------------------------------
 BASOPT| Total residuum value: -.14981567E+04

 BASOPT| Information at iteration number:    1000
 BASOPT| Training set | Combination | Rho difference | Condition num. | Time
 BASOPT| -----------------------------------------------------------------------
 BASOPT|        1     |       1     | 0.11325336E-01 | 0.24600961E+02 |   32.442
 BASOPT|        2     |       1     | 0.12006596E-01 | 0.32782770E+02 |   12.792
 BASOPT|        3     |       1     | 0.13271839E-01 | 0.57862341E+02 |   22.685
 BASOPT|        4     |       1     | 0.61650983E-02 | 0.12113014E+02 |   12.222
 BASOPT|        5     |       1     | 0.10156808E-01 | 0.75749796E+02 |   14.268
 BASOPT| -----------------------------------------------------------------------
 BASOPT| Total residuum value: -.14981586E+04

 BASOPT| Information at iteration number:    1100
 BASOPT| Training set | Combination | Rho difference | Condition num. | Time
 BASOPT| -----------------------------------------------------------------------
 BASOPT|        1     |       1     | 0.11317614E-01 | 0.24490100E+02 |   35.681
 BASOPT|        2     |       1     | 0.12012100E-01 | 0.32815400E+02 |   14.075
 BASOPT|        3     |       1     | 0.13263008E-01 | 0.57979807E+02 |   24.948
 BASOPT|        4     |       1     | 0.61722235E-02 | 0.12145525E+02 |   13.441
 BASOPT|        5     |       1     | 0.10152098E-01 | 0.75979579E+02 |   15.690
 BASOPT| -----------------------------------------------------------------------
 BASOPT| Total residuum value: -.14981605E+04

 BASOPT| Information at iteration number:    1200
 BASOPT| Training set | Combination | Rho difference | Condition num. | Time
 BASOPT| -----------------------------------------------------------------------
 BASOPT|        1     |       1     | 0.11346998E-01 | 0.24570860E+02 |   38.921
 BASOPT|        2     |       1     | 0.11978380E-01 | 0.32743715E+02 |   15.357
 BASOPT|        3     |       1     | 0.13285057E-01 | 0.57994518E+02 |   27.212
 BASOPT|        4     |       1     | 0.61231098E-02 | 0.12127137E+02 |   14.660
 BASOPT|        5     |       1     | 0.10161825E-01 | 0.75636022E+02 |   17.113
 BASOPT| -----------------------------------------------------------------------
 BASOPT| Total residuum value: -.14981616E+04

 BASOPT| Information at iteration number:    1300
 BASOPT| Training set | Combination | Rho difference | Condition num. | Time
 BASOPT| -----------------------------------------------------------------------
 BASOPT|        1     |       1     | 0.11348991E-01 | 0.24517857E+02 |   42.161
 BASOPT|        2     |       1     | 0.11978074E-01 | 0.32733582E+02 |   16.641
 BASOPT|        3     |       1     | 0.13276793E-01 | 0.57947354E+02 |   29.478
 BASOPT|        4     |       1     | 0.61339093E-02 | 0.12124060E+02 |   15.880
 BASOPT|        5     |       1     | 0.10155233E-01 | 0.75669205E+02 |   18.537
 BASOPT| -----------------------------------------------------------------------
 BASOPT| Total residuum value: -.14981620E+04

 BASOPT| Information at iteration number:    1400
 BASOPT| Training set | Combination | Rho difference | Condition num. | Time
 BASOPT| -----------------------------------------------------------------------
 BASOPT|        1     |       1     | 0.11273717E-01 | 0.24514337E+02 |   45.400
 BASOPT|        2     |       1     | 0.11990920E-01 | 0.32771409E+02 |   17.925
 BASOPT|        3     |       1     | 0.13284210E-01 | 0.58168618E+02 |   31.744
 BASOPT|        4     |       1     | 0.61655472E-02 | 0.12136376E+02 |   17.102
 BASOPT|        5     |       1     | 0.10162195E-01 | 0.75999399E+02 |   19.963
 BASOPT| -----------------------------------------------------------------------
 BASOPT| Total residuum value: -.14981636E+04

 BASOPT| Information at iteration number:    1500
 BASOPT| Training set | Combination | Rho difference | Condition num. | Time
 BASOPT| -----------------------------------------------------------------------
 BASOPT|        1     |       1     | 0.11267069E-01 | 0.24505731E+02 |   48.638
 BASOPT|        2     |       1     | 0.11988951E-01 | 0.32719526E+02 |   19.209
 BASOPT|        3     |       1     | 0.13303012E-01 | 0.58244500E+02 |   34.010
 BASOPT|        4     |       1     | 0.61592610E-02 | 0.12108011E+02 |   18.322
 BASOPT|        5     |       1     | 0.10173742E-01 | 0.75913268E+02 |   21.388
 BASOPT| -----------------------------------------------------------------------
 BASOPT| Total residuum value: -.14981643E+04

 BASOPT| Information at iteration number:    1600
 BASOPT| Training set | Combination | Rho difference | Condition num. | Time
 BASOPT| -----------------------------------------------------------------------
 BASOPT|        1     |       1     | 0.11302313E-01 | 0.24487510E+02 |   51.876
 BASOPT|        2     |       1     | 0.11960819E-01 | 0.32631217E+02 |   20.493
 BASOPT|        3     |       1     | 0.13306758E-01 | 0.57947427E+02 |   36.277
 BASOPT|        4     |       1     | 0.61274218E-02 | 0.12059769E+02 |   19.539
 BASOPT|        5     |       1     | 0.10174038E-01 | 0.75397135E+02 |   22.813
 BASOPT| -----------------------------------------------------------------------
 BASOPT| Total residuum value: -.14981636E+04

 BASOPT| Information at iteration number:    1700
 BASOPT| Training set | Combination | Rho difference | Condition num. | Time
 BASOPT| -----------------------------------------------------------------------
 BASOPT|        1     |       1     | 0.11280529E-01 | 0.24100701E+02 |   55.116
 BASOPT|        2     |       1     | 0.12002237E-01 | 0.32666378E+02 |   21.778
 BASOPT|        3     |       1     | 0.13273526E-01 | 0.57749644E+02 |   38.544
 BASOPT|        4     |       1     | 0.61847709E-02 | 0.12048225E+02 |   20.757
 BASOPT|        5     |       1     | 0.10164458E-01 | 0.75666838E+02 |   24.237
 BASOPT| -----------------------------------------------------------------------
 BASOPT| Total residuum value: -.14981657E+04

 BASOPT| Information at iteration number:    1800
 BASOPT| Training set | Combination | Rho difference | Condition num. | Time
 BASOPT| -----------------------------------------------------------------------
 BASOPT|        1     |       1     | 0.11235641E-01 | 0.24102412E+02 |   58.356
 BASOPT|        2     |       1     | 0.11969562E-01 | 0.32580955E+02 |   23.064
 BASOPT|        3     |       1     | 0.13292622E-01 | 0.57834577E+02 |   40.814
 BASOPT|        4     |       1     | 0.61647675E-02 | 0.12002004E+02 |   21.980
 BASOPT|        5     |       1     | 0.10168816E-01 | 0.75414328E+02 |   25.666
 BASOPT| -----------------------------------------------------------------------
 BASOPT| Total residuum value: -.14981666E+04

 BASOPT| Information at iteration number:    1900
 BASOPT| Training set | Combination | Rho difference | Condition num. | Time
 BASOPT| -----------------------------------------------------------------------
 BASOPT|        1     |       1     | 0.11250249E-01 | 0.23924190E+02 |   61.595
 BASOPT|        2     |       1     | 0.11977291E-01 | 0.32543861E+02 |   24.351
 BASOPT|        3     |       1     | 0.13293167E-01 | 0.57814376E+02 |   43.085
 BASOPT|        4     |       1     | 0.61650522E-02 | 0.11979155E+02 |   23.203
 BASOPT|        5     |       1     | 0.10171696E-01 | 0.75451903E+02 |   27.094
 BASOPT| -----------------------------------------------------------------------
 BASOPT| Total residuum value: -.14981676E+04

 BASOPT| Information at iteration number:    2000
 BASOPT| Training set | Combination | Rho difference | Condition num. | Time
 BASOPT| -----------------------------------------------------------------------
 BASOPT|        1     |       1     | 0.11281388E-01 | 0.23768703E+02 |   64.834
 BASOPT|        2     |       1     | 0.11976018E-01 | 0.32508684E+02 |   25.637
 BASOPT|        3     |       1     | 0.13280090E-01 | 0.57616284E+02 |   45.352
 BASOPT|        4     |       1     | 0.61613894E-02 | 0.11954324E+02 |   24.427
 BASOPT|        5     |       1     | 0.10164256E-01 | 0.75337484E+02 |   28.521
 BASOPT| -----------------------------------------------------------------------
 BASOPT| Total residuum value: -.14981680E+04

 BASOPT| Information at iteration number:    2100
 BASOPT| Training set | Combination | Rho difference | Condition num. | Time
 BASOPT| -----------------------------------------------------------------------
 BASOPT|        1     |       1     | 0.11263548E-01 | 0.23506640E+02 |   68.073
 BASOPT|        2     |       1     | 0.11998003E-01 | 0.32537289E+02 |   26.924
 BASOPT|        3     |       1     | 0.13256603E-01 | 0.57617398E+02 |   47.620
 BASOPT|        4     |       1     | 0.61965956E-02 | 0.11955647E+02 |   25.652
 BASOPT|        5     |       1     | 0.10151346E-01 | 0.75678938E+02 |   29.949
 BASOPT| -----------------------------------------------------------------------
 BASOPT| Total residuum value: -.14981685E+04

 BASOPT| Information at iteration number:    2200
 BASOPT| Training set | Combination | Rho difference | Condition num. | Time
 BASOPT| -----------------------------------------------------------------------
 BASOPT|        1     |       1     | 0.11241420E-01 | 0.23553424E+02 |   71.311
 BASOPT|        2     |       1     | 0.11985648E-01 | 0.32511957E+02 |   28.212
 BASOPT|        3     |       1     | 0.13277656E-01 | 0.57699618E+02 |   49.890
 BASOPT|        4     |       1     | 0.61844272E-02 | 0.11940115E+02 |   26.878
 BASOPT|        5     |       1     | 0.10164434E-01 | 0.75563633E+02 |   31.379
 BASOPT| -----------------------------------------------------------------------
 BASOPT| Total residuum value: -.14981691E+04

 BASOPT| Information at iteration number:    2300
 BASOPT| Training set | Combination | Rho difference | Condition num. | Time
 BASOPT| -----------------------------------------------------------------------
 BASOPT|        1     |       1     | 0.11263170E-01 | 0.23435376E+02 |   74.548
 BASOPT|        2     |       1     | 0.11970512E-01 | 0.32471972E+02 |   29.498
 BASOPT|        3     |       1     | 0.13268919E-01 | 0.57524778E+02 |   52.159
 BASOPT|        4     |       1     | 0.61714792E-02 | 0.11917881E+02 |   28.103
 BASOPT|        5     |       1     | 0.10158844E-01 | 0.75411067E+02 |   32.807
 BASOPT| -----------------------------------------------------------------------
 BASOPT| Total residuum value: -.14981699E+04

 BASOPT| Information at iteration number:    2400
 BASOPT| Training set | Combination | Rho difference | Condition num. | Time
 BASOPT| -----------------------------------------------------------------------
 BASOPT|        1     |       1     | 0.11162599E-01 | 0.23509914E+02 |   77.786
 BASOPT|        2     |       1     | 0.11958538E-01 | 0.32482338E+02 |   30.785
 BASOPT|        3     |       1     | 0.13297244E-01 | 0.57942393E+02 |   54.428
 BASOPT|        4     |       1     | 0.61797080E-02 | 0.11924999E+02 |   29.328
 BASOPT|        5     |       1     | 0.10172132E-01 | 0.75601723E+02 |   34.236
 BASOPT| -----------------------------------------------------------------------
 BASOPT| Total residuum value: -.14981707E+04

 BASOPT| Information at iteration number:    2500
 BASOPT| Training set | Combination | Rho difference | Condition num. | Time
 BASOPT| -----------------------------------------------------------------------
 BASOPT|        1     |       1     | 0.11234861E-01 | 0.23489266E+02 |   81.025
 BASOPT|        2     |       1     | 0.11927459E-01 | 0.32358391E+02 |   32.072
 BASOPT|        3     |       1     | 0.13309418E-01 | 0.57515532E+02 |   56.699
 BASOPT|        4     |       1     | 0.61308842E-02 | 0.11856087E+02 |   30.555
 BASOPT|        5     |       1     | 0.10178030E-01 | 0.74845506E+02 |   35.665
 BASOPT| -----------------------------------------------------------------------
 BASOPT| Total residuum value: -.14981708E+04

 BASOPT| Information at iteration number:    2600
 BASOPT| Training set | Combination | Rho difference | Condition num. | Time
 BASOPT| -----------------------------------------------------------------------
 BASOPT|        1     |       1     | 0.11291589E-01 | 0.22899065E+02 |   84.264
 BASOPT|        2     |       1     | 0.11971544E-01 | 0.32404534E+02 |   33.360
 BASOPT|        3     |       1     | 0.13219594E-01 | 0.56859564E+02 |   58.982
 BASOPT|        4     |       1     | 0.61851871E-02 | 0.11840766E+02 |   31.781
 BASOPT|        5     |       1     | 0.10132263E-01 | 0.75053349E+02 |   37.094
 BASOPT| -----------------------------------------------------------------------
 BASOPT| Total residuum value: -.14981726E+04

 BASOPT| Information at iteration number:    2700
 BASOPT| Training set | Combination | Rho difference | Condition num. | Time
 BASOPT| -----------------------------------------------------------------------
 BASOPT|        1     |       1     | 0.11332774E-01 | 0.22805419E+02 |   87.503
 BASOPT|        2     |       1     | 0.11973027E-01 | 0.32359809E+02 |   34.648
 BASOPT|        3     |       1     | 0.13214921E-01 | 0.56670750E+02 |   61.264
 BASOPT|        4     |       1     | 0.61752848E-02 | 0.11809871E+02 |   33.007
 BASOPT|        5     |       1     | 0.10130107E-01 | 0.74855909E+02 |   38.523
 BASOPT| -----------------------------------------------------------------------
 BASOPT| Total residuum value: -.14981739E+04

 BASOPT| Information at iteration number:    2800
 BASOPT| Training set | Combination | Rho difference | Condition num. | Time
 BASOPT| -----------------------------------------------------------------------
 BASOPT|        1     |       1     | 0.11198047E-01 | 0.22901342E+02 |   90.742
 BASOPT|        2     |       1     | 0.11975057E-01 | 0.32381880E+02 |   35.936
 BASOPT|        3     |       1     | 0.13257516E-01 | 0.57224688E+02 |   63.545
 BASOPT|        4     |       1     | 0.61960984E-02 | 0.11820321E+02 |   34.234
 BASOPT|        5     |       1     | 0.10152457E-01 | 0.75190581E+02 |   39.951
 BASOPT| -----------------------------------------------------------------------
 BASOPT| Total residuum value: -.14981738E+04

 BASOPT| Information at iteration number:    2900
 BASOPT| Training set | Combination | Rho difference | Condition num. | Time
 BASOPT| -----------------------------------------------------------------------
 BASOPT|        1     |       1     | 0.11271751E-01 | 0.22661067E+02 |   93.981
 BASOPT|        2     |       1     | 0.11968458E-01 | 0.32366009E+02 |   37.225
 BASOPT|        3     |       1     | 0.13214035E-01 | 0.56705583E+02 |   65.827
 BASOPT|        4     |       1     | 0.61967492E-02 | 0.11795598E+02 |   35.461
 BASOPT|        5     |       1     | 0.10128970E-01 | 0.74939927E+02 |   41.382
 BASOPT| -----------------------------------------------------------------------
 BASOPT| Total residuum value: -.14981738E+04

 BASOPT| Information at iteration number:    3000
 BASOPT| Training set | Combination | Rho difference | Condition num. | Time
 BASOPT| -----------------------------------------------------------------------
 BASOPT|        1     |       1     | 0.11277135E-01 | 0.22619579E+02 |   97.224
 BASOPT|        2     |       1     | 0.11977863E-01 | 0.32375134E+02 |   38.514
 BASOPT|        3     |       1     | 0.13212418E-01 | 0.56621151E+02 |   68.109
 BASOPT|        4     |       1     | 0.62009252E-02 | 0.11793823E+02 |   36.688
 BASOPT|        5     |       1     | 0.10130032E-01 | 0.74926861E+02 |   42.811
 BASOPT| -----------------------------------------------------------------------
 BASOPT| Total residuum value: -.14981760E+04

 BASOPT| Information at iteration number:    3100
 BASOPT| Training set | Combination | Rho difference | Condition num. | Time
 BASOPT| -----------------------------------------------------------------------
 BASOPT|        1     |       1     | 0.11257304E-01 | 0.22844951E+02 |  100.466
 BASOPT|        2     |       1     | 0.11941376E-01 | 0.32300531E+02 |   39.803
 BASOPT|        3     |       1     | 0.13251298E-01 | 0.56713618E+02 |   70.391
 BASOPT|        4     |       1     | 0.61625136E-02 | 0.11751359E+02 |   37.915
 BASOPT|        5     |       1     | 0.10145782E-01 | 0.74446260E+02 |   44.241
 BASOPT| -----------------------------------------------------------------------
 BASOPT| Total residuum value: -.14981768E+04

 BASOPT| Information at iteration number:    3200
 BASOPT| Training set | Combination | Rho difference | Condition num. | Time
 BASOPT| -----------------------------------------------------------------------
 BASOPT|        1     |       1     | 0.11285116E-01 | 0.22909120E+02 |  103.708
 BASOPT|        2     |       1     | 0.11923738E-01 | 0.32255987E+02 |   41.092
 BASOPT|        3     |       1     | 0.13260555E-01 | 0.56612648E+02 |   72.674
 BASOPT|        4     |       1     | 0.61336939E-02 | 0.11730298E+02 |   39.142
 BASOPT|        5     |       1     | 0.10150030E-01 | 0.74148267E+02 |   45.672
 BASOPT| -----------------------------------------------------------------------
 BASOPT| Total residuum value: -.14981770E+04

 BASOPT| Information at iteration number:    3300
 BASOPT| Training set | Combination | Rho difference | Condition num. | Time
 BASOPT| -----------------------------------------------------------------------
 BASOPT|        1     |       1     | 0.11269807E-01 | 0.22792978E+02 |  106.952
 BASOPT|        2     |       1     | 0.11945771E-01 | 0.32309261E+02 |   42.381
 BASOPT|        3     |       1     | 0.13240904E-01 | 0.56642681E+02 |   74.956
 BASOPT|        4     |       1     | 0.61635896E-02 | 0.11750963E+02 |   40.370
 BASOPT|        5     |       1     | 0.10140788E-01 | 0.74480885E+02 |   47.102
 BASOPT| -----------------------------------------------------------------------
 BASOPT| Total residuum value: -.14981770E+04

 BASOPT| Information at iteration number:    3400
 BASOPT| Training set | Combination | Rho difference | Condition num. | Time
 BASOPT| -----------------------------------------------------------------------
 BASOPT|        1     |       1     | 0.11249640E-01 | 0.22743525E+02 |  110.200
 BASOPT|        2     |       1     | 0.11954506E-01 | 0.32341455E+02 |   43.670
 BASOPT|        3     |       1     | 0.13232189E-01 | 0.56694463E+02 |   77.237
 BASOPT|        4     |       1     | 0.61797688E-02 | 0.11763942E+02 |   41.598
 BASOPT|        5     |       1     | 0.10136774E-01 | 0.74672913E+02 |   48.532
 BASOPT| -----------------------------------------------------------------------
 BASOPT| Total residuum value: -.14981776E+04

 BASOPT| Information at iteration number:    3500
 BASOPT| Training set | Combination | Rho difference | Condition num. | Time
 BASOPT| -----------------------------------------------------------------------
 BASOPT|        1     |       1     | 0.11288738E-01 | 0.22716781E+02 |  113.445
 BASOPT|        2     |       1     | 0.11951153E-01 | 0.32322057E+02 |   44.960
 BASOPT|        3     |       1     | 0.13226482E-01 | 0.56559409E+02 |   79.518
 BASOPT|        4     |       1     | 0.61706601E-02 | 0.11756111E+02 |   42.826
 BASOPT|        5     |       1     | 0.10133920E-01 | 0.74550068E+02 |   49.961
 BASOPT| -----------------------------------------------------------------------
 BASOPT| Total residuum value: -.14981778E+04

 BASOPT| Information at iteration number:    3600
 BASOPT| Training set | Combination | Rho difference | Condition num. | Time
 BASOPT| -----------------------------------------------------------------------
 BASOPT|        1     |       1     | 0.11281580E-01 | 0.22738253E+02 |  116.691
 BASOPT|        2     |       1     | 0.11953881E-01 | 0.32328706E+02 |   46.250
 BASOPT|        3     |       1     | 0.13230456E-01 | 0.56660884E+02 |   81.799
 BASOPT|        4     |       1     | 0.61746937E-02 | 0.11763493E+02 |   44.054
 BASOPT|        5     |       1     | 0.10136961E-01 | 0.74663143E+02 |   51.392
 BASOPT| -----------------------------------------------------------------------
 BASOPT| Total residuum value: -.14981782E+04

 BASOPT| Information at iteration number:    3700
 BASOPT| Training set | Combination | Rho difference | Condition num. | Time
 BASOPT| -----------------------------------------------------------------------
 BASOPT|        1     |       1     | 0.11223044E-01 | 0.22903112E+02 |  119.937
 BASOPT|        2     |       1     | 0.11942120E-01 | 0.32303404E+02 |   47.540
 BASOPT|        3     |       1     | 0.13265730E-01 | 0.56989054E+02 |   84.079
 BASOPT|        4     |       1     | 0.61694122E-02 | 0.11749300E+02 |   45.283
 BASOPT|        5     |       1     | 0.10156012E-01 | 0.74664411E+02 |   52.822
 BASOPT| -----------------------------------------------------------------------
 BASOPT| Total residuum value: -.14981788E+04

 BASOPT| Information at iteration number:    3800
 BASOPT| Training set | Combination | Rho difference | Condition num. | Time
 BASOPT| -----------------------------------------------------------------------
 BASOPT|        1     |       1     | 0.11143948E-01 | 0.23180939E+02 |  123.180
 BASOPT|        2     |       1     | 0.11910927E-01 | 0.32207191E+02 |   48.830
 BASOPT|        3     |       1     | 0.13326103E-01 | 0.57334965E+02 |   86.359
 BASOPT|        4     |       1     | 0.61487117E-02 | 0.11685930E+02 |   46.511
 BASOPT|        5     |       1     | 0.10185352E-01 | 0.74330804E+02 |   54.252
 BASOPT| -----------------------------------------------------------------------
 BASOPT| Total residuum value: -.14981798E+04

 BASOPT| Information at iteration number:    3900
 BASOPT| Training set | Combination | Rho difference | Condition num. | Time
 BASOPT| -----------------------------------------------------------------------
 BASOPT|        1     |       1     | 0.11202052E-01 | 0.22810555E+02 |  126.423
 BASOPT|        2     |       1     | 0.11946419E-01 | 0.32239123E+02 |   50.121
 BASOPT|        3     |       1     | 0.13257930E-01 | 0.56797371E+02 |   88.640
 BASOPT|        4     |       1     | 0.61917227E-02 | 0.11669182E+02 |   47.740
 BASOPT|        5     |       1     | 0.10152470E-01 | 0.74484363E+02 |   55.684
 BASOPT| -----------------------------------------------------------------------
 BASOPT| Total residuum value: -.14981809E+04

 BASOPT| Information at iteration number:    4000
 BASOPT| Training set | Combination | Rho difference | Condition num. | Time
 BASOPT| -----------------------------------------------------------------------
 BASOPT|        1     |       1     | 0.11153295E-01 | 0.22749394E+02 |  129.667
 BASOPT|        2     |       1     | 0.11927781E-01 | 0.32135676E+02 |   51.412
 BASOPT|        3     |       1     | 0.13262369E-01 | 0.56545495E+02 |   90.922
 BASOPT|        4     |       1     | 0.61975637E-02 | 0.11566657E+02 |   48.969
 BASOPT|        5     |       1     | 0.10154614E-01 | 0.74006600E+02 |   57.115
 BASOPT| -----------------------------------------------------------------------
 BASOPT| Total residuum value: -.14981824E+04

 BASOPT| Information at iteration number:    4100
 BASOPT| Training set | Combination | Rho difference | Condition num. | Time
 BASOPT| -----------------------------------------------------------------------
 BASOPT|        1     |       1     | 0.11157501E-01 | 0.22602296E+02 |  132.912
 BASOPT|        2     |       1     | 0.11925786E-01 | 0.32052197E+02 |   52.704
 BASOPT|        3     |       1     | 0.13253360E-01 | 0.56194363E+02 |   93.205
 BASOPT|        4     |       1     | 0.62001412E-02 | 0.11490397E+02 |   50.199
 BASOPT|        5     |       1     | 0.10149270E-01 | 0.73565280E+02 |   58.545
 BASOPT| -----------------------------------------------------------------------
 BASOPT| Total residuum value: -.14981834E+04

 BASOPT| Information at iteration number:    4200
 BASOPT| Training set | Combination | Rho difference | Condition num. | Time
 BASOPT| -----------------------------------------------------------------------
 BASOPT|        1     |       1     | 0.11120924E-01 | 0.22504912E+02 |  136.155
 BASOPT|        2     |       1     | 0.11898181E-01 | 0.31865729E+02 |   53.996
 BASOPT|        3     |       1     | 0.13254834E-01 | 0.55602248E+02 |   95.489
 BASOPT|        4     |       1     | 0.61948549E-02 | 0.11297779E+02 |   51.429
 BASOPT|        5     |       1     | 0.10148100E-01 | 0.72483947E+02 |   59.975
 BASOPT| -----------------------------------------------------------------------
 BASOPT| Total residuum value: -.14981851E+04

 BASOPT| Information at iteration number:    4300
 BASOPT| Training set | Combination | Rho difference | Condition num. | Time
 BASOPT| -----------------------------------------------------------------------
 BASOPT|        1     |       1     | 0.11139014E-01 | 0.22519208E+02 |  139.399
 BASOPT|        2     |       1     | 0.11866186E-01 | 0.31744419E+02 |   55.288
 BASOPT|        3     |       1     | 0.13262155E-01 | 0.55192518E+02 |   97.774
 BASOPT|        4     |       1     | 0.61648836E-02 | 0.11184901E+02 |   52.657
 BASOPT|        5     |       1     | 0.10150627E-01 | 0.71690706E+02 |   61.405
 BASOPT| -----------------------------------------------------------------------
 BASOPT| Total residuum value: -.14981859E+04

 BASOPT| Information at iteration number:    4400
 BASOPT| Training set | Combination | Rho difference | Condition num. | Time
 BASOPT| -----------------------------------------------------------------------
 BASOPT|        1     |       1     | 0.11115883E-01 | 0.22447118E+02 |  142.643
 BASOPT|        2     |       1     | 0.11869713E-01 | 0.31720720E+02 |   56.579
 BASOPT|        3     |       1     | 0.13253383E-01 | 0.55031322E+02 |  100.059
 BASOPT|        4     |       1     | 0.61813362E-02 | 0.11121596E+02 |   53.885
 BASOPT|        5     |       1     | 0.10146033E-01 | 0.71532342E+02 |   62.836
 BASOPT| -----------------------------------------------------------------------
 BASOPT| Total residuum value: -.14981865E+04

 BASOPT| Information at iteration number:    4500
 BASOPT| Training set | Combination | Rho difference | Condition num. | Time
 BASOPT| -----------------------------------------------------------------------
 BASOPT|        1     |       1     | 0.11092274E-01 | 0.22313536E+02 |  145.890
 BASOPT|        2     |       1     | 0.11870884E-01 | 0.31691099E+02 |   57.873
 BASOPT|        3     |       1     | 0.13225262E-01 | 0.54649164E+02 |  102.347
 BASOPT|        4     |       1     | 0.62108890E-02 | 0.10993427E+02 |   55.115
 BASOPT|        5     |       1     | 0.10132787E-01 | 0.71178714E+02 |   64.268
 BASOPT| -----------------------------------------------------------------------
 BASOPT| Total residuum value: -.14981878E+04

 BASOPT| Information at iteration number:    4600
 BASOPT| Training set | Combination | Rho difference | Condition num. | Time
 BASOPT| -----------------------------------------------------------------------
 BASOPT|        1     |       1     | 0.11103631E-01 | 0.22413504E+02 |  149.137
 BASOPT|        2     |       1     | 0.11858769E-01 | 0.31669430E+02 |   59.166
 BASOPT|        3     |       1     | 0.13239316E-01 | 0.54644126E+02 |  104.632
 BASOPT|        4     |       1     | 0.61947484E-02 | 0.10958726E+02 |   56.346
 BASOPT|        5     |       1     | 0.10140965E-01 | 0.70963331E+02 |   65.700
 BASOPT| -----------------------------------------------------------------------
 BASOPT| Total residuum value: -.14981885E+04

 BASOPT| Information at iteration number:    4700
 BASOPT| Training set | Combination | Rho difference | Condition num. | Time
 BASOPT| -----------------------------------------------------------------------
 BASOPT|        1     |       1     | 0.11089243E-01 | 0.22517418E+02 |  152.387
 BASOPT|        2     |       1     | 0.11838579E-01 | 0.31633743E+02 |   60.460
 BASOPT|        3     |       1     | 0.13255766E-01 | 0.54626501E+02 |  106.920
 BASOPT|        4     |       1     | 0.61791670E-02 | 0.10894396E+02 |   57.578
 BASOPT|        5     |       1     | 0.10149170E-01 | 0.70656345E+02 |   67.130
 BASOPT| -----------------------------------------------------------------------
 BASOPT| Total residuum value: -.14981892E+04

 BASOPT| Information at iteration number:    4800
 BASOPT| Training set | Combination | Rho difference | Condition num. | Time
 BASOPT| -----------------------------------------------------------------------
 BASOPT|        1     |       1     | 0.11080454E-01 | 0.22494771E+02 |  155.637
 BASOPT|        2     |       1     | 0.11844546E-01 | 0.31649371E+02 |   61.753
 BASOPT|        3     |       1     | 0.13248976E-01 | 0.54585402E+02 |  109.209
 BASOPT|        4     |       1     | 0.61914969E-02 | 0.10855096E+02 |   58.810
 BASOPT|        5     |       1     | 0.10147057E-01 | 0.70642529E+02 |   68.558
 BASOPT| -----------------------------------------------------------------------
 BASOPT| Total residuum value: -.14981895E+04

 BASOPT| Information at iteration number:    4900
 BASOPT| Training set | Combination | Rho difference | Condition num. | Time
 BASOPT| -----------------------------------------------------------------------
 BASOPT|        1     |       1     | 0.11038816E-01 | 0.22555729E+02 |  158.891
 BASOPT|        2     |       1     | 0.11842297E-01 | 0.31649048E+02 |   63.047
 BASOPT|        3     |       1     | 0.13261093E-01 | 0.54694717E+02 |  111.498
 BASOPT|        4     |       1     | 0.61971837E-02 | 0.10813774E+02 |   60.041
 BASOPT|        5     |       1     | 0.10153250E-01 | 0.70590234E+02 |   69.986
 BASOPT| -----------------------------------------------------------------------
 BASOPT| Total residuum value: -.14981898E+04

 BASOPT| Information at iteration number:    5000
 BASOPT| Training set | Combination | Rho difference | Condition num. | Time
 BASOPT| -----------------------------------------------------------------------
 BASOPT|        1     |       1     | 0.11051811E-01 | 0.22543070E+02 |  162.146
 BASOPT|        2     |       1     | 0.11843187E-01 | 0.31651087E+02 |   64.341
 BASOPT|        3     |       1     | 0.13251959E-01 | 0.54536759E+02 |  113.784
 BASOPT|        4     |       1     | 0.62009162E-02 | 0.10749715E+02 |   61.273
 BASOPT|        5     |       1     | 0.10149260E-01 | 0.70392918E+02 |   71.417
 BASOPT| -----------------------------------------------------------------------
 BASOPT| Total residuum value: -.14981902E+04

 BASOPT| Information at iteration number:    5100
 BASOPT| Training set | Combination | Rho difference | Condition num. | Time
 BASOPT| -----------------------------------------------------------------------
 BASOPT|        1     |       1     | 0.11063492E-01 | 0.22548186E+02 |  165.403
 BASOPT|        2     |       1     | 0.11837825E-01 | 0.31642409E+02 |   65.637
 BASOPT|        3     |       1     | 0.13249934E-01 | 0.54456554E+02 |  116.070
 BASOPT|        4     |       1     | 0.61954463E-02 | 0.10723770E+02 |   62.505
 BASOPT|        5     |       1     | 0.10147551E-01 | 0.70256039E+02 |   72.850
 BASOPT| -----------------------------------------------------------------------
 BASOPT| Total residuum value: -.14981904E+04

 BASOPT| Information at iteration number:    5200
 BASOPT| Training set | Combination | Rho difference | Condition num. | Time
 BASOPT| -----------------------------------------------------------------------
 BASOPT|        1     |       1     | 0.11067983E-01 | 0.22541137E+02 |  168.655
 BASOPT|        2     |       1     | 0.11839465E-01 | 0.31654888E+02 |   66.932
 BASOPT|        3     |       1     | 0.13242585E-01 | 0.54346471E+02 |  118.355
 BASOPT|        4     |       1     | 0.62028048E-02 | 0.10648976E+02 |   63.738
 BASOPT|        5     |       1     | 0.10143838E-01 | 0.70076390E+02 |   74.282
 BASOPT| -----------------------------------------------------------------------
 BASOPT| Total residuum value: -.14981909E+04

 BASOPT| Information at iteration number:    5300
 BASOPT| Training set | Combination | Rho difference | Condition num. | Time
 BASOPT| -----------------------------------------------------------------------
 BASOPT|        1     |       1     | 0.11045818E-01 | 0.22636830E+02 |  171.910
 BASOPT|        2     |       1     | 0.11830791E-01 | 0.31641545E+02 |   68.227
 BASOPT|        3     |       1     | 0.13258057E-01 | 0.54426688E+02 |  120.639
 BASOPT|        4     |       1     | 0.61970737E-02 | 0.10622510E+02 |   64.970
 BASOPT|        5     |       1     | 0.10151111E-01 | 0.69958034E+02 |   75.713
 BASOPT| -----------------------------------------------------------------------
 BASOPT| Total residuum value: -.14981910E+04

 BASOPT| Information at iteration number:    5400
 BASOPT| Training set | Combination | Rho difference | Condition num. | Time
 BASOPT| -----------------------------------------------------------------------
 BASOPT|        1     |       1     | 0.11035463E-01 | 0.22740874E+02 |  175.164
 BASOPT|        2     |       1     | 0.11815549E-01 | 0.31613482E+02 |   69.523
 BASOPT|        3     |       1     | 0.13273794E-01 | 0.54444641E+02 |  122.928
 BASOPT|        4     |       1     | 0.61811807E-02 | 0.10578367E+02 |   66.204
 BASOPT|        5     |       1     | 0.10157633E-01 | 0.69709754E+02 |   77.145
 BASOPT| -----------------------------------------------------------------------
 BASOPT| Total residuum value: -.14981912E+04

 BASOPT| Information at iteration number:    5500
 BASOPT| Training set | Combination | Rho difference | Condition num. | Time
 BASOPT| -----------------------------------------------------------------------
 BASOPT|        1     |       1     | 0.11036474E-01 | 0.22692386E+02 |  178.418
 BASOPT|        2     |       1     | 0.11822769E-01 | 0.31634186E+02 |   70.820
 BASOPT|        3     |       1     | 0.13265557E-01 | 0.54432658E+02 |  125.215
 BASOPT|        4     |       1     | 0.61911140E-02 | 0.10574364E+02 |   67.437
 BASOPT|        5     |       1     | 0.10154186E-01 | 0.69789576E+02 |   78.576
 BASOPT| -----------------------------------------------------------------------
 BASOPT| Total residuum value: -.14981913E+04

 BASOPT| Information at iteration number:    5600
 BASOPT| Training set | Combination | Rho difference | Condition num. | Time
 BASOPT| -----------------------------------------------------------------------
 BASOPT|        1     |       1     | 0.11039060E-01 | 0.22603430E+02 |  181.672
 BASOPT|        2     |       1     | 0.11831208E-01 | 0.31668734E+02 |   72.117
 BASOPT|        3     |       1     | 0.13248989E-01 | 0.54388255E+02 |  127.502
 BASOPT|        4     |       1     | 0.62055336E-02 | 0.10559840E+02 |   68.670
 BASOPT|        5     |       1     | 0.10145990E-01 | 0.69893045E+02 |   80.008
 BASOPT| -----------------------------------------------------------------------
 BASOPT| Total residuum value: -.14981914E+04

 BASOPT| Information at iteration number:    5700
 BASOPT| Training set | Combination | Rho difference | Condition num. | Time
 BASOPT| -----------------------------------------------------------------------
 BASOPT|        1     |       1     | 0.11045469E-01 | 0.22651453E+02 |  184.928
 BASOPT|        2     |       1     | 0.11819604E-01 | 0.31652697E+02 |   73.414
 BASOPT|        3     |       1     | 0.13255323E-01 | 0.54366221E+02 |  129.790
 BASOPT|        4     |       1     | 0.61922529E-02 | 0.10541156E+02 |   69.904
 BASOPT|        5     |       1     | 0.10148367E-01 | 0.69748611E+02 |   81.441
 BASOPT| -----------------------------------------------------------------------
 BASOPT| Total residuum value: -.14981915E+04

 BASOPT| Information at iteration number:    5800
 BASOPT| Training set | Combination | Rho difference | Condition num. | Time
 BASOPT| -----------------------------------------------------------------------
 BASOPT|        1     |       1     | 0.11034687E-01 | 0.22680181E+02 |  188.182
 BASOPT|        2     |       1     | 0.11815424E-01 | 0.31649244E+02 |   74.711
 BASOPT|        3     |       1     | 0.13260987E-01 | 0.54403410E+02 |  132.077
 BASOPT|        4     |       1     | 0.61905912E-02 | 0.10519772E+02 |   71.137
 BASOPT|        5     |       1     | 0.10150279E-01 | 0.69696347E+02 |   82.872
 BASOPT| -----------------------------------------------------------------------
 BASOPT| Total residuum value: -.14981916E+04

 BASOPT| Information at iteration number:    5900
 BASOPT| Training set | Combination | Rho difference | Condition num. | Time
 BASOPT| -----------------------------------------------------------------------
 BASOPT|        1     |       1     | 0.11035906E-01 | 0.22670284E+02 |  191.437
 BASOPT|        2     |       1     | 0.11816720E-01 | 0.31654030E+02 |   76.008
 BASOPT|        3     |       1     | 0.13258479E-01 | 0.54381576E+02 |  134.368
 BASOPT|        4     |       1     | 0.61923650E-02 | 0.10512447E+02 |   72.371
 BASOPT|        5     |       1     | 0.10149157E-01 | 0.69688611E+02 |   84.304
 BASOPT| -----------------------------------------------------------------------
 BASOPT| Total residuum value: -.14981916E+04

 BASOPT| Information at iteration number:    6000
 BASOPT| Training set | Combination | Rho difference | Condition num. | Time
 BASOPT| -----------------------------------------------------------------------
 BASOPT|        1     |       1     | 0.11035386E-01 | 0.22701596E+02 |  194.693
 BASOPT|        2     |       1     | 0.11810460E-01 | 0.31649460E+02 |   77.305
 BASOPT|        3     |       1     | 0.13261462E-01 | 0.54360971E+02 |  136.655
 BASOPT|        4     |       1     | 0.61870087E-02 | 0.10487849E+02 |   73.606
 BASOPT|        5     |       1     | 0.10150140E-01 | 0.69583749E+02 |   85.736
 BASOPT| -----------------------------------------------------------------------
 BASOPT| Total residuum value: -.14981917E+04

 BASOPT| Information at iteration number:    6100
 BASOPT| Training set | Combination | Rho difference | Condition num. | Time
 BASOPT| -----------------------------------------------------------------------
 BASOPT|        1     |       1     | 0.11028603E-01 | 0.22724552E+02 |  197.949
 BASOPT|        2     |       1     | 0.11804157E-01 | 0.31650858E+02 |   78.603
 BASOPT|        3     |       1     | 0.13263233E-01 | 0.54360251E+02 |  138.940
 BASOPT|        4     |       1     | 0.61832876E-02 | 0.10469406E+02 |   74.842
 BASOPT|        5     |       1     | 0.10150347E-01 | 0.69523489E+02 |   87.168
 BASOPT| -----------------------------------------------------------------------
 BASOPT| Total residuum value: -.14981918E+04

 BASOPT| Information at iteration number:    6200
 BASOPT| Training set | Combination | Rho difference | Condition num. | Time
 BASOPT| -----------------------------------------------------------------------
 BASOPT|        1     |       1     | 0.11018483E-01 | 0.22746117E+02 |  201.204
 BASOPT|        2     |       1     | 0.11803958E-01 | 0.31658301E+02 |   79.902
 BASOPT|        3     |       1     | 0.13265729E-01 | 0.54374151E+02 |  141.226
 BASOPT|        4     |       1     | 0.61858017E-02 | 0.10452716E+02 |   76.078
 BASOPT|        5     |       1     | 0.10151914E-01 | 0.69503803E+02 |   88.600
 BASOPT| -----------------------------------------------------------------------
 BASOPT| Total residuum value: -.14981918E+04

 BASOPT| Information at iteration number:    6300
 BASOPT| Training set | Combination | Rho difference | Condition num. | Time
 BASOPT| -----------------------------------------------------------------------
 BASOPT|        1     |       1     | 0.11029096E-01 | 0.22752914E+02 |  204.460
 BASOPT|        2     |       1     | 0.11802707E-01 | 0.31658024E+02 |   81.200
 BASOPT|        3     |       1     | 0.13264936E-01 | 0.54338031E+02 |  143.514
 BASOPT|        4     |       1     | 0.61830039E-02 | 0.10444525E+02 |   77.314
 BASOPT|        5     |       1     | 0.10151673E-01 | 0.69460265E+02 |   90.033
 BASOPT| -----------------------------------------------------------------------
 BASOPT| Total residuum value: -.14981918E+04

 BASOPT| Information at iteration number:    6400
 BASOPT| Training set | Combination | Rho difference | Condition num. | Time
 BASOPT| -----------------------------------------------------------------------
 BASOPT|        1     |       1     | 0.11012970E-01 | 0.22787802E+02 |  207.716
 BASOPT|        2     |       1     | 0.11801800E-01 | 0.31663768E+02 |   82.499
 BASOPT|        3     |       1     | 0.13271168E-01 | 0.54385540E+02 |  145.795
 BASOPT|        4     |       1     | 0.61840812E-02 | 0.10428393E+02 |   78.549
 BASOPT|        5     |       1     | 0.10154936E-01 | 0.69437490E+02 |   91.464
 BASOPT| -----------------------------------------------------------------------
 BASOPT| Total residuum value: -.14981919E+04

 BASOPT| Information at iteration number:    6500
 BASOPT| Training set | Combination | Rho difference | Condition num. | Time
 BASOPT| -----------------------------------------------------------------------
 BASOPT|        1     |       1     | 0.11027629E-01 | 0.22783402E+02 |  210.971
 BASOPT|        2     |       1     | 0.11802308E-01 | 0.31663824E+02 |   83.798
 BASOPT|        3     |       1     | 0.13269447E-01 | 0.54329820E+02 |  148.076
 BASOPT|        4     |       1     | 0.61818592E-02 | 0.10419742E+02 |   79.785
 BASOPT|        5     |       1     | 0.10154216E-01 | 0.69382288E+02 |   92.897
 BASOPT| -----------------------------------------------------------------------
 BASOPT| Total residuum value: -.14981920E+04

 BASOPT| Information at iteration number:    6600
 BASOPT| Training set | Combination | Rho difference | Condition num. | Time
 BASOPT| -----------------------------------------------------------------------
 BASOPT|        1     |       1     | 0.11014371E-01 | 0.22787955E+02 |  214.226
 BASOPT|        2     |       1     | 0.11803322E-01 | 0.31672379E+02 |   85.097
 BASOPT|        3     |       1     | 0.13269471E-01 | 0.54341221E+02 |  150.359
 BASOPT|        4     |       1     | 0.61865162E-02 | 0.10409518E+02 |   81.021
 BASOPT|        5     |       1     | 0.10154098E-01 | 0.69382309E+02 |   94.328
 BASOPT| -----------------------------------------------------------------------
 BASOPT| Total residuum value: -.14981920E+04

 BASOPT| Information at iteration number:    6700
 BASOPT| Training set | Combination | Rho difference | Condition num. | Time
 BASOPT| -----------------------------------------------------------------------
 BASOPT|        1     |       1     | 0.11020129E-01 | 0.22798803E+02 |  217.480
 BASOPT|        2     |       1     | 0.11800868E-01 | 0.31673397E+02 |   86.396
 BASOPT|        3     |       1     | 0.13268127E-01 | 0.54298427E+02 |  152.641
 BASOPT|        4     |       1     | 0.61843162E-02 | 0.10395966E+02 |   82.258
 BASOPT|        5     |       1     | 0.10152963E-01 | 0.69318318E+02 |   95.761
 BASOPT| -----------------------------------------------------------------------
 BASOPT| Total residuum value: -.14981920E+04

 BASOPT| Information at iteration number:    6800
 BASOPT| Training set | Combination | Rho difference | Condition num. | Time
 BASOPT| -----------------------------------------------------------------------
 BASOPT|        1     |       1     | 0.11034523E-01 | 0.22827680E+02 |  220.735
 BASOPT|        2     |       1     | 0.11795553E-01 | 0.31672159E+02 |   87.695
 BASOPT|        3     |       1     | 0.13267044E-01 | 0.54196702E+02 |  154.925
 BASOPT|        4     |       1     | 0.61769693E-02 | 0.10371439E+02 |   83.495
 BASOPT|        5     |       1     | 0.10152477E-01 | 0.69163067E+02 |   97.194
 BASOPT| -----------------------------------------------------------------------
 BASOPT| Total residuum value: -.14981921E+04

 BASOPT| Information at iteration number:    6900
 BASOPT| Training set | Combination | Rho difference | Condition num. | Time
 BASOPT| -----------------------------------------------------------------------
 BASOPT|        1     |       1     | 0.11025293E-01 | 0.22812199E+02 |  223.991
 BASOPT|        2     |       1     | 0.11800902E-01 | 0.31686859E+02 |   88.995
 BASOPT|        3     |       1     | 0.13263968E-01 | 0.54201482E+02 |  157.208
 BASOPT|        4     |       1     | 0.61858974E-02 | 0.10365627E+02 |   84.733
 BASOPT|        5     |       1     | 0.10151202E-01 | 0.69207108E+02 |   98.628
 BASOPT| -----------------------------------------------------------------------
 BASOPT| Total residuum value: -.14981921E+04

 BASOPT| Information at iteration number:    7000
 BASOPT| Training set | Combination | Rho difference | Condition num. | Time
 BASOPT| -----------------------------------------------------------------------
 BASOPT|        1     |       1     | 0.11021852E-01 | 0.22834423E+02 |  227.247
 BASOPT|        2     |       1     | 0.11803328E-01 | 0.31709588E+02 |   90.296
 BASOPT|        3     |       1     | 0.13261758E-01 | 0.54143039E+02 |  159.490
 BASOPT|        4     |       1     | 0.61910851E-02 | 0.10333730E+02 |   85.970
 BASOPT|        5     |       1     | 0.10150779E-01 | 0.69129589E+02 |  100.060
 BASOPT| -----------------------------------------------------------------------
 BASOPT| Total residuum value: -.14981922E+04

 BASOPT| Information at iteration number:    7100
 BASOPT| Training set | Combination | Rho difference | Condition num. | Time
 BASOPT| -----------------------------------------------------------------------
 BASOPT|        1     |       1     | 0.11023807E-01 | 0.22845359E+02 |  230.504
 BASOPT|        2     |       1     | 0.11800002E-01 | 0.31708230E+02 |   91.596
 BASOPT|        3     |       1     | 0.13262714E-01 | 0.54141895E+02 |  161.773
 BASOPT|        4     |       1     | 0.61871736E-02 | 0.10327780E+02 |   87.204
 BASOPT|        5     |       1     | 0.10150791E-01 | 0.69089269E+02 |  101.492
 BASOPT| -----------------------------------------------------------------------
 BASOPT| Total residuum value: -.14981922E+04

 BASOPT| Information at iteration number:    7200
 BASOPT| Training set | Combination | Rho difference | Condition num. | Time
 BASOPT| -----------------------------------------------------------------------
 BASOPT|        1     |       1     | 0.11018925E-01 | 0.22877153E+02 |  233.760
 BASOPT|        2     |       1     | 0.11796307E-01 | 0.31704472E+02 |   92.896
 BASOPT|        3     |       1     | 0.13268516E-01 | 0.54162798E+02 |  164.057
 BASOPT|        4     |       1     | 0.61833493E-02 | 0.10319803E+02 |   88.437
 BASOPT|        5     |       1     | 0.10153228E-01 | 0.69034363E+02 |  102.924
 BASOPT| -----------------------------------------------------------------------
 BASOPT| Total residuum value: -.14981922E+04

 BASOPT| Information at iteration number:    7300
 BASOPT| Training set | Combination | Rho difference | Condition num. | Time
 BASOPT| -----------------------------------------------------------------------
 BASOPT|        1     |       1     | 0.11015609E-01 | 0.22887000E+02 |  237.017
 BASOPT|        2     |       1     | 0.11796900E-01 | 0.31708035E+02 |   94.197
 BASOPT|        3     |       1     | 0.13271328E-01 | 0.54169992E+02 |  166.341
 BASOPT|        4     |       1     | 0.61836311E-02 | 0.10313178E+02 |   89.674
 BASOPT|        5     |       1     | 0.10154489E-01 | 0.69016649E+02 |  104.357
 BASOPT| -----------------------------------------------------------------------
 BASOPT| Total residuum value: -.14981923E+04

 BASOPT| Information at iteration number:    7400
 BASOPT| Training set | Combination | Rho difference | Condition num. | Time
 BASOPT| -----------------------------------------------------------------------
 BASOPT|        1     |       1     | 0.11016511E-01 | 0.22870117E+02 |  240.272
 BASOPT|        2     |       1     | 0.11796510E-01 | 0.31721142E+02 |   95.501
 BASOPT|        3     |       1     | 0.13267879E-01 | 0.54108913E+02 |  168.625
 BASOPT|        4     |       1     | 0.61858520E-02 | 0.10300728E+02 |   90.911
 BASOPT|        5     |       1     | 0.10152835E-01 | 0.68981710E+02 |  105.791
 BASOPT| -----------------------------------------------------------------------
 BASOPT| Total residuum value: -.14981923E+04

 BASOPT| Information at iteration number:    7500
 BASOPT| Training set | Combination | Rho difference | Condition num. | Time
 BASOPT| -----------------------------------------------------------------------
 BASOPT|        1     |       1     | 0.11019148E-01 | 0.22861184E+02 |  243.527
 BASOPT|        2     |       1     | 0.11797632E-01 | 0.31726799E+02 |   96.804
 BASOPT|        3     |       1     | 0.13265259E-01 | 0.54062858E+02 |  170.909
 BASOPT|        4     |       1     | 0.61879016E-02 | 0.10294304E+02 |   92.149
 BASOPT|        5     |       1     | 0.10151743E-01 | 0.68951148E+02 |  107.227
 BASOPT| -----------------------------------------------------------------------
 BASOPT| Total residuum value: -.14981923E+04

 BASOPT| Information at iteration number:    7600
 BASOPT| Training set | Combination | Rho difference | Condition num. | Time
 BASOPT| -----------------------------------------------------------------------
 BASOPT|        1     |       1     | 0.11003753E-01 | 0.22889246E+02 |  246.784
 BASOPT|        2     |       1     | 0.11794753E-01 | 0.31728840E+02 |   98.107
 BASOPT|        3     |       1     | 0.13270324E-01 | 0.54068574E+02 |  173.192
 BASOPT|        4     |       1     | 0.61888383E-02 | 0.10282701E+02 |   93.386
 BASOPT|        5     |       1     | 0.10154102E-01 | 0.68899045E+02 |  108.661
 BASOPT| -----------------------------------------------------------------------
 BASOPT| Total residuum value: -.14981924E+04

 BASOPT| Information at iteration number:    7700
 BASOPT| Training set | Combination | Rho difference | Condition num. | Time
 BASOPT| -----------------------------------------------------------------------
 BASOPT|        1     |       1     | 0.11018894E-01 | 0.22899564E+02 |  250.038
 BASOPT|        2     |       1     | 0.11788886E-01 | 0.31725496E+02 |   99.408
 BASOPT|        3     |       1     | 0.13268723E-01 | 0.54001313E+02 |  175.474
 BASOPT|        4     |       1     | 0.61819483E-02 | 0.10274656E+02 |   94.623
 BASOPT|        5     |       1     | 0.10152813E-01 | 0.68813517E+02 |  110.095
 BASOPT| -----------------------------------------------------------------------
 BASOPT| Total residuum value: -.14981924E+04

 BASOPT| Information at iteration number:    7800
 BASOPT| Training set | Combination | Rho difference | Condition num. | Time
 BASOPT| -----------------------------------------------------------------------
 BASOPT|        1     |       1     | 0.11008042E-01 | 0.22872447E+02 |  253.293
 BASOPT|        2     |       1     | 0.11794491E-01 | 0.31751295E+02 |  100.711
 BASOPT|        3     |       1     | 0.13265537E-01 | 0.53979388E+02 |  177.757
 BASOPT|        4     |       1     | 0.61922327E-02 | 0.10265419E+02 |   95.861
 BASOPT|        5     |       1     | 0.10151641E-01 | 0.68860044E+02 |  111.527
 BASOPT| -----------------------------------------------------------------------
 BASOPT| Total residuum value: -.14981925E+04

 BASOPT| Information at iteration number:    7900
 BASOPT| Training set | Combination | Rho difference | Condition num. | Time
 BASOPT| -----------------------------------------------------------------------
 BASOPT|        1     |       1     | 0.11016850E-01 | 0.22855060E+02 |  256.551
 BASOPT|        2     |       1     | 0.11796563E-01 | 0.31757724E+02 |  102.012
 BASOPT|        3     |       1     | 0.13263061E-01 | 0.53924594E+02 |  180.040
 BASOPT|        4     |       1     | 0.61935242E-02 | 0.10260881E+02 |   97.099
 BASOPT|        5     |       1     | 0.10150894E-01 | 0.68846600E+02 |  112.961
 BASOPT| -----------------------------------------------------------------------
 BASOPT| Total residuum value: -.14981925E+04

 BASOPT| Information at iteration number:    8000
 BASOPT| Training set | Combination | Rho difference | Condition num. | Time
 BASOPT| -----------------------------------------------------------------------
 BASOPT|        1     |       1     | 0.11010564E-01 | 0.22842453E+02 |  259.812
 BASOPT|        2     |       1     | 0.11796423E-01 | 0.31766512E+02 |  103.314
 BASOPT|        3     |       1     | 0.13261433E-01 | 0.53900204E+02 |  182.322
 BASOPT|        4     |       1     | 0.61973396E-02 | 0.10254139E+02 |   98.337
 BASOPT|        5     |       1     | 0.10149606E-01 | 0.68851650E+02 |  114.395
 BASOPT| -----------------------------------------------------------------------
 BASOPT| Total residuum value: -.14981926E+04

 BASOPT| Information at iteration number:    8100
 BASOPT| Training set | Combination | Rho difference | Condition num. | Time
 BASOPT| -----------------------------------------------------------------------
 BASOPT|        1     |       1     | 0.11004591E-01 | 0.22916020E+02 |  263.076
 BASOPT|        2     |       1     | 0.11782548E-01 | 0.31748754E+02 |  104.615
 BASOPT|        3     |       1     | 0.13273542E-01 | 0.53890488E+02 |  184.605
 BASOPT|        4     |       1     | 0.61846443E-02 | 0.10237624E+02 |   99.574
 BASOPT|        5     |       1     | 0.10154585E-01 | 0.68685000E+02 |  115.828
 BASOPT| -----------------------------------------------------------------------
 BASOPT| Total residuum value: -.14981926E+04

 BASOPT| Information at iteration number:    8200
 BASOPT| Training set | Combination | Rho difference | Condition num. | Time
 BASOPT| -----------------------------------------------------------------------
 BASOPT|        1     |       1     | 0.10995521E-01 | 0.22919930E+02 |  266.343
 BASOPT|        2     |       1     | 0.11783763E-01 | 0.31757943E+02 |  105.918
 BASOPT|        3     |       1     | 0.13275051E-01 | 0.53853226E+02 |  186.889
 BASOPT|        4     |       1     | 0.61893882E-02 | 0.10226476E+02 |  100.811
 BASOPT|        5     |       1     | 0.10155935E-01 | 0.68653951E+02 |  117.262
 BASOPT| -----------------------------------------------------------------------
 BASOPT| Total residuum value: -.14981927E+04

 BASOPT| Information at iteration number:    8300
 BASOPT| Training set | Combination | Rho difference | Condition num. | Time
 BASOPT| -----------------------------------------------------------------------
 BASOPT|        1     |       1     | 0.10989432E-01 | 0.22902358E+02 |  269.609
 BASOPT|        2     |       1     | 0.11784000E-01 | 0.31766643E+02 |  107.221
 BASOPT|        3     |       1     | 0.13271718E-01 | 0.53801127E+02 |  189.173
 BASOPT|        4     |       1     | 0.61944647E-02 | 0.10219031E+02 |  102.049
 BASOPT|        5     |       1     | 0.10154039E-01 | 0.68640084E+02 |  118.695
 BASOPT| -----------------------------------------------------------------------
 BASOPT| Total residuum value: -.14981927E+04

 BASOPT| Information at iteration number:    8400
 BASOPT| Training set | Combination | Rho difference | Condition num. | Time
 BASOPT| -----------------------------------------------------------------------
 BASOPT|        1     |       1     | 0.11000644E-01 | 0.22876805E+02 |  272.874
 BASOPT|        2     |       1     | 0.11781995E-01 | 0.31767285E+02 |  108.523
 BASOPT|        3     |       1     | 0.13266556E-01 | 0.53720774E+02 |  191.456
 BASOPT|        4     |       1     | 0.61929081E-02 | 0.10217080E+02 |  103.287
 BASOPT|        5     |       1     | 0.10151417E-01 | 0.68605865E+02 |  120.128
 BASOPT| -----------------------------------------------------------------------
 BASOPT| Total residuum value: -.14981928E+04

 BASOPT| Information at iteration number:    8500
 BASOPT| Training set | Combination | Rho difference | Condition num. | Time
 BASOPT| -----------------------------------------------------------------------
 BASOPT|        1     |       1     | 0.10987136E-01 | 0.22861672E+02 |  276.138
 BASOPT|        2     |       1     | 0.11782889E-01 | 0.31773377E+02 |  109.826
 BASOPT|        3     |       1     | 0.13268027E-01 | 0.53711336E+02 |  193.740
 BASOPT|        4     |       1     | 0.61981636E-02 | 0.10216443E+02 |  104.526
 BASOPT|        5     |       1     | 0.10152246E-01 | 0.68624393E+02 |  121.562
 BASOPT| -----------------------------------------------------------------------
 BASOPT| Total residuum value: -.14981928E+04

 BASOPT| Information at iteration number:    8600
 BASOPT| Training set | Combination | Rho difference | Condition num. | Time
 BASOPT| -----------------------------------------------------------------------
 BASOPT|        1     |       1     | 0.10987366E-01 | 0.22881257E+02 |  279.403
 BASOPT|        2     |       1     | 0.11774291E-01 | 0.31761271E+02 |  111.128
 BASOPT|        3     |       1     | 0.13274265E-01 | 0.53670541E+02 |  196.026
 BASOPT|        4     |       1     | 0.61893605E-02 | 0.10210556E+02 |  105.764
 BASOPT|        5     |       1     | 0.10155102E-01 | 0.68523887E+02 |  122.998
 BASOPT| -----------------------------------------------------------------------
 BASOPT| Total residuum value: -.14981929E+04

 BASOPT| Information at iteration number:    8700
 BASOPT| Training set | Combination | Rho difference | Condition num. | Time
 BASOPT| -----------------------------------------------------------------------
 BASOPT|        1     |       1     | 0.10980116E-01 | 0.22858309E+02 |  282.667
 BASOPT|        2     |       1     | 0.11769316E-01 | 0.31757453E+02 |  112.431
 BASOPT|        3     |       1     | 0.13276826E-01 | 0.53659791E+02 |  198.310
 BASOPT|        4     |       1     | 0.61867111E-02 | 0.10211989E+02 |  107.002
 BASOPT|        5     |       1     | 0.10155455E-01 | 0.68516975E+02 |  124.437
 BASOPT| -----------------------------------------------------------------------
 BASOPT| Total residuum value: -.14981929E+04

 BASOPT| Information at iteration number:    8800
 BASOPT| Training set | Combination | Rho difference | Condition num. | Time
 BASOPT| -----------------------------------------------------------------------
 BASOPT|        1     |       1     | 0.10992211E-01 | 0.22833005E+02 |  285.933
 BASOPT|        2     |       1     | 0.11769875E-01 | 0.31757250E+02 |  113.735
 BASOPT|        3     |       1     | 0.13273821E-01 | 0.53603990E+02 |  200.597
 BASOPT|        4     |       1     | 0.61859942E-02 | 0.10213738E+02 |  108.241
 BASOPT|        5     |       1     | 0.10154384E-01 | 0.68505550E+02 |  125.877
 BASOPT| -----------------------------------------------------------------------
 BASOPT| Total residuum value: -.14981930E+04

 BASOPT| Information at iteration number:    8900
 BASOPT| Training set | Combination | Rho difference | Condition num. | Time
 BASOPT| -----------------------------------------------------------------------
 BASOPT|        1     |       1     | 0.10995556E-01 | 0.22776833E+02 |  289.199
 BASOPT|        2     |       1     | 0.11773610E-01 | 0.31769648E+02 |  115.038
 BASOPT|        3     |       1     | 0.13265615E-01 | 0.53546733E+02 |  202.883
 BASOPT|        4     |       1     | 0.61933775E-02 | 0.10214845E+02 |  109.479
 BASOPT|        5     |       1     | 0.10150259E-01 | 0.68556346E+02 |  127.319
 BASOPT| -----------------------------------------------------------------------
 BASOPT| Total residuum value: -.14981930E+04

 BASOPT| Information at iteration number:    9000
 BASOPT| Training set | Combination | Rho difference | Condition num. | Time
 BASOPT| -----------------------------------------------------------------------
 BASOPT|        1     |       1     | 0.10987509E-01 | 0.22772122E+02 |  292.467
 BASOPT|        2     |       1     | 0.11770713E-01 | 0.31769678E+02 |  116.343
 BASOPT|        3     |       1     | 0.13267174E-01 | 0.53536514E+02 |  205.168
 BASOPT|        4     |       1     | 0.61935113E-02 | 0.10213244E+02 |  110.718
 BASOPT|        5     |       1     | 0.10150795E-01 | 0.68544241E+02 |  128.760
 BASOPT| -----------------------------------------------------------------------
 BASOPT| Total residuum value: -.14981931E+04

 BASOPT| Information at iteration number:    9100
 BASOPT| Training set | Combination | Rho difference | Condition num. | Time
 BASOPT| -----------------------------------------------------------------------
 BASOPT|        1     |       1     | 0.10978853E-01 | 0.22783981E+02 |  295.735
 BASOPT|        2     |       1     | 0.11768510E-01 | 0.31768319E+02 |  117.648
 BASOPT|        3     |       1     | 0.13272623E-01 | 0.53534282E+02 |  207.455
 BASOPT|        4     |       1     | 0.61935475E-02 | 0.10208725E+02 |  111.957
 BASOPT|        5     |       1     | 0.10153486E-01 | 0.68506170E+02 |  130.200
 BASOPT| -----------------------------------------------------------------------
 BASOPT| Total residuum value: -.14981931E+04

 BASOPT| Information at iteration number:    9200
 BASOPT| Training set | Combination | Rho difference | Condition num. | Time
 BASOPT| -----------------------------------------------------------------------
 BASOPT|        1     |       1     | 0.10981216E-01 | 0.22781668E+02 |  299.001
 BASOPT|        2     |       1     | 0.11768602E-01 | 0.31769390E+02 |  118.954
 BASOPT|        3     |       1     | 0.13272431E-01 | 0.53520422E+02 |  209.740
 BASOPT|        4     |       1     | 0.61938833E-02 | 0.10206671E+02 |  113.197
 BASOPT|        5     |       1     | 0.10153218E-01 | 0.68493304E+02 |  131.642
 BASOPT| -----------------------------------------------------------------------
 BASOPT| Total residuum value: -.14981931E+04

 BASOPT| Information at iteration number:    9300
 BASOPT| Training set | Combination | Rho difference | Condition num. | Time
 BASOPT| -----------------------------------------------------------------------
 BASOPT|        1     |       1     | 0.10982020E-01 | 0.22759430E+02 |  302.266
 BASOPT|        2     |       1     | 0.11772757E-01 | 0.31773309E+02 |  120.260
 BASOPT|        3     |       1     | 0.13271818E-01 | 0.53514759E+02 |  212.026
 BASOPT|        4     |       1     | 0.61976945E-02 | 0.10207112E+02 |  114.437
 BASOPT|        5     |       1     | 0.10153156E-01 | 0.68521618E+02 |  133.084
 BASOPT| -----------------------------------------------------------------------
 BASOPT| Total residuum value: -.14981932E+04

 BASOPT| Information at iteration number:    9400
 BASOPT| Training set | Combination | Rho difference | Condition num. | Time
 BASOPT| -----------------------------------------------------------------------
 BASOPT|        1     |       1     | 0.10979322E-01 | 0.22720542E+02 |  305.534
 BASOPT|        2     |       1     | 0.11771877E-01 | 0.31772029E+02 |  121.567
 BASOPT|        3     |       1     | 0.13271699E-01 | 0.53475410E+02 |  214.312
 BASOPT|        4     |       1     | 0.61980460E-02 | 0.10204521E+02 |  115.677
 BASOPT|        5     |       1     | 0.10152483E-01 | 0.68507293E+02 |  134.524
 BASOPT| -----------------------------------------------------------------------
 BASOPT| Total residuum value: -.14981932E+04

 BASOPT| Information at iteration number:    9500
 BASOPT| Training set | Combination | Rho difference | Condition num. | Time
 BASOPT| -----------------------------------------------------------------------
 BASOPT|        1     |       1     | 0.10975846E-01 | 0.22719111E+02 |  308.800
 BASOPT|        2     |       1     | 0.11769000E-01 | 0.31769674E+02 |  122.873
 BASOPT|        3     |       1     | 0.13272572E-01 | 0.53454053E+02 |  216.599
 BASOPT|        4     |       1     | 0.61959731E-02 | 0.10203524E+02 |  116.916
 BASOPT|        5     |       1     | 0.10152684E-01 | 0.68468083E+02 |  135.963
 BASOPT| -----------------------------------------------------------------------
 BASOPT| Total residuum value: -.14981933E+04

 BASOPT| Information at iteration number:    9600
 BASOPT| Training set | Combination | Rho difference | Condition num. | Time
 BASOPT| -----------------------------------------------------------------------
 BASOPT|        1     |       1     | 0.10989413E-01 | 0.22657914E+02 |  312.069
 BASOPT|        2     |       1     | 0.11769921E-01 | 0.31774354E+02 |  124.179
 BASOPT|        3     |       1     | 0.13265861E-01 | 0.53327210E+02 |  218.887
 BASOPT|        4     |       1     | 0.61956611E-02 | 0.10203922E+02 |  118.156
 BASOPT|        5     |       1     | 0.10149704E-01 | 0.68409334E+02 |  137.405
 BASOPT| -----------------------------------------------------------------------
 BASOPT| Total residuum value: -.14981933E+04

 BASOPT| Information at iteration number:    9700
 BASOPT| Training set | Combination | Rho difference | Condition num. | Time
 BASOPT| -----------------------------------------------------------------------
 BASOPT|        1     |       1     | 0.10990388E-01 | 0.22638716E+02 |  315.335
 BASOPT|        2     |       1     | 0.11770316E-01 | 0.31774554E+02 |  125.487
 BASOPT|        3     |       1     | 0.13265622E-01 | 0.53286871E+02 |  221.179
 BASOPT|        4     |       1     | 0.61958312E-02 | 0.10200060E+02 |  119.396
 BASOPT|        5     |       1     | 0.10149222E-01 | 0.68372946E+02 |  138.847
 BASOPT| -----------------------------------------------------------------------
[...]
 BASOPT| -----------------------------------------------------------------------
 BASOPT|        1     |       1     | 0.10733003E-01 | 0.21917747E+02 | 1615.433
 BASOPT|        2     |       1     | 0.11603619E-01 | 0.31529303E+02 |  650.708
 BASOPT|        3     |       1     | 0.13299837E-01 | 0.47150051E+02 | 1141.284
 BASOPT|        4     |       1     | 0.61992964E-02 | 0.91333895E+01 |  617.808
 BASOPT|        5     |       1     | 0.10162017E-01 | 0.65275228E+02 |  716.898
 BASOPT| -----------------------------------------------------------------------
 BASOPT| Total residuum value: -.14982053E+04

 BASOPT| Information at iteration number:   49600
 BASOPT| Training set | Combination | Rho difference | Condition num. | Time
 BASOPT| -----------------------------------------------------------------------
 BASOPT|        1     |       1     | 0.10731716E-01 | 0.21919353E+02 | 1618.708
 BASOPT|        2     |       1     | 0.11603344E-01 | 0.31526697E+02 |  652.029
 BASOPT|        3     |       1     | 0.13300213E-01 | 0.47153689E+02 | 1143.599
 BASOPT|        4     |       1     | 0.61993534E-02 | 0.91332062E+01 |  619.069
 BASOPT|        5     |       1     | 0.10162160E-01 | 0.65275797E+02 |  718.361
 BASOPT| -----------------------------------------------------------------------
 BASOPT| Total residuum value: -.14982053E+04

 BASOPT| Information at iteration number:   49700
 BASOPT| Training set | Combination | Rho difference | Condition num. | Time
 BASOPT| -----------------------------------------------------------------------
 BASOPT|        1     |       1     | 0.10729931E-01 | 0.21928883E+02 | 1621.983
 BASOPT|        2     |       1     | 0.11602544E-01 | 0.31521917E+02 |  653.352
 BASOPT|        3     |       1     | 0.13302087E-01 | 0.47161443E+02 | 1145.916
 BASOPT|        4     |       1     | 0.61984566E-02 | 0.91322161E+01 |  620.327
 BASOPT|        5     |       1     | 0.10163052E-01 | 0.65264359E+02 |  719.816
 BASOPT| -----------------------------------------------------------------------
 BASOPT| Total residuum value: -.14982053E+04

 BASOPT| Information at iteration number:   49800
 BASOPT| Training set | Combination | Rho difference | Condition num. | Time
 BASOPT| -----------------------------------------------------------------------
 BASOPT|        1     |       1     | 0.10730580E-01 | 0.21926603E+02 | 1625.258
 BASOPT|        2     |       1     | 0.11602919E-01 | 0.31518888E+02 |  654.676
 BASOPT|        3     |       1     | 0.13301332E-01 | 0.47153687E+02 | 1148.231
 BASOPT|        4     |       1     | 0.61991079E-02 | 0.91319981E+01 |  621.586
 BASOPT|        5     |       1     | 0.10162725E-01 | 0.65263777E+02 |  721.275
 BASOPT| -----------------------------------------------------------------------
 BASOPT| Total residuum value: -.14982053E+04

 BASOPT| Information at iteration number:   49900
 BASOPT| Training set | Combination | Rho difference | Condition num. | Time
 BASOPT| -----------------------------------------------------------------------
 BASOPT|        1     |       1     | 0.10730923E-01 | 0.21926343E+02 | 1628.531
 BASOPT|        2     |       1     | 0.11602875E-01 | 0.31515410E+02 |  655.998
 BASOPT|        3     |       1     | 0.13301162E-01 | 0.47149952E+02 | 1150.545
 BASOPT|        4     |       1     | 0.61992346E-02 | 0.91316682E+01 |  622.846
 BASOPT|        5     |       1     | 0.10162643E-01 | 0.65261619E+02 |  722.730
 BASOPT| -----------------------------------------------------------------------
 BASOPT| Total residuum value: -.14982053E+04

 BASOPT| Information at iteration number:   50000
 BASOPT| Training set | Combination | Rho difference | Condition num. | Time
 BASOPT| -----------------------------------------------------------------------
 BASOPT|        1     |       1     | 0.10730951E-01 | 0.21925275E+02 | 1631.811
 BASOPT|        2     |       1     | 0.11602996E-01 | 0.31513131E+02 |  657.321
 BASOPT|        3     |       1     | 0.13300858E-01 | 0.47150829E+02 | 1152.859
 BASOPT|        4     |       1     | 0.61995046E-02 | 0.91316651E+01 |  624.106
 BASOPT|        5     |       1     | 0.10162385E-01 | 0.65265167E+02 |  724.187
 BASOPT| -----------------------------------------------------------------------
 BASOPT| Total residuum value: -.14982053E+04


 -------------------------------------------------------------------------------
 -                                                                             -
 -                                DBCSR STATISTICS                             -
 -                                                                             -
 -------------------------------------------------------------------------------
 COUNTER                                    TOTAL       BLAS       SMM       ACC
 flops    52 x    52 x     8                43264       0.0%    100.0%      0.0%
 flops    52 x    52 x     9                48672       0.0%    100.0%      0.0%
 flops   112 x    68 x     6                91392       0.0%    100.0%      0.0%
 flops    68 x   112 x     6                91392       0.0%    100.0%      0.0%
 flops    52 x   112 x     8                93184       0.0%    100.0%      0.0%
 flops    52 x   112 x     9               104832       0.0%    100.0%      0.0%
 flops   112 x    52 x    12               139776       0.0%    100.0%      0.0%
 flops    52 x   112 x    12               139776       0.0%    100.0%      0.0%
 flops   112 x   112 x     6               150528       0.0%    100.0%      0.0%
 flops    68 x    68 x     6               166464       0.0%    100.0%      0.0%
 flops    52 x    52 x    12               194688       0.0%    100.0%      0.0%
 flops   112 x   112 x     8               200704       0.0%    100.0%      0.0%
 flops   112 x   112 x     9               225792       0.0%    100.0%      0.0%
 flops   116 x   112 x    12               311808       0.0%    100.0%      0.0%
 flops   112 x   116 x    12               311808       0.0%    100.0%      0.0%
 flops   112 x   112 x    12               602112       0.0%    100.0%      0.0%
 flops   116 x   116 x    12               968832       0.0%    100.0%      0.0%
 flops   112 x   112 x    20              5017600       0.0%    100.0%      0.0%
 flops inhomo. stacks                           0       0.0%      0.0%      0.0%
 flops total                         8.902624E+06       0.0%    100.0%      0.0%
 flops max/rank                      1.003520E+06       0.0%    100.0%      0.0%
 matmuls inhomo. stacks                         0       0.0%      0.0%      0.0%
 matmuls total                                 34       0.0%    100.0%      0.0%
 number of processed stacks                    29       0.0%    100.0%      0.0%
 average stack size                                     0.0       1.2       0.0
 marketing flops                    13.640480E+06
 -------------------------------------------------------------------------------
 # multiplications                              1
 max memory usage/rank             399.134720E+06
 # max total images/rank                        2
 # max 3D layers                                1
 # MPI messages exchanged                     250
 MPI messages size (bytes):
  total size                       814.528000E+03
  min size                           0.000000E+00
  max size                          35.840000E+03
  average size                       3.258112E+03
 MPI breakdown and total messages size (bytes):
             size <=      128                 210                        0
       128 < size <=     8192                   0                        0
      8192 < size <=    32768                  28                   401344
     32768 < size <=   131072                  12                   413184
    131072 < size <=  4194304                   0                        0
   4194304 < size <= 16777216                   0                        0
  16777216 < size                               0                        0
 -------------------------------------------------------------------------------

 *** WARNING in dbcsr_mm.F:297 :: Using a non-square number of MPI ranks ***
 *** might lead to poor performance. Used ranks: 8 Suggested: 9 16       ***

 -------------------------------------------------------------------------------
 -                                                                             -
 -                      DBCSR MESSAGE PASSING PERFORMANCE                      -
 -                                                                             -
 -------------------------------------------------------------------------------
 ROUTINE             CALLS      AVE VOLUME [Bytes]
 MP_Bcast               19                     12.
 MP_Allreduce           62                     22.
 MP_Alltoall       3000081                  20073.
 MP_ISend               16                   4530.
 MP_IRecv               14                     53.
 -------------------------------------------------------------------------------

 -------------------------------------------------------------------------------
 -                                                                             -
 -                                GRID STATISTICS                              -
 -                                                                             -
 -------------------------------------------------------------------------------
 LP    KERNEL    OPERATION                                     COUNT     PERCENT
 0     general   collocate                                       109       0.85%
 0     ortho     integrate                                       179       1.40%
 0     ortho     collocate                                       179       1.40%
 1     ortho     integrate                                       148       1.16%
 1     ortho     collocate                                       148       1.16%
 2     ortho     integrate                                      2216      17.30%
 2     ortho     collocate                                      2216      17.30%
 3     ortho     integrate                                       742       5.79%
 3     ortho     collocate                                       742       5.79%
 4     ortho     integrate                                      2043      15.95%
 4     ortho     collocate                                      2043      15.95%
 5     ortho     integrate                                       342       2.67%
 5     ortho     collocate                                       342       2.67%
 6     ortho     integrate                                       588       4.59%
 6     ortho     collocate                                       588       4.59%
 7     ortho     integrate                                        46       0.36%
 7     ortho     collocate                                        46       0.36%
 8     ortho     integrate                                        45       0.35%
 8     ortho     collocate                                        45       0.35%
 -------------------------------------------------------------------------------

 MEMORY| Estimated peak process memory [MiB]                                 867

 -------------------------------------------------------------------------------
 -                                                                             -
 -                         MESSAGE PASSING PERFORMANCE                         -
 -                                                                             -
 -------------------------------------------------------------------------------

 ROUTINE             CALLS      AVE VOLUME [Bytes]
 MP_Bcast           150040                    989.
 MP_Allreduce       650142                     44.
 MP_Sync            150003
 MP_Alltoall            45               16136580.
 MP_ISendRecv           42                 529536.
 MP_Wait                87
 MP_comm_split      100003
 MP_ISend               36                1807200.
 MP_IRecv               36                1821600.
 -------------------------------------------------------------------------------


 -------------------------------------------------------------------------------
 -                                                                             -
 -                           R E F E R E N C E S                               -
 -                                                                             -
 -------------------------------------------------------------------------------
 
 CP2K version 8.0 (Development Version), the CP2K developers group (2020).
 CP2K is freely available from https://www.cp2k.org/ .

 Kuehne,Thomas D.; Iannuzzi,Marcella; Del Ben,Mauro;
 Rybkin,Vladimir V.; Seewald,Patrick; Stein,Frederick; Laino,Teodoro;
 Khaliullin,Rustam Z.; Schuett,Ole; Schiffmann,Florian; Golze,Dorothea;
 Wilhelm,Jan; Chulkov,Sergey; Bani-Hashemian,Mohammad Hossein;
 Weber,Valery; Borstnik,Urban; Taillefumier,Mathieu;
 Jakobovits,Alice Shoshana; Lazzaro,Alfio; Pabst,Hans; Mueller,Tiziano;
 Schade,Robert; Guidon,Manuel; Andermatt,Samuel; Holmberg,Nico;
 Schenter,Gregory K.; Hehn,Anna; Bussy,Augustin; Belleflamme,Fabian;
 Tabacchi,Gloria; Gloess,Andreas; Lass,Michael; Bethune,Iain;
 Mundy,Christopher J.; Plessl,Christian; Watkins,Matt;
 VandeVondele,Joost; Krack,Matthias; Hutter,Juerg. 
 The Journal of Chemical Physics, 152 (19), (2020). 
 CP2K: An electronic structure and molecular dynamics software package -
 Quickstep: Efficient and accurate electronic structure calculations.
 https://doi.org/10.1063/5.0007045

 Schuett, Ole; Messmer, Peter; Hutter, Juerg; VandeVondele, Joost. 
 Electronic Structure Calculations on Graphics Processing Units, John
 Wiley & Sons, Ltd, 173-190 (2016). 
 GPU-Accelerated Sparse Matrix-Matrix Multiplication for
 Linear Scaling Density Functional Theory.
 https://doi.org/10.1002/9781118670712.ch8

 Borstnik, U; VandeVondele, J; Weber, V; Hutter, J. 
 PARALLEL COMPUTING, 40 (5-6), 47-58 (2014). 
 Sparse matrix multiplication: The distributed block-compressed sparse
 row library.
 https://doi.org/10.1016/j.parco.2014.03.012

 Hutter, J; Iannuzzi, M; Schiffmann, F; VandeVondele, J. 
 WIREs Comput Mol Sci., 4 (1), 15-25 (2014). 
 CP2K: atomistic simulations of condensed matter systems.
 https://doi.org/10.1002/wcms.1159

 Marek, A; Blum, V; Johanni, R; Havu, V; Lang, B; Auckenthaler, T;
 Heinecke, A; Bungartz, H; Lederer, H. 
 Journal of Physics: Condensed Matter, 26 (21), (2014). 
 The ELPA library: scalable parallel eigenvalue solutions for
 electronic structure
 theory and computational science.
 https://doi.org/10.1088/0953-8984/26/21/213201

 Guidon, M; Hutter, J; VandeVondele, J. 
 JOURNAL OF CHEMICAL THEORY AND COMPUTATION, 6 (8), 2348-2364 (2010). 
 Auxiliary Density Matrix Methods for Hartree-Fock Exchange Calculations.
 https://doi.org/10.1021/ct1002225

 VandeVondele, J; Hutter, J. 
 JOURNAL OF CHEMICAL PHYSICS, 127 (11), 114105 (2007). 
 Gaussian basis sets for accurate calculations on molecular systems in
 gas and condensed phases.
 https://doi.org/10.1063/1.2770708

 Krack, M. 
 THEORETICAL CHEMISTRY ACCOUNTS, 114 (1-3), 145-152 (2005). 
 Pseudopotentials for H to Kr optimized for gradient-corrected
 exchange-correlation functionals.
 https://doi.org/10.1007/s00214-005-0655-y

 VandeVondele, J; Krack, M; Mohamed, F; Parrinello, M; Chassaing, T;
 Hutter, J. COMPUTER PHYSICS COMMUNICATIONS, 167 (2), 103-128 (2005). 
 QUICKSTEP: Fast and accurate density functional calculations using a
 mixed Gaussian and plane waves approach.
 https://doi.org/10.1016/j.cpc.2004.12.014

 Frigo, M; Johnson, SG. 
 PROCEEDINGS OF THE IEEE, 93 (2), 216-231 (2005). 
 The design and implementation of FFTW3.
 https://doi.org/10.1109/JPROC.2004.840301

 Martyna, GJ; Tuckerman, ME. 
 JOURNAL OF CHEMICAL PHYSICS, 110 (6), 2810-2821 (1999). 
 A reciprocal space based method for treating long range interactions in
 ab initio and force-field-based calculations in clusters.
 https://doi.org/10.1063/1.477923

 Hartwigsen, C; Goedecker, S; Hutter, J. 
 PHYSICAL REVIEW B, 58 (7), 3641-3662 (1998). 
 Relativistic separable dual-space Gaussian pseudopotentials from H to Rn.
 https://doi.org/10.1103/PhysRevB.58.3641

 Lippert, G; Hutter, J; Parrinello, M. 
 MOLECULAR PHYSICS, 92 (3), 477-487 (1997). 
 A hybrid Gaussian and plane wave density functional scheme.
 https://doi.org/10.1080/002689797170220

 Perdew, JP; Burke, K; Ernzerhof, M. 
 PHYSICAL REVIEW LETTERS, 77 (18), 3865-3868 (1996). 
 Generalized gradient approximation made simple.
 https://doi.org/10.1103/PhysRevLett.77.3865

 Goedecker, S; Teter, M; Hutter, J. 
 PHYSICAL REVIEW B, 54 (3), 1703-1710 (1996). 
 Separable dual-space Gaussian pseudopotentials.
 https://doi.org/10.1103/PhysRevB.54.1703


 -------------------------------------------------------------------------------
 -                                                                             -
 -                                T I M I N G                                  -
 -                                                                             -
 -------------------------------------------------------------------------------
 SUBROUTINE                       CALLS  ASD         SELF TIME        TOTAL TIME
                                MAXIMUM       AVERAGE  MAXIMUM  AVERAGE  MAXIMUM
 CP2K                                 1  1.0    0.002    0.004 1651.733 1651.759
 run_optimize_basis                   1  2.0    0.003    0.004 1651.723 1651.750
 driver_para_opt_basis                1  3.0    0.000    0.000 1651.711 1651.738
 driver_optimization_para_low         1  4.0    0.240    0.429 1651.710 1651.737
 compute_residuum_vectors         50001  5.0    2.219    2.778 1636.383 1636.768
 cp_gemm                        1050021  7.2    0.871    1.476  588.511 1245.420
 cp_gemm_fm_gemm                1050021  8.2    0.565    0.928  587.640 1244.594
 cp_fm_gemm                     1050021  9.2  587.074 1244.072  587.074 1244.072
 mp_sum_dv                       250006  5.8  659.274 1012.123  659.274 1012.123
 admm_fit_mo_coeffs               50001  6.0    0.095    0.130  443.790  748.778
 fit_mo_coeffs                    50001  7.0    0.405    0.464  255.233  422.579
 purify_mo_diag                   50001  7.0    0.596    1.108  188.462  330.144
 copy_dbcsr_to_fm                300007  6.8    2.335    2.735  142.498  196.179
 cp_fm_syevd                     150003  7.1    0.265    0.463  128.290  194.482
 cp_fm_redistribute_end          150003  8.1   46.292  118.306   47.770  119.816
 cp_fm_syevd_base                150003  8.1   48.257   97.608   48.257   97.608
 cp_fm_redistribute_start        150003  8.1   19.658   30.094   31.998   97.065
 dbcsr_complete_redistribute     300009  7.8   10.826   16.004   82.548   95.405
 dbcsr_desymmetrize_deep         300007  7.8    4.144    6.617   49.336   94.692
 mp_comm_split                   150004  9.1   11.150   80.912   11.203   80.960
 mp_alltoall_i22                 600016  8.8   23.314   65.046   23.314   65.046
 cp_fm_upper_to_full             200006  7.3   33.176   52.610   33.176   52.610
 mp_alltoall_d11v               1800052  9.3   34.514   50.000   34.514   50.000
 cp_fm_cholesky_invert            50002  8.0   30.614   38.815   30.614   38.815
 -------------------------------------------------------------------------------

 The number of warnings for this run is : 1
 
 -------------------------------------------------------------------------------
  **** **** ******  **  PROGRAM ENDED AT                 2020-12-07 16:29:10.070
 ***** ** ***  *** **   PROGRAM RAN ON                                   tcopt10
 **    ****   ******    PROGRAM RAN BY                                    hutter
 ***** **    ** ** **   PROGRAM PROCESS ID                                 73551
  **** **  *******  **  PROGRAM STOPPED IN /data/hutter/GITHUB/BASIS/MOLOPT/PBE0
                                           /Mg
