 DBCSR| CPU Multiplication driver                                           XSMM
 DBCSR| Multrec recursion limit                                              512
 DBCSR| Multiplication stack size                                           1000
 DBCSR| Maximum elements for images                                    UNLIMITED
 DBCSR| Multiplicative factor virtual images                                   1
 DBCSR| Use multiplication densification                                       T
 DBCSR| Multiplication size stacks                                             3
 DBCSR| Use memory pool for CPU allocation                                     F
 DBCSR| Number of 3D layers                                               SINGLE
 DBCSR| Use MPI memory allocation                                              F
 DBCSR| Use RMA algorithm                                                      F
 DBCSR| Use Communication thread                                               T
 DBCSR| Communication thread load                                             87
 DBCSR| MPI: My node id                                                        0
 DBCSR| MPI: Number of nodes                                                  48
 DBCSR| OMP: Current number of threads                                         1
 DBCSR| OMP: Max number of threads                                             1
 DBCSR| Split modifier for TAS multiplication algorithm                  1.0E+00


  **** **** ******  **  PROGRAM STARTED AT               2022-05-13 23:24:09.904
 ***** ** ***  *** **   PROGRAM STARTED ON                               tcopt10
 **    ****   ******    PROGRAM STARTED BY                                hutter
 ***** **    ** ** **   PROGRAM PROCESS ID                                 47602
  **** **  *******  **  PROGRAM STARTED IN /data/hutter/GITHUB/BASIS/scMOLOPT/PB
                                           E/Zn

 CP2K| version string:                   CP2K version 10.0 (Development Version)
 CP2K| source code revision number:                                  git:13fcfd8
 CP2K| cp2kflags: omp libint fftw3 libxc elpa parallel mpi3 scalapack cosma xsmm
 CP2K|             spglib sirius libvori libbqb
 CP2K| is freely available from                            https://www.cp2k.org/
 CP2K| Program compiled at                      Tue 10 May 2022 02:27:21 PM CEST
 CP2K| Program compiled on                                               tcopt10
 CP2K| Program compiled for                                                local
 CP2K| Data directory path                   /data/hutter/GITHUB/TDLRI/cp2k/data
 CP2K| Input file name                                             ZnCl2-ref.inp

 GLOBAL| Force Environment number                                              1
 GLOBAL| Basis set file name                                        ../def2QZVPP
 GLOBAL| Potential file name                                        ../POTENTIAL
 GLOBAL| MM Potential file name                                     MM_POTENTIAL
 GLOBAL| Coordinate file name                                      __STD_INPUT__
 GLOBAL| Method name                                                        CP2K
 GLOBAL| Project name                                                   refZnCl2
 GLOBAL| Run type                                                         ENERGY
 GLOBAL| FFT library                                                       FFTW3
 GLOBAL| Diagonalization library                                       ScaLAPACK
 GLOBAL| Orthonormality check for eigenvectors                          DISABLED
 GLOBAL| Matrix multiplication library                                     COSMA
 GLOBAL| All-to-all communication in single precision                          F
 GLOBAL| FFTs using library dependent lengths                                  F
 GLOBAL| Grid backend                                                       AUTO
 GLOBAL| Global print level                                                  LOW
 GLOBAL| MPI I/O enabled                                                       T
 GLOBAL| Total number of message passing processes                            48
 GLOBAL| Number of threads for this process                                    1
 GLOBAL| This output is from process                                           0
 GLOBAL| Stack size for threads created by OpenMP (OMP_STACKSIZE)        default
 GLOBAL| CPU model name                          AMD EPYC 7401 24-Core Processor
 GLOBAL| CPUID                                                              1002

 MEMORY| system memory details [Kb]
 MEMORY|                        rank 0           min           max       average
 MEMORY| MemTotal            263969136     263969136     263969136     263969136
 MEMORY| MemFree             237846136     237846136     237846136     237846136
 MEMORY| Buffers                   136           136           136           136
 MEMORY| Cached               18980372      18980372      18980372      18980372
 MEMORY| Slab                  1426656       1426656       1426656       1426656
 MEMORY| SReclaimable           872888        872888        872888        872888
 MEMORY| MemLikelyFree       257699532     257699532     257699532     257699532


 GENERATE|  Preliminary Number of Bonds generated:                             0
 GENERATE|  Achieved consistency in connectivity generation.

 *******************************************************************************
 *******************************************************************************
 **                                                                           **
 **     #####                         ##              ##                      **
 **    ##   ##            ##          ##              ##                      **
 **   ##     ##                       ##            ######                    **
 **   ##     ##  ##   ##  ##   #####  ##  ##   ####   ##    #####    #####    **
 **   ##     ##  ##   ##  ##  ##      ## ##   ##      ##   ##   ##  ##   ##   **
 **   ##  ## ##  ##   ##  ##  ##      ####     ###    ##   ######   ######    **
 **    ##  ###   ##   ##  ##  ##      ## ##      ##   ##   ##       ##        **
 **     #######   #####   ##   #####  ##  ##  ####    ##    #####   ##        **
 **           ##                                                    ##        **
 **                                                                           **
 **                                                ... make the atoms dance   **
 **                                                                           **
 **            Copyright (C) by CP2K developers group (2000-2022)             **
 **                      J. Chem. Phys. 152, 194103 (2020)                    **
 **                                                                           **
 *******************************************************************************


 TOTAL NUMBERS AND MAXIMUM NUMBERS

  Total number of            - Atomic kinds:                                   2
                             - Atoms:                                          3
                             - Shell sets:                                    72
                             - Shells:                                        72
                             - Primitive Cartesian functions:                140
                             - Cartesian basis functions:                    301
                             - Spherical basis functions:                    240

  Maximum angular momentum of the orbital basis functions:                     4


 SCF PARAMETERS         Density guess:                                    ATOMIC
                        --------------------------------------------------------
                        max_scf:                                              20
                        max_scf_history:                                       0
                        max_diis:                                              4
                        --------------------------------------------------------
                        eps_scf:                                        5.00E-07
                        eps_scf_history:                                0.00E+00
                        eps_diis:                                       1.00E-01
                        eps_eigval:                                     1.00E-05
                        --------------------------------------------------------
                        level_shift [a.u.]:                             0.000000
                        --------------------------------------------------------
                        Outer loop SCF in use 
                        No variables optimised in outer loop
                        eps_scf                                         5.00E-07
                        max_scf                                               10
                        No outer loop optimization
                        step_size                                       5.00E-01

 Number of electrons:                                                         64
 Number of occupied orbitals:                                                 32
 Number of molecular orbitals:                                                32

 Number of orbital functions:                                                240
 Number of independent orbital functions:                                    240

 Extrapolation method: initial_guess


 SCF WAVEFUNCTION OPTIMIZATION

  ----------------------------------- OT ---------------------------------------
  Minimizer      : DIIS                : direct inversion
                                         in the iterative subspace
                                         using   7 DIIS vectors
                                         safer DIIS on
  Preconditioner : FULL_ALL            : diagonalization, state selective
  Precond_solver : DEFAULT
  stepsize       :    0.10000000                  energy_gap     :    0.08000000
  eps_taylor     :   0.10000E-15                  max_taylor     :             4
  ----------------------------------- OT ---------------------------------------

  Step     Update method      Time    Convergence         Total energy    Change
  ------------------------------------------------------------------------------
     1 OT DIIS     0.10E+00    1.6     0.29164597     -2627.5519105012 -2.63E+03
     2 OT DIIS     0.10E+00    1.7     0.16045068     -2679.2689798772 -5.17E+01
     3 OT DIIS     0.10E+00    2.0     0.07536462     -2694.3465065185 -1.51E+01
     4 OT DIIS     0.10E+00    2.1     0.03594182     -2696.6033719590 -2.26E+00
     5 OT DIIS     0.10E+00    2.1     0.03194528     -2697.8708230935 -1.27E+00
     6 OT DIIS     0.10E+00    2.1     0.01066264     -2698.7187465852 -8.48E-01
     7 OT DIIS     0.10E+00    2.1     0.01606429     -2698.8869207497 -1.68E-01
     8 OT DIIS     0.10E+00    2.1     0.00551437     -2699.1050499758 -2.18E-01
     9 OT DIIS     0.10E+00    2.1     0.00942230     -2699.1105584663 -5.51E-03
    10 OT DIIS     0.10E+00    2.1     0.00636121     -2699.0534143938  5.71E-02
    11 OT DIIS     0.10E+00    2.1     0.00607002     -2699.1964617866 -1.43E-01
    12 OT DIIS     0.10E+00    2.1     0.00599225     -2699.1848117945  1.16E-02
    13 OT DIIS     0.10E+00    2.1     0.00186913     -2699.2392570237 -5.44E-02
    14 OT DIIS     0.10E+00    2.1     0.00267101     -2699.2512735460 -1.20E-02
    15 OT DIIS     0.10E+00    2.1     0.00125297     -2699.2710595397 -1.98E-02
    16 OT DIIS     0.10E+00    2.1     0.00120575     -2699.2752071336 -4.15E-03
    17 OT DIIS     0.10E+00    2.1     0.00115980     -2699.2798690067 -4.66E-03
    18 OT DIIS     0.10E+00    2.1     0.00112758     -2699.2883684417 -8.50E-03
    19 OT DIIS     0.10E+00    2.1     0.00098319     -2699.3012398059 -1.29E-02
    20 OT DIIS     0.10E+00    2.1     0.00087979     -2699.3132244051 -1.20E-02

  Leaving inner SCF loop after reaching    20 steps.


  Electronic density on regular grids:        -31.5116106557       32.4883893443
  Core density on regular grids:               64.0000000000        0.0000000000
  Hard and soft densities (Lebedev):          -73.2991080140      -40.8107189136
  Total Rho_soft + Rho1_hard - Rho1_soft      -63.9999997561
  Total charge density (r-space):               0.0000002439
  Total Rho_soft + Rho0_soft (g-space):        -0.0000003616

  Overlap energy of the core charge distribution:               0.00000000002249
  Self energy of the core charge distribution:              -1144.40636043015479
  Core Hamiltonian energy:                                  -1598.51765887939041
  Hartree energy:                                             130.78963039899406
  Exchange-correlation energy:                                -20.12620179612593

  GAPW| Exc from hard and soft atomic rho1:                  -106.85964811924376
  GAPW| local Eh = 1 center integrals:                         39.80701442079292

  Total energy:                                             -2699.31322440510576

  outer SCF iter =    1 RMS gradient =   0.88E-03 energy =      -2699.3132244051

  ----------------------------------- OT ---------------------------------------
  Minimizer      : DIIS                : direct inversion
                                         in the iterative subspace
                                         using   7 DIIS vectors
                                         safer DIIS on
  Preconditioner : FULL_ALL            : diagonalization, state selective
  Precond_solver : DEFAULT
  stepsize       :    0.10000000                  energy_gap     :    0.08000000
  eps_taylor     :   0.10000E-15                  max_taylor     :             4
  ----------------------------------- OT ---------------------------------------

  Step     Update method      Time    Convergence         Total energy    Change
  ------------------------------------------------------------------------------
     1 OT DIIS     0.10E+00    4.2     0.00807650     -2699.3163600421 -3.14E-03
     2 OT DIIS     0.10E+00    2.1     0.00424496     -2699.3531024924 -3.67E-02
     3 OT DIIS     0.10E+00    2.1     0.00141101     -2699.3664069916 -1.33E-02
     4 OT DIIS     0.10E+00    2.1     0.00043587     -2699.3678299534 -1.42E-03
     5 OT DIIS     0.10E+00    2.1     0.00021447     -2699.3679374435 -1.07E-04
     6 OT DIIS     0.10E+00    2.1     0.00004996     -2699.3679735441 -3.61E-05
     7 OT DIIS     0.10E+00    2.1     0.00002480     -2699.3679748010 -1.26E-06
     8 OT DIIS     0.10E+00    2.1     0.00000756     -2699.3679751608 -3.60E-07
     9 OT DIIS     0.10E+00    2.1     0.00000208     -2699.3679752090 -4.82E-08
    10 OT DIIS     0.10E+00    2.1     0.00000064     -2699.3679752134 -4.35E-09
    11 OT DIIS     0.10E+00    2.1     0.00000017     -2699.3679752123  1.07E-09

  *** SCF run converged in    11 steps ***


  Electronic density on regular grids:        -31.5025151736       32.4974848264
  Core density on regular grids:               64.0000000000        0.0000000000
  Hard and soft densities (Lebedev):          -73.6090352286      -41.1115508245
  Total Rho_soft + Rho1_hard - Rho1_soft      -63.9999995777
  Total charge density (r-space):               0.0000004223
  Total Rho_soft + Rho0_soft (g-space):        -0.0000001831

  Overlap energy of the core charge distribution:               0.00000000002249
  Self energy of the core charge distribution:              -1144.40636043015479
  Core Hamiltonian energy:                                  -1598.61510152189317
  Hartree energy:                                             130.82777933878464
  Exchange-correlation energy:                                -20.10782443838798

  GAPW| Exc from hard and soft atomic rho1:                  -106.87105246202937
  GAPW| local Eh = 1 center integrals:                         39.80458430137652

  Total energy:                                             -2699.36797521228164

  outer SCF iter =    2 RMS gradient =   0.17E-06 energy =      -2699.3679752123
  outer SCF loop converged in   2 iterations or   31 steps


 ENERGY| Total FORCE_EVAL ( QS ) energy [a.u.]:            -2699.367975212281635

 -------------------------------------------------------------------------------
 -                                                                             -
 -                                DBCSR STATISTICS                             -
 -                                                                             -
 -------------------------------------------------------------------------------
 COUNTER                                    TOTAL       BLAS       SMM       ACC
 flops    70 x   100 x    32             14336000       0.0%    100.0%      0.0%
 flops   100 x    70 x    32             14336000       0.0%    100.0%      0.0%
 flops    32 x    32 x    32             17629184       0.0%    100.0%      0.0%
 flops   100 x   100 x    32             20480000       0.0%    100.0%      0.0%
 flops    70 x    32 x    32             22507520       0.0%    100.0%      0.0%
 flops    32 x    32 x   100             25804800       0.0%    100.0%      0.0%
 flops    70 x    70 x    32             30105600       0.0%    100.0%      0.0%
 flops    32 x    32 x    70             36126720       0.0%    100.0%      0.0%
 flops   100 x    32 x   100             48640000       0.0%    100.0%      0.0%
 flops   170 x    32 x    32             54661120       0.0%    100.0%      0.0%
 flops   100 x    32 x    70             68096000       0.0%    100.0%      0.0%
 flops   170 x    32 x   100             71808000       0.0%    100.0%      0.0%
 flops    70 x    32 x   100             97664000       0.0%    100.0%      0.0%
 flops   170 x    32 x    70            100531200       0.0%    100.0%      0.0%
 flops    70 x    32 x    70            136729600       0.0%    100.0%      0.0%
 flops inhomo. stacks                           0       0.0%      0.0%      0.0%
 flops total                       759.455744E+06       0.0%    100.0%      0.0%
 flops max/rank                    525.492224E+06       0.0%    100.0%      0.0%
 matmuls inhomo. stacks                         0       0.0%      0.0%      0.0%
 matmuls total                               2233       0.0%    100.0%      0.0%
 number of processed stacks                  2233       0.0%    100.0%      0.0%
 average stack size                                     0.0       1.0       0.0
 marketing flops                   799.144384E+06
 -------------------------------------------------------------------------------
 # multiplications                            728
 max memory usage/rank             539.979776E+06
 # max total images/rank                        3
 # max 3D layers                                1
 # MPI messages exchanged                  698880
 MPI messages size (bytes):
  total size                         1.022665E+09
  min size                           0.000000E+00
  max size                         136.000000E+03
  average size                       1.463291E+03
 MPI breakdown and total messages size (bytes):
             size <=      128              674255                        0
       128 < size <=     8192                4237                 34709504
      8192 < size <=    32768                8937                177707520
     32768 < size <=   131072                9889                597815680
    131072 < size <=  4194304                1562                212432000
   4194304 < size <= 16777216                   0                        0
  16777216 < size                               0                        0
 -------------------------------------------------------------------------------

 *** WARNING in dbcsr_mm.F:290 :: Using a non-square number of MPI ranks ***
 *** might lead to poor performance. Used ranks: 48 Suggested: 49 100    ***

 -------------------------------------------------------------------------------
 -                                                                             -
 -                      DBCSR MESSAGE PASSING PERFORMANCE                      -
 -                                                                             -
 -------------------------------------------------------------------------------
 ROUTINE             CALLS      AVE VOLUME [Bytes]
 MP_Bcast               16                     12.
 MP_Allreduce         3897                      8.
 MP_Alltoall          2721                   7034.
 MP_ISend            32406                   2836.
 MP_IRecv            32242                   1376.
 -------------------------------------------------------------------------------

 -------------------------------------------------------------------------------
 -                                                                             -
 -                                GRID STATISTICS                              -
 -                                                                             -
 -------------------------------------------------------------------------------
 LP    KERNEL             BACKEND                              COUNT     PERCENT
 2     collocate ortho    REF                                  23712      12.50%
 2     integrate ortho    REF                                  22971      12.11%
 1     collocate ortho    REF                                  19392      10.22%
 3     collocate ortho    REF                                  18944       9.99%
 1     integrate ortho    REF                                  18786       9.90%
 3     integrate ortho    REF                                  18352       9.68%
 4     collocate ortho    REF                                  12608       6.65%
 4     integrate ortho    REF                                  12214       6.44%
 0     collocate ortho    REF                                   6816       3.59%
 5     collocate ortho    REF                                   6720       3.54%
 0     integrate ortho    REF                                   6603       3.48%
 5     integrate ortho    REF                                   6510       3.43%
 2     collocate general  REF                                   4464       2.35%
 2     integrate general  REF                                   4464       2.35%
 6     collocate ortho    REF                                   2528       1.33%
 6     integrate ortho    REF                                   2449       1.29%
 7     collocate ortho    REF                                    896       0.47%
 7     integrate ortho    REF                                    868       0.46%
 8     collocate ortho    REF                                    192       0.10%
 8     integrate ortho    REF                                    186       0.10%
 -------------------------------------------------------------------------------

 MEMORY| Estimated peak process memory [MiB]                                 516

 -------------------------------------------------------------------------------
 -                                                                             -
 -                         MESSAGE PASSING PERFORMANCE                         -
 -                                                                             -
 -------------------------------------------------------------------------------

 ROUTINE             CALLS      AVE VOLUME [Bytes]
 MP_Group                4
 MP_Bcast              591                 352152.
 MP_Allreduce         1861                 451509.
 MP_Sync                76
 MP_Alltoall           702                2321280.
 MP_ISendRecv         8883                 115392.
 MP_Wait             16133
 MP_comm_split          36
 MP_ISend             6750                 201978.
 MP_IRecv             6750                 202022.
 MP_Recv                20                   5760.
 -------------------------------------------------------------------------------


 -------------------------------------------------------------------------------
 -                                                                             -
 -                           R E F E R E N C E S                               -
 -                                                                             -
 -------------------------------------------------------------------------------
 
 CP2K version 10.0 (Development Version), the CP2K developers group (2022).
 CP2K is freely available from https://www.cp2k.org/ .

 Kuehne,Thomas D.; Iannuzzi,Marcella; Del Ben,Mauro;
 Rybkin,Vladimir V.; Seewald,Patrick; Stein,Frederick; Laino,Teodoro;
 Khaliullin,Rustam Z.; Schuett,Ole; Schiffmann,Florian; Golze,Dorothea;
 Wilhelm,Jan; Chulkov,Sergey; Bani-Hashemian,Mohammad Hossein;
 Weber,Valery; Borstnik,Urban; Taillefumier,Mathieu;
 Jakobovits,Alice Shoshana; Lazzaro,Alfio; Pabst,Hans; Mueller,Tiziano;
 Schade,Robert; Guidon,Manuel; Andermatt,Samuel; Holmberg,Nico;
 Schenter,Gregory K.; Hehn,Anna; Bussy,Augustin; Belleflamme,Fabian;
 Tabacchi,Gloria; Gloess,Andreas; Lass,Michael; Bethune,Iain;
 Mundy,Christopher J.; Plessl,Christian; Watkins,Matt;
 VandeVondele,Joost; Krack,Matthias; Hutter,Juerg. 
 The Journal of Chemical Physics, 152 (19), (2020). 
 CP2K: An electronic structure and molecular dynamics software package -
 Quickstep: Efficient and accurate electronic structure calculations.
 https://doi.org/10.1063/5.0007045

 Schuett, Ole; Messmer, Peter; Hutter, Juerg; VandeVondele, Joost. 
 Electronic Structure Calculations on Graphics Processing Units, John
 Wiley & Sons, Ltd, 173-190 (2016). 
 GPU-Accelerated Sparse Matrix-Matrix Multiplication for
 Linear Scaling Density Functional Theory.
 https://doi.org/10.1002/9781118670712.ch8

 Heinecke, A; Henry, G; Hutchinson, M; Pabst, H. 
 Proceedings of Intl. Supercomputing Conference, 981-991 (2016). 
 LIBXSMM: Accelerating Small Matrix Multiplications
 by Runtime Code Generation.
 https://doi.org/10.1109/SC.2016.83

 Borstnik, U; VandeVondele, J; Weber, V; Hutter, J. 
 PARALLEL COMPUTING, 40 (5-6), 47-58 (2014). 
 Sparse matrix multiplication: The distributed block-compressed sparse
 row library.
 https://doi.org/10.1016/j.parco.2014.03.012

 Hutter, J; Iannuzzi, M; Schiffmann, F; VandeVondele, J. 
 WIREs Comput Mol Sci., 4 (1), 15-25 (2014). 
 CP2K: atomistic simulations of condensed matter systems.
 https://doi.org/10.1002/wcms.1159

 Frigo, M; Johnson, SG. 
 PROCEEDINGS OF THE IEEE, 93 (2), 216-231 (2005). 
 The design and implementation of FFTW3.
 https://doi.org/10.1109/JPROC.2004.840301

 VandeVondele, J; Hutter, J. 
 JOURNAL OF CHEMICAL PHYSICS, 118 (10), 4365-4369 (2003). 
 An efficient orbital transformation method for electronic structure
 calculations.
 https://doi.org/10.1063/1.1543154

 Lippert, G; Hutter, J; Parrinello, M. 
 THEORETICAL CHEMISTRY ACCOUNTS, 103 (2), 124-140 (1999). 
 The Gaussian and augmented-plane-wave density functional method for ab
 initio molecular dynamics simulations.
 https://doi.org/10.1007/s002140050523

 Krack, M; Parrinello, M. 
 PHYSICAL CHEMISTRY CHEMICAL PHYSICS, 2 (10), 2105-2112 (2000). 
 All-electron ab-initio molecular dynamics.
 https://doi.org/10.1039/b001167n

 Perdew, JP; Burke, K; Ernzerhof, M. 
 PHYSICAL REVIEW LETTERS, 77 (18), 3865-3868 (1996). 
 Generalized gradient approximation made simple.
 https://doi.org/10.1103/PhysRevLett.77.3865


 -------------------------------------------------------------------------------
 -                                                                             -
 -                                T I M I N G                                  -
 -                                                                             -
 -------------------------------------------------------------------------------
 SUBROUTINE                       CALLS  ASD         SELF TIME        TOTAL TIME
                                MAXIMUM       AVERAGE  MAXIMUM  AVERAGE  MAXIMUM
 CP2K                                 1  1.0    0.012    0.033   65.102   65.104
 qs_energies                          1  2.0    0.000    0.000   64.786   64.787
 scf_env_do_scf                       1  3.0    0.000    0.000   64.345   64.346
 scf_env_do_scf_inner_loop           31  4.0    0.001    0.002   60.800   60.802
 qs_ks_update_qs_env                 33  5.0    0.000    0.000   59.091   59.105
 rebuild_ks_matrix                   31  6.0    0.000    0.000   59.085   59.097
 qs_ks_build_kohn_sham_matrix        31  7.0    0.007    0.008   59.085   59.097
 mp_sum_d                          1271  7.1   27.229   28.025   27.229   28.025
 calculate_vxc_atom                  31  8.0    0.085    1.301   25.949   25.950
 gaVxcgb_GC                          31  9.0    0.563   24.021    0.563   24.021
 prepare_gapw_den                    31  8.0    0.001    0.002   16.520   16.544
 calculate_rho_atom                  62  9.0    4.532   13.281    4.532   13.281
 pw_transfer                        656 10.1    0.070    0.086    6.914    7.418
 fft_wrap_pw1pw2                    563 11.3    0.008    0.009    6.774    7.279
 fft_wrap_pw1pw2_300                374 12.7    0.442    0.512    6.383    6.890
 calculate_rho0_atom                 62  9.0    5.914    6.495    5.914    6.495
 mp_sum_dv                          534 12.8    4.432    6.469    4.432    6.469
 fft3d_ps                           563 13.3    2.456    2.861    5.342    5.945
 rs_pw_transfer                     314  9.5    0.008    0.009    5.818    5.915
 qs_vxc_create                       31  8.0    0.001    0.001    5.607    5.608
 xc_vxc_pw_create                    31  9.0    0.034    0.040    5.607    5.607
 integrate_vhg0_rspace               31  8.0    0.610    0.984    4.500    4.588
 qs_rho_update_rho                   32  5.0    0.001    0.001    4.353    4.358
 xc_pw_derive                       186 11.0    0.002    0.002    3.659    4.251
 calculate_rho_elec                  32  6.0    0.017    0.020    3.914    3.914
 init_scf_loop                        2  4.0    0.000    0.000    3.543    3.544
 mp_alltoall_z22v                   563 15.3    2.305    3.419    2.305    3.419
 xc_rho_set_and_dset_create          31 10.0    0.043    0.051    3.073    3.369
 density_rs2pw                       32  7.0    0.002    0.002    3.050    3.208
 mp_sum_dm                          285  7.7    3.080    3.197    3.080    3.197
 sum_up_and_integrate                31  8.0    0.018    0.021    3.185    3.196
 integrate_v_rspace                  31  9.0    0.001    0.001    3.167    3.180
 xc_pw_divergence                    31 10.0    0.001    0.001    2.398    2.992
 potential_pw2rs                     31 10.0    0.002    0.003    2.766    2.770
 yz_to_x                            251 14.1    0.252    0.314    1.411    2.274
 rs_pw_transfer_PW2RS_300            62 11.0    1.298    1.377    2.106    2.202
 rs_pw_transfer_RS2PW_300            63 10.0    1.300    1.406    1.976    2.117
 xc_functional_eval                  93 10.9    0.000    0.001    1.152    1.903
 pbe_lda_eval                        93 11.9    1.151    1.902    1.151    1.902
 Vh_1c_gg_integrals                  31  8.0    0.115    1.729    1.739    1.792
 put_rho0_on_grid                    31  9.0    0.021    0.031    1.644    1.667
 x_to_yz                            249 14.6    0.285    0.323    1.427    1.551
 mp_waitall_1                     67623 13.9    1.249    1.447    1.249    1.447
 mp_waitany                        6750 11.5    1.114    1.306    1.114    1.306
 -------------------------------------------------------------------------------

 The number of warnings for this run is : 1
 
 -------------------------------------------------------------------------------
  **** **** ******  **  PROGRAM ENDED AT                 2022-05-13 23:25:15.400
 ***** ** ***  *** **   PROGRAM RAN ON                                   tcopt10
 **    ****   ******    PROGRAM RAN BY                                    hutter
 ***** **    ** ** **   PROGRAM PROCESS ID                                 47602
  **** **  *******  **  PROGRAM STOPPED IN /data/hutter/GITHUB/BASIS/scMOLOPT/PB
                                           E/Zn
