 DBCSR| CPU Multiplication driver                                           XSMM
 DBCSR| Multrec recursion limit                                              512
 DBCSR| Multiplication stack size                                           1000
 DBCSR| Maximum elements for images                                    UNLIMITED
 DBCSR| Multiplicative factor virtual images                                   1
 DBCSR| Use multiplication densification                                       T
 DBCSR| Multiplication size stacks                                             3
 DBCSR| Use memory pool for CPU allocation                                     F
 DBCSR| Number of 3D layers                                               SINGLE
 DBCSR| Use MPI memory allocation                                              F
 DBCSR| Use RMA algorithm                                                      F
 DBCSR| Use Communication thread                                               T
 DBCSR| Communication thread load                                             87
 DBCSR| MPI: My node id                                                        0
 DBCSR| MPI: Number of nodes                                                  48
 DBCSR| OMP: Current number of threads                                         1
 DBCSR| OMP: Max number of threads                                             1
 DBCSR| Split modifier for TAS multiplication algorithm                  1.0E+00


  **** **** ******  **  PROGRAM STARTED AT               2022-05-13 23:25:29.325
 ***** ** ***  *** **   PROGRAM STARTED ON                               tcopt10
 **    ****   ******    PROGRAM STARTED BY                                hutter
 ***** **    ** ** **   PROGRAM PROCESS ID                                 47862
  **** **  *******  **  PROGRAM STARTED IN /data/hutter/GITHUB/BASIS/scMOLOPT/PB
                                           E/Zn

 CP2K| version string:                   CP2K version 10.0 (Development Version)
 CP2K| source code revision number:                                  git:13fcfd8
 CP2K| cp2kflags: omp libint fftw3 libxc elpa parallel mpi3 scalapack cosma xsmm
 CP2K|             spglib sirius libvori libbqb
 CP2K| is freely available from                            https://www.cp2k.org/
 CP2K| Program compiled at                      Tue 10 May 2022 02:27:21 PM CEST
 CP2K| Program compiled on                                               tcopt10
 CP2K| Program compiled for                                                local
 CP2K| Data directory path                   /data/hutter/GITHUB/TDLRI/cp2k/data
 CP2K| Input file name                                              ZnF2-ref.inp

 GLOBAL| Force Environment number                                              1
 GLOBAL| Basis set file name                                        ../def2QZVPP
 GLOBAL| Potential file name                                        ../POTENTIAL
 GLOBAL| MM Potential file name                                     MM_POTENTIAL
 GLOBAL| Coordinate file name                                      __STD_INPUT__
 GLOBAL| Method name                                                        CP2K
 GLOBAL| Project name                                                    refZnF2
 GLOBAL| Run type                                                         ENERGY
 GLOBAL| FFT library                                                       FFTW3
 GLOBAL| Diagonalization library                                       ScaLAPACK
 GLOBAL| Orthonormality check for eigenvectors                          DISABLED
 GLOBAL| Matrix multiplication library                                     COSMA
 GLOBAL| All-to-all communication in single precision                          F
 GLOBAL| FFTs using library dependent lengths                                  F
 GLOBAL| Grid backend                                                       AUTO
 GLOBAL| Global print level                                                  LOW
 GLOBAL| MPI I/O enabled                                                       T
 GLOBAL| Total number of message passing processes                            48
 GLOBAL| Number of threads for this process                                    1
 GLOBAL| This output is from process                                           0
 GLOBAL| Stack size for threads created by OpenMP (OMP_STACKSIZE)        default
 GLOBAL| CPU model name                          AMD EPYC 7401 24-Core Processor
 GLOBAL| CPUID                                                              1002

 MEMORY| system memory details [Kb]
 MEMORY|                        rank 0           min           max       average
 MEMORY| MemTotal            263969136     263969136     263969136     263969136
 MEMORY| MemFree             237810552     237810552     237810552     237810552
 MEMORY| Buffers                   136           136           136           136
 MEMORY| Cached               18981840      18981840      18981840      18981840
 MEMORY| Slab                  1428040       1428040       1428040       1428040
 MEMORY| SReclaimable           873408        873408        873408        873408
 MEMORY| MemLikelyFree       257665936     257665936     257665936     257665936


 GENERATE|  Preliminary Number of Bonds generated:                             0
 GENERATE|  Achieved consistency in connectivity generation.

 *******************************************************************************
 *******************************************************************************
 **                                                                           **
 **     #####                         ##              ##                      **
 **    ##   ##            ##          ##              ##                      **
 **   ##     ##                       ##            ######                    **
 **   ##     ##  ##   ##  ##   #####  ##  ##   ####   ##    #####    #####    **
 **   ##     ##  ##   ##  ##  ##      ## ##   ##      ##   ##   ##  ##   ##   **
 **   ##  ## ##  ##   ##  ##  ##      ####     ###    ##   ######   ######    **
 **    ##  ###   ##   ##  ##  ##      ## ##      ##   ##   ##       ##        **
 **     #######   #####   ##   #####  ##  ##  ####    ##    #####   ##        **
 **           ##                                                    ##        **
 **                                                                           **
 **                                                ... make the atoms dance   **
 **                                                                           **
 **            Copyright (C) by CP2K developers group (2000-2022)             **
 **                      J. Chem. Phys. 152, 194103 (2020)                    **
 **                                                                           **
 *******************************************************************************


 TOTAL NUMBERS AND MAXIMUM NUMBERS

  Total number of            - Atomic kinds:                                   2
                             - Atoms:                                          3
                             - Shell sets:                                    62
                             - Shells:                                        62
                             - Primitive Cartesian functions:                116
                             - Cartesian basis functions:                    273
                             - Spherical basis functions:                    214

  Maximum angular momentum of the orbital basis functions:                     4


 SCF PARAMETERS         Density guess:                                    ATOMIC
                        --------------------------------------------------------
                        max_scf:                                              20
                        max_scf_history:                                       0
                        max_diis:                                              4
                        --------------------------------------------------------
                        eps_scf:                                        5.00E-07
                        eps_scf_history:                                0.00E+00
                        eps_diis:                                       1.00E-01
                        eps_eigval:                                     1.00E-05
                        --------------------------------------------------------
                        level_shift [a.u.]:                             0.000000
                        --------------------------------------------------------
                        Outer loop SCF in use 
                        No variables optimised in outer loop
                        eps_scf                                         5.00E-07
                        max_scf                                               10
                        No outer loop optimization
                        step_size                                       5.00E-01

 Number of electrons:                                                         48
 Number of occupied orbitals:                                                 24
 Number of molecular orbitals:                                                24

 Number of orbital functions:                                                214
 Number of independent orbital functions:                                    214

 Extrapolation method: initial_guess


 SCF WAVEFUNCTION OPTIMIZATION

  ----------------------------------- OT ---------------------------------------
  Minimizer      : DIIS                : direct inversion
                                         in the iterative subspace
                                         using   7 DIIS vectors
                                         safer DIIS on
  Preconditioner : FULL_ALL            : diagonalization, state selective
  Precond_solver : DEFAULT
  stepsize       :    0.10000000                  energy_gap     :    0.08000000
  eps_taylor     :   0.10000E-15                  max_taylor     :             4
  ----------------------------------- OT ---------------------------------------

  Step     Update method      Time    Convergence         Total energy    Change
  ------------------------------------------------------------------------------
     1 OT DIIS     0.10E+00    2.0     0.29972608     -1938.1627187234 -1.94E+03
     2 OT DIIS     0.10E+00    2.1     0.11328419     -1971.1943883657 -3.30E+01
     3 OT DIIS     0.10E+00    2.1     0.05081409     -1976.0033558505 -4.81E+00
     4 OT DIIS     0.10E+00    2.1     0.03832998     -1976.6704368503 -6.67E-01
     5 OT DIIS     0.10E+00    2.1     0.01902139     -1977.3156493655 -6.45E-01
     6 OT DIIS     0.10E+00    2.1     0.01381630     -1977.6572401485 -3.42E-01
     7 OT DIIS     0.10E+00    2.1     0.01528461     -1977.6825377653 -2.53E-02
     8 OT DIIS     0.10E+00    2.1     0.01198931     -1977.8431636901 -1.61E-01
     9 OT DIIS     0.10E+00    2.1     0.00666026     -1977.9811794666 -1.38E-01
    10 OT SD       0.10E+00    2.1     0.00417838     -1978.0392248642 -5.80E-02
    11 OT DIIS     0.10E+00    2.1     0.00400111     -1978.0479578117 -8.73E-03
    12 OT DIIS     0.10E+00    2.1     0.00342190     -1978.1342093594 -8.63E-02
    13 OT DIIS     0.10E+00    2.1     0.00300628     -1978.1425609645 -8.35E-03
    14 OT DIIS     0.10E+00    2.1     0.00293749     -1978.1533553202 -1.08E-02
    15 OT DIIS     0.10E+00    2.1     0.00264032     -1978.2221224766 -6.88E-02
    16 OT DIIS     0.10E+00    2.1     0.00253395     -1978.2505332220 -2.84E-02
    17 OT DIIS     0.10E+00    2.1     0.00242265     -1978.2785424353 -2.80E-02
    18 OT DIIS     0.10E+00    2.1     0.00509795     -1978.2871598193 -8.62E-03
    19 OT DIIS     0.10E+00    2.1     0.00329324     -1978.3000697544 -1.29E-02
    20 OT DIIS     0.10E+00    2.1     0.00255107     -1978.3186949259 -1.86E-02

  Leaving inner SCF loop after reaching    20 steps.


  Electronic density on regular grids:        -28.4351745637       19.5648254363
  Core density on regular grids:               48.0000000000        0.0000000000
  Hard and soft densities (Lebedev):          -61.3612901355      -41.7964646356
  Total Rho_soft + Rho1_hard - Rho1_soft      -48.0000000636
  Total charge density (r-space):              -0.0000000636
  Total Rho_soft + Rho0_soft (g-space):        -0.0000003652

  Overlap energy of the core charge distribution:               0.00000000000008
  Self energy of the core charge distribution:               -955.84828700633261
  Core Hamiltonian energy:                                  -1076.76620002960999
  Hartree energy:                                              93.00907598572724
  Exchange-correlation energy:                                -20.76505819000250

  GAPW| Exc from hard and soft atomic rho1:                   -70.62612326548502
  GAPW| local Eh = 1 center integrals:                         52.67789757978160

  Total energy:                                             -1978.31869492592136

  outer SCF iter =    1 RMS gradient =   0.26E-02 energy =      -1978.3186949259

  ----------------------------------- OT ---------------------------------------
  Minimizer      : DIIS                : direct inversion
                                         in the iterative subspace
                                         using   7 DIIS vectors
                                         safer DIIS on
  Preconditioner : FULL_ALL            : diagonalization, state selective
  Precond_solver : DEFAULT
  stepsize       :    0.10000000                  energy_gap     :    0.08000000
  eps_taylor     :   0.10000E-15                  max_taylor     :             4
  ----------------------------------- OT ---------------------------------------

  Step     Update method      Time    Convergence         Total energy    Change
  ------------------------------------------------------------------------------
     1 OT DIIS     0.10E+00    4.1     0.02911423     -1978.3242997795 -5.60E-03
     2 OT DIIS     0.10E+00    2.1     0.02617060     -1978.6665046683 -3.42E-01
     3 OT DIIS     0.10E+00    2.1     0.01157934     -1978.8047402121 -1.38E-01
     4 OT DIIS     0.10E+00    2.1     0.01396210     -1978.8173430816 -1.26E-02
     5 OT DIIS     0.10E+00    2.1     0.00390333     -1978.8361081416 -1.88E-02
     6 OT DIIS     0.10E+00    2.1     0.00124013     -1978.8395892300 -3.48E-03
     7 OT DIIS     0.10E+00    2.1     0.00216941     -1978.8395151804  7.40E-05
     8 OT DIIS     0.10E+00    2.1     0.00131003     -1978.8398906942 -3.76E-04
     9 OT DIIS     0.10E+00    2.1     0.00008833     -1978.8401357685 -2.45E-04
    10 OT DIIS     0.10E+00    2.1     0.00004879     -1978.8401384686 -2.70E-06
    11 OT DIIS     0.10E+00    2.1     0.00002295     -1978.8401394609 -9.92E-07
    12 OT DIIS     0.10E+00    2.1     0.00000966     -1978.8401396403 -1.79E-07
    13 OT DIIS     0.10E+00    2.1     0.00000500     -1978.8401396864 -4.62E-08
    14 OT DIIS     0.10E+00    2.1     0.00000175     -1978.8401397018 -1.54E-08
    15 OT DIIS     0.10E+00    2.1     0.00000100     -1978.8401397008  1.02E-09
    16 OT DIIS     0.10E+00    2.1     0.00000071     -1978.8401396990  1.78E-09
    17 OT DIIS     0.10E+00    2.0     0.00000030     -1978.8401396924  6.57E-09

  *** SCF run converged in    17 steps ***


  Electronic density on regular grids:        -28.3826347656       19.6173652344
  Core density on regular grids:               48.0000000000        0.0000000000
  Hard and soft densities (Lebedev):          -61.8760631553      -42.2586966308
  Total Rho_soft + Rho1_hard - Rho1_soft      -48.0000012902
  Total charge density (r-space):              -0.0000012902
  Total Rho_soft + Rho0_soft (g-space):        -0.0000015912

  Overlap energy of the core charge distribution:               0.00000000000008
  Self energy of the core charge distribution:               -955.84828700633261
  Core Hamiltonian energy:                                  -1076.62215345196432
  Hartree energy:                                              92.48004566786736
  Exchange-correlation energy:                                -20.91754145492069

  GAPW| Exc from hard and soft atomic rho1:                   -70.68463398915418
  GAPW| local Eh = 1 center integrals:                         52.75243054207299

  Total energy:                                             -1978.84013969243119

  outer SCF iter =    2 RMS gradient =   0.30E-06 energy =      -1978.8401396924
  outer SCF loop converged in   2 iterations or   37 steps


 ENERGY| Total FORCE_EVAL ( QS ) energy [a.u.]:            -1978.840139692431194

 -------------------------------------------------------------------------------
 -                                                                             -
 -                                DBCSR STATISTICS                             -
 -                                                                             -
 -------------------------------------------------------------------------------
 COUNTER                                    TOTAL       BLAS       SMM       ACC
 flops    24 x    24 x    24              8875008       0.0%    100.0%      0.0%
 flops    57 x   100 x    24             10396800       0.0%    100.0%      0.0%
 flops   100 x    57 x    24             10396800       0.0%    100.0%      0.0%
 flops    57 x    24 x    24             12279168       0.0%    100.0%      0.0%
 flops    24 x    24 x   100             17280000       0.0%    100.0%      0.0%
 flops    57 x    57 x    24             17778528       0.0%    100.0%      0.0%
 flops   100 x   100 x    24             18240000       0.0%    100.0%      0.0%
 flops    24 x    24 x    57             19699200       0.0%    100.0%      0.0%
 flops   157 x    24 x    24             33821568       0.0%    100.0%      0.0%
 flops   100 x    24 x   100             42240000       0.0%    100.0%      0.0%
 flops   100 x    24 x    57             48153600       0.0%    100.0%      0.0%
 flops   157 x    24 x   100             58780800       0.0%    100.0%      0.0%
 flops   157 x    24 x    57             67010112       0.0%    100.0%      0.0%
 flops    57 x    24 x   100             69494400       0.0%    100.0%      0.0%
 flops    57 x    24 x    57             79223616       0.0%    100.0%      0.0%
 flops inhomo. stacks                           0       0.0%      0.0%      0.0%
 flops total                       513.669600E+06       0.0%    100.0%      0.0%
 flops max/rank                    365.624640E+06       0.0%    100.0%      0.0%
 matmuls inhomo. stacks                         0       0.0%      0.0%      0.0%
 matmuls total                               2633       0.0%    100.0%      0.0%
 number of processed stacks                  2633       0.0%    100.0%      0.0%
 average stack size                                     0.0       1.0       0.0
 marketing flops                   540.882432E+06
 -------------------------------------------------------------------------------
 # multiplications                            864
 max memory usage/rank             517.148672E+06
 # max total images/rank                        3
 # max 3D layers                                1
 # MPI messages exchanged                  829440
 MPI messages size (bytes):
  total size                       905.404864E+06
  min size                           0.000000E+00
  max size                         125.600000E+03
  average size                       1.091586E+03
 MPI breakdown and total messages size (bytes):
             size <=      128              800343                        0
       128 < size <=     8192                5055                 23293440
      8192 < size <=    32768               16738                308046240
     32768 < size <=   131072                7304                574065184
    131072 < size <=  4194304                   0                        0
   4194304 < size <= 16777216                   0                        0
  16777216 < size                               0                        0
 -------------------------------------------------------------------------------

 *** WARNING in dbcsr_mm.F:290 :: Using a non-square number of MPI ranks ***
 *** might lead to poor performance. Used ranks: 48 Suggested: 49 100    ***

 -------------------------------------------------------------------------------
 -                                                                             -
 -                      DBCSR MESSAGE PASSING PERFORMANCE                      -
 -                                                                             -
 -------------------------------------------------------------------------------
 ROUTINE             CALLS      AVE VOLUME [Bytes]
 MP_Bcast               16                     12.
 MP_Allreduce         4631                      8.
 MP_Alltoall          3161                   5792.
 MP_ISend            38462                   2112.
 MP_IRecv            38262                   1008.
 -------------------------------------------------------------------------------

 -------------------------------------------------------------------------------
 -                                                                             -
 -                                GRID STATISTICS                              -
 -                                                                             -
 -------------------------------------------------------------------------------
 LP    KERNEL             BACKEND                              COUNT     PERCENT
 2     collocate ortho    REF                                  21280      12.09%
 2     integrate ortho    REF                                  20720      11.78%
 1     collocate ortho    REF                                  17176       9.76%
 3     collocate ortho    REF                                  17176       9.76%
 1     integrate ortho    REF                                  16724       9.50%
 3     integrate ortho    REF                                  16724       9.50%
 4     collocate ortho    REF                                  11552       6.57%
 4     integrate ortho    REF                                  11248       6.39%
 5     collocate ortho    REF                                   6536       3.71%
 5     integrate ortho    REF                                   6364       3.62%
 0     collocate ortho    REF                                   6346       3.61%
 0     integrate ortho    REF                                   6179       3.51%
 2     collocate general  REF                                   5328       3.03%
 2     integrate general  REF                                   5328       3.03%
 6     collocate ortho    REF                                   2508       1.43%
 6     integrate ortho    REF                                   2442       1.39%
 7     collocate ortho    REF                                    988       0.56%
 7     integrate ortho    REF                                    962       0.55%
 8     collocate ortho    REF                                    190       0.11%
 8     integrate ortho    REF                                    185       0.11%
 -------------------------------------------------------------------------------

 MEMORY| Estimated peak process memory [MiB]                                 494

 -------------------------------------------------------------------------------
 -                                                                             -
 -                         MESSAGE PASSING PERFORMANCE                         -
 -                                                                             -
 -------------------------------------------------------------------------------

 ROUTINE             CALLS      AVE VOLUME [Bytes]
 MP_Group                4
 MP_Bcast              794                 260916.
 MP_Allreduce         2380                 340313.
 MP_Sync                90
 MP_Alltoall           834                2110839.
 MP_ISendRecv        10575                 115392.
 MP_Wait             19217
 MP_comm_split          43
 MP_ISend             8046                 201981.
 MP_IRecv             8046                 202019.
 MP_Recv                22                   3424.
 -------------------------------------------------------------------------------


 -------------------------------------------------------------------------------
 -                                                                             -
 -                           R E F E R E N C E S                               -
 -                                                                             -
 -------------------------------------------------------------------------------
 
 CP2K version 10.0 (Development Version), the CP2K developers group (2022).
 CP2K is freely available from https://www.cp2k.org/ .

 Kuehne,Thomas D.; Iannuzzi,Marcella; Del Ben,Mauro;
 Rybkin,Vladimir V.; Seewald,Patrick; Stein,Frederick; Laino,Teodoro;
 Khaliullin,Rustam Z.; Schuett,Ole; Schiffmann,Florian; Golze,Dorothea;
 Wilhelm,Jan; Chulkov,Sergey; Bani-Hashemian,Mohammad Hossein;
 Weber,Valery; Borstnik,Urban; Taillefumier,Mathieu;
 Jakobovits,Alice Shoshana; Lazzaro,Alfio; Pabst,Hans; Mueller,Tiziano;
 Schade,Robert; Guidon,Manuel; Andermatt,Samuel; Holmberg,Nico;
 Schenter,Gregory K.; Hehn,Anna; Bussy,Augustin; Belleflamme,Fabian;
 Tabacchi,Gloria; Gloess,Andreas; Lass,Michael; Bethune,Iain;
 Mundy,Christopher J.; Plessl,Christian; Watkins,Matt;
 VandeVondele,Joost; Krack,Matthias; Hutter,Juerg. 
 The Journal of Chemical Physics, 152 (19), (2020). 
 CP2K: An electronic structure and molecular dynamics software package -
 Quickstep: Efficient and accurate electronic structure calculations.
 https://doi.org/10.1063/5.0007045

 Schuett, Ole; Messmer, Peter; Hutter, Juerg; VandeVondele, Joost. 
 Electronic Structure Calculations on Graphics Processing Units, John
 Wiley & Sons, Ltd, 173-190 (2016). 
 GPU-Accelerated Sparse Matrix-Matrix Multiplication for
 Linear Scaling Density Functional Theory.
 https://doi.org/10.1002/9781118670712.ch8

 Heinecke, A; Henry, G; Hutchinson, M; Pabst, H. 
 Proceedings of Intl. Supercomputing Conference, 981-991 (2016). 
 LIBXSMM: Accelerating Small Matrix Multiplications
 by Runtime Code Generation.
 https://doi.org/10.1109/SC.2016.83

 Borstnik, U; VandeVondele, J; Weber, V; Hutter, J. 
 PARALLEL COMPUTING, 40 (5-6), 47-58 (2014). 
 Sparse matrix multiplication: The distributed block-compressed sparse
 row library.
 https://doi.org/10.1016/j.parco.2014.03.012

 Hutter, J; Iannuzzi, M; Schiffmann, F; VandeVondele, J. 
 WIREs Comput Mol Sci., 4 (1), 15-25 (2014). 
 CP2K: atomistic simulations of condensed matter systems.
 https://doi.org/10.1002/wcms.1159

 Frigo, M; Johnson, SG. 
 PROCEEDINGS OF THE IEEE, 93 (2), 216-231 (2005). 
 The design and implementation of FFTW3.
 https://doi.org/10.1109/JPROC.2004.840301

 VandeVondele, J; Hutter, J. 
 JOURNAL OF CHEMICAL PHYSICS, 118 (10), 4365-4369 (2003). 
 An efficient orbital transformation method for electronic structure
 calculations.
 https://doi.org/10.1063/1.1543154

 Lippert, G; Hutter, J; Parrinello, M. 
 THEORETICAL CHEMISTRY ACCOUNTS, 103 (2), 124-140 (1999). 
 The Gaussian and augmented-plane-wave density functional method for ab
 initio molecular dynamics simulations.
 https://doi.org/10.1007/s002140050523

 Krack, M; Parrinello, M. 
 PHYSICAL CHEMISTRY CHEMICAL PHYSICS, 2 (10), 2105-2112 (2000). 
 All-electron ab-initio molecular dynamics.
 https://doi.org/10.1039/b001167n

 Perdew, JP; Burke, K; Ernzerhof, M. 
 PHYSICAL REVIEW LETTERS, 77 (18), 3865-3868 (1996). 
 Generalized gradient approximation made simple.
 https://doi.org/10.1103/PhysRevLett.77.3865


 -------------------------------------------------------------------------------
 -                                                                             -
 -                                T I M I N G                                  -
 -                                                                             -
 -------------------------------------------------------------------------------
 SUBROUTINE                       CALLS  ASD         SELF TIME        TOTAL TIME
                                MAXIMUM       AVERAGE  MAXIMUM  AVERAGE  MAXIMUM
 CP2K                                 1  1.0    0.011    0.031   77.366   77.368
 qs_energies                          1  2.0    0.000    0.000   77.036   77.036
 scf_env_do_scf                       1  3.0    0.000    0.000   76.563   76.564
 scf_env_do_scf_inner_loop           37  4.0    0.001    0.002   72.708   72.709
 qs_ks_update_qs_env                 39  5.0    0.000    0.001   70.374   70.387
 rebuild_ks_matrix                   37  6.0    0.000    0.000   70.368   70.379
 qs_ks_build_kohn_sham_matrix        37  7.0    0.008    0.010   70.368   70.379
 mp_sum_d                          1483  7.6   33.422   34.362   33.422   34.362
 calculate_vxc_atom                  37  8.0    0.099    1.573   31.817   31.818
 gaVxcgb_GC                          37  9.0    0.656   29.481    0.656   29.481
 prepare_gapw_den                    37  8.0    0.001    0.002   19.217   19.234
 calculate_rho_atom                  74  9.0    5.203   15.698    5.203   15.698
 pw_transfer                        782 10.1    0.084    0.096    8.440    9.033
 fft_wrap_pw1pw2                    671 11.3    0.009    0.011    8.274    8.868
 fft_wrap_pw1pw2_300                446 12.7    0.525    0.603    7.792    8.365
 mp_sum_dv                          830 12.9    6.482    8.123    6.482    8.123
 fft3d_ps                           671 13.3    2.991    3.395    6.573    7.322
 rs_pw_transfer                     374  9.5    0.009    0.011    6.922    7.115
 qs_vxc_create                       37  8.0    0.001    0.001    6.900    6.900
 xc_vxc_pw_create                    37  9.0    0.041    0.048    6.899    6.899
 calculate_rho0_atom                 74  9.0    5.537    6.032    5.537    6.032
 xc_pw_derive                       222 11.0    0.003    0.003    4.458    5.216
 qs_rho_update_rho                   38  5.0    0.001    0.001    5.166    5.170
 integrate_vhg0_rspace               37  8.0    0.608    1.042    4.743    4.770
 calculate_rho_elec                  38  6.0    0.021    0.022    4.668    4.668
 mp_alltoall_z22v                   671 15.3    2.887    4.322    2.887    4.322
 xc_rho_set_and_dset_create          37 10.0    0.051    0.058    3.739    4.082
 sum_up_and_integrate                37  8.0    0.021    0.027    3.881    3.892
 integrate_v_rspace                  37  9.0    0.001    0.001    3.859    3.870
 density_rs2pw                       38  7.0    0.002    0.003    3.644    3.860
 init_scf_loop                        2  4.0    0.000    0.000    3.854    3.854
 xc_pw_divergence                    37 10.0    0.001    0.002    2.974    3.726
 potential_pw2rs                     37 10.0    0.003    0.003    3.295    3.299
 mp_sum_dm                          339  7.7    3.154    3.258    3.154    3.258
 yz_to_x                            299 14.1    0.298    0.372    1.745    2.811
 rs_pw_transfer_PW2RS_300            74 11.0    1.541    1.610    2.509    2.594
 rs_pw_transfer_RS2PW_300            75 10.0    1.523    1.605    2.347    2.549
 xc_functional_eval                 111 10.9    0.001    0.001    1.423    2.365
 pbe_lda_eval                       111 11.9    1.422    2.364    1.422    2.364
 Vh_1c_gg_integrals                  37  8.0    0.127    2.063    2.075    2.134
 put_rho0_on_grid                    37  9.0    0.024    0.031    1.997    2.014
 x_to_yz                            297 14.6    0.344    0.388    1.779    1.946
 mp_waitall_1                     80291 13.9    1.470    1.683    1.470    1.683
 mp_waitany                        8046 11.5    1.345    1.575    1.345    1.575
 -------------------------------------------------------------------------------

 The number of warnings for this run is : 1
 
 -------------------------------------------------------------------------------
  **** **** ******  **  PROGRAM ENDED AT                 2022-05-13 23:26:47.125
 ***** ** ***  *** **   PROGRAM RAN ON                                   tcopt10
 **    ****   ******    PROGRAM RAN BY                                    hutter
 ***** **    ** ** **   PROGRAM PROCESS ID                                 47862
  **** **  *******  **  PROGRAM STOPPED IN /data/hutter/GITHUB/BASIS/scMOLOPT/PB
                                           E/Zn
