
  **** **** ******  **  PROGRAM STARTED AT               2021-01-19 15:06:43.143
 ***** ** ***  *** **   PROGRAM STARTED ON                               tcopt10
 **    ****   ******    PROGRAM STARTED BY                                hutter
 ***** **    ** ** **   PROGRAM PROCESS ID                                 86414
  **** **  *******  **  PROGRAM STARTED IN /data/hutter/GITHUB/BASIS/MOLOPT/PBE/
                                           K

 CP2K| version string:                    CP2K version 9.0 (Development Version)
 CP2K| source code revision number:                                  git:7d6847f
 CP2K| cp2kflags: omp libint fftw3 libxc elpa parallel mpi3 scalapack xsmm spgli
 CP2K|            b sirius libvori libbqb
 CP2K| is freely available from                            https://www.cp2k.org/
 CP2K| Program compiled at                          Fre Jan 15 16:26:00 CET 2021
 CP2K| Program compiled on                                               tcopt10
 CP2K| Program compiled for                                                local
 CP2K| Data directory path                 /data/hutter/GITHUB/CURRENT/cp2k/data
 CP2K| Input file name                                               opt-all.inp

 GLOBAL| Method name                                              OPTIMIZE_BASIS
 GLOBAL| Project name                                                     molopt
 GLOBAL| Preferred FFT library                                             FFTW3
 GLOBAL| Preferred diagonalization lib.                                     ELPA
 GLOBAL| Run type                                                   ENERGY_FORCE
 GLOBAL| All-to-all communication in single precision                          F
 GLOBAL| FFTs using library dependent lengths                                  F
 GLOBAL| Global print level                                               MEDIUM
 GLOBAL| MPI I/O enabled                                                       T
 GLOBAL| Total number of message passing processes                            36
 GLOBAL| Number of threads for this process                                    1
 GLOBAL| This output is from process                                           0
 GLOBAL| CPU model name                          AMD EPYC 7401 24-Core Processor
 GLOBAL| CPUID                                                              1002

 MEMORY| system memory details [Kb]
 MEMORY|                        rank 0           min           max       average
 MEMORY| MemTotal            263969964     263969964     263969964     263969964
 MEMORY| MemFree             243153736     243153736     243153736     243153736
 MEMORY| Buffers                  1196          1196          1196          1196
 MEMORY| Cached               16977060      16977060      16977060      16977060
 MEMORY| Slab                   848276        848276        848276        848276
 MEMORY| SReclaimable           417920        417920        417920        417920
 MEMORY| MemLikelyFree       260549912     260549912     260549912     260549912


 *** Fundamental physical constants (SI units) ***

 *** Literature: B. J. Mohr and B. N. Taylor,
 ***             CODATA recommended values of the fundamental physical
 ***             constants: 2006, Web Version 5.1
 ***             http://physics.nist.gov/constants

 Speed of light in vacuum [m/s]                             2.99792458000000E+08
 Magnetic constant or permeability of vacuum [N/A**2]       1.25663706143592E-06
 Electric constant or permittivity of vacuum [F/m]          8.85418781762039E-12
 Planck constant (h) [J*s]                                  6.62606896000000E-34
 Planck constant (h-bar) [J*s]                              1.05457162825177E-34
 Elementary charge [C]                                      1.60217648700000E-19
 Electron mass [kg]                                         9.10938215000000E-31
 Electron g factor [ ]                                     -2.00231930436220E+00
 Proton mass [kg]                                           1.67262163700000E-27
 Fine-structure constant                                    7.29735253760000E-03
 Rydberg constant [1/m]                                     1.09737315685270E+07
 Avogadro constant [1/mol]                                  6.02214179000000E+23
 Boltzmann constant [J/K]                                   1.38065040000000E-23
 Atomic mass unit [kg]                                      1.66053878200000E-27
 Bohr radius [m]                                            5.29177208590000E-11

 *** Conversion factors ***

 [u] -> [a.u.]                                              1.82288848426455E+03
 [Angstrom] -> [Bohr] = [a.u.]                              1.88972613288564E+00
 [a.u.] = [Bohr] -> [Angstrom]                              5.29177208590000E-01
 [a.u.] -> [s]                                              2.41888432650478E-17
 [a.u.] -> [fs]                                             2.41888432650478E-02
 [a.u.] -> [J]                                              4.35974393937059E-18
 [a.u.] -> [N]                                              8.23872205491840E-08
 [a.u.] -> [K]                                              3.15774647902944E+05
 [a.u.] -> [kJ/mol]                                         2.62549961709828E+03
 [a.u.] -> [kcal/mol]                                       6.27509468713739E+02
 [a.u.] -> [Pa]                                             2.94210107994716E+13
 [a.u.] -> [bar]                                            2.94210107994716E+08
 [a.u.] -> [atm]                                            2.90362800883016E+08
 [a.u.] -> [eV]                                             2.72113838565563E+01
 [a.u.] -> [Hz]                                             6.57968392072181E+15
 [a.u.] -> [1/cm] (wave numbers)                            2.19474631370540E+05
 [a.u./Bohr**2] -> [1/cm]                                   5.14048714338585E+03
 
 DBCSR| CPU Multiplication driver                                           XSMM
 DBCSR| Multrec recursion limit                                              512
 DBCSR| Multiplication stack size                                           1000
 DBCSR| Maximum elements for images                                    UNLIMITED
 DBCSR| Multiplicative factor virtual images                                   1
 DBCSR| Use multiplication densification                                       T
 DBCSR| Multiplication size stacks                                             3
 DBCSR| Use memory pool for CPU allocation                                     F
 DBCSR| Number of 3D layers                                               SINGLE
 DBCSR| Use MPI memory allocation                                              F
 DBCSR| Use RMA algorithm                                                      F
 DBCSR| Use Communication thread                                               T
 DBCSR| Communication thread load                                             87
 DBCSR| MPI: My node id                                                        0
 DBCSR| MPI: Number of nodes                                                  36
 DBCSR| OMP: Current number of threads                                         1
 DBCSR| OMP: Max number of threads                                             1
 DBCSR| Split modifier for TAS multiplication algorithm                  1.0E+00

 BASOPT| Total number of calculations     15

 BASOPT| Content of basis combination      1
 BASOPT|     Element:    K    Basis set:    TZV2P-MOLOPT-PBE-GTH-Q9
 BASOPT|     Element:    P    Basis set:    TZV2P-MOLOPT-PBE-GTH-Q5
 BASOPT|     Element:    S    Basis set:    TZV2P-MOLOPT-PBE-GTH-Q6
 BASOPT|     Element:   CL    Basis set:    TZV2P-MOLOPT-PBE-GTH-Q7
 BASOPT|     Element:    H    Basis set:    TZV2P-MOLOPT-PBE-GTH-Q1
 BASOPT|     Element:    F    Basis set:    TZV2P-MOLOPT-PBE-GTH-Q7

 BASOPT| Content of basis combination      2
 BASOPT|     Element:    K    Basis set:    TZVP-MOLOPT-PBE-GTH-q9
 BASOPT|     Element:    P    Basis set:    TZVP-MOLOPT-PBE-GTH-q5
 BASOPT|     Element:    S    Basis set:    TZVP-MOLOPT-PBE-GTH-q6
 BASOPT|     Element:   CL    Basis set:    TZVP-MOLOPT-PBE-GTH-q7
 BASOPT|     Element:    H    Basis set:    TZVP-MOLOPT-PBE-GTH-q1
 BASOPT|     Element:    F    Basis set:    TZVP-MOLOPT-PBE-GTH-q7

 BASOPT| Content of basis combination      3
 BASOPT|     Element:    K    Basis set:    DZVP-MOLOPT-PBE-GTH-q9
 BASOPT|     Element:    P    Basis set:    DZVP-MOLOPT-PBE-GTH-q5
 BASOPT|     Element:    S    Basis set:    DZVP-MOLOPT-PBE-GTH-q6
 BASOPT|     Element:   CL    Basis set:    DZVP-MOLOPT-PBE-GTH-q7
 BASOPT|     Element:    H    Basis set:    DZVP-MOLOPT-PBE-GTH-q1
 BASOPT|     Element:    F    Basis set:    DZVP-MOLOPT-PBE-GTH-q7

 BASOPT| Information at iteration number:       0
 BASOPT| Training set | Combination | Rho difference | Condition num. | Time
 BASOPT| -----------------------------------------------------------------------
 BASOPT|        1     |       1     | 0.32357223E-02 | 0.35762029E+03 |    0.063
 BASOPT|        1     |       2     | 0.52110616E-02 | 0.14885903E+03 |    0.053
 BASOPT|        1     |       3     | 0.55788556E-02 | 0.58032569E+02 |    0.044
 BASOPT|        2     |       1     | 0.21398665E-02 | 0.73092393E+03 |    0.104
 BASOPT|        2     |       2     | 0.32095897E-02 | 0.15332348E+03 |    0.080
 BASOPT|        2     |       3     | 0.42108038E-02 | 0.81233526E+02 |    0.073
 BASOPT|        3     |       1     | 0.25353651E-02 | 0.26226173E+02 |    0.032
 BASOPT|        3     |       2     | 0.49068634E-02 | 0.25081726E+02 |    0.028
 BASOPT|        3     |       3     | 0.51023451E-02 | 0.15560750E+02 |    0.025
 BASOPT|        4     |       1     | 0.21508943E-02 | 0.49382649E+02 |    0.030
 BASOPT|        4     |       2     | 0.51402993E-02 | 0.46439813E+02 |    0.025
 BASOPT|        4     |       3     | 0.54515679E-02 | 0.19470858E+02 |    0.024
 BASOPT|        5     |       1     | 0.22879586E-02 | 0.16544646E+03 |    0.023
 BASOPT|        5     |       2     | 0.42096394E-02 | 0.14659302E+03 |    0.021
 BASOPT|        5     |       3     | 0.43842976E-02 | 0.14934898E+02 |    0.019
 BASOPT| -----------------------------------------------------------------------
 BASOPT| Total residuum value: -.17729154E+04

 BASOPT| Information at iteration number:     100
 BASOPT| Training set | Combination | Rho difference | Condition num. | Time
 BASOPT| -----------------------------------------------------------------------
 BASOPT|        1     |       1     | 0.32939283E-02 | 0.32949163E+03 |    5.901
 BASOPT|        1     |       2     | 0.52110616E-02 | 0.14885903E+03 |    4.618
 BASOPT|        1     |       3     | 0.55788556E-02 | 0.58032569E+02 |    4.041
 BASOPT|        2     |       1     | 0.21806208E-02 | 0.67334428E+03 |   10.055
 BASOPT|        2     |       2     | 0.32095897E-02 | 0.15332348E+03 |    7.633
 BASOPT|        2     |       3     | 0.42108038E-02 | 0.81233526E+02 |    6.677
 BASOPT|        3     |       1     | 0.26003713E-02 | 0.26268498E+02 |    3.148
 BASOPT|        3     |       2     | 0.49068634E-02 | 0.25081726E+02 |    2.613
 BASOPT|        3     |       3     | 0.51023451E-02 | 0.15560750E+02 |    2.360
 BASOPT|        4     |       1     | 0.22651956E-02 | 0.50243951E+02 |    2.931
 BASOPT|        4     |       2     | 0.51402993E-02 | 0.46439813E+02 |    2.406
 BASOPT|        4     |       3     | 0.54515679E-02 | 0.19470858E+02 |    2.169
 BASOPT|        5     |       1     | 0.23303777E-02 | 0.16516013E+03 |    2.212
 BASOPT|        5     |       2     | 0.42096394E-02 | 0.14659302E+03 |    1.906
 BASOPT|        5     |       3     | 0.43842976E-02 | 0.14934898E+02 |    1.751
 BASOPT| -----------------------------------------------------------------------
 BASOPT| Total residuum value: -.17729076E+04

 BASOPT| Information at iteration number:     200
 BASOPT| Training set | Combination | Rho difference | Condition num. | Time
 BASOPT| -----------------------------------------------------------------------
 BASOPT|        1     |       1     | 0.31976562E-02 | 0.37707726E+03 |   11.741
 BASOPT|        1     |       2     | 0.51817206E-02 | 0.14888342E+03 |    9.177
 BASOPT|        1     |       3     | 0.55478075E-02 | 0.58598351E+02 |    8.045
 BASOPT|        2     |       1     | 0.21142384E-02 | 0.77961032E+03 |   20.008
 BASOPT|        2     |       2     | 0.32370996E-02 | 0.15489260E+03 |   15.203
 BASOPT|        2     |       3     | 0.42177740E-02 | 0.82324639E+02 |   13.269
 BASOPT|        3     |       1     | 0.24815807E-02 | 0.26244751E+02 |    6.260
 BASOPT|        3     |       2     | 0.49504036E-02 | 0.24987571E+02 |    5.199
 BASOPT|        3     |       3     | 0.51384301E-02 | 0.15578835E+02 |    4.697
 BASOPT|        4     |       1     | 0.20414933E-02 | 0.48330980E+02 |    5.830
 BASOPT|        4     |       2     | 0.52245393E-02 | 0.46251221E+02 |    4.789
 BASOPT|        4     |       3     | 0.55318716E-02 | 0.19448330E+02 |    4.315
 BASOPT|        5     |       1     | 0.22401415E-02 | 0.16595827E+03 |    4.400
 BASOPT|        5     |       2     | 0.41402220E-02 | 0.14686207E+03 |    3.791
 BASOPT|        5     |       3     | 0.43207920E-02 | 0.14944523E+02 |    3.484
 BASOPT| -----------------------------------------------------------------------
 BASOPT| Total residuum value: -.17729140E+04

 BASOPT| Information at iteration number:     300
 BASOPT| Training set | Combination | Rho difference | Condition num. | Time
 BASOPT| -----------------------------------------------------------------------
 BASOPT|        1     |       1     | 0.31842459E-02 | 0.37558696E+03 |   17.582
 BASOPT|        1     |       2     | 0.51871358E-02 | 0.14983856E+03 |   13.740
 BASOPT|        1     |       3     | 0.55497337E-02 | 0.58548148E+02 |   12.048
 BASOPT|        2     |       1     | 0.21015847E-02 | 0.77179673E+03 |   29.962
 BASOPT|        2     |       2     | 0.32264864E-02 | 0.15458280E+03 |   22.780
 BASOPT|        2     |       3     | 0.42171701E-02 | 0.82008296E+02 |   19.863
 BASOPT|        3     |       1     | 0.24756344E-02 | 0.26360628E+02 |    9.371
 BASOPT|        3     |       2     | 0.49355173E-02 | 0.25093783E+02 |    7.786
 BASOPT|        3     |       3     | 0.51287456E-02 | 0.15588128E+02 |    7.037
 BASOPT|        4     |       1     | 0.20367864E-02 | 0.48466168E+02 |    8.728
 BASOPT|        4     |       2     | 0.52003435E-02 | 0.46428023E+02 |    7.175
 BASOPT|        4     |       3     | 0.55092018E-02 | 0.19471782E+02 |    6.464
 BASOPT|        5     |       1     | 0.22306299E-02 | 0.16596227E+03 |    6.587
 BASOPT|        5     |       2     | 0.41570834E-02 | 0.14682162E+03 |    5.680
 BASOPT|        5     |       3     | 0.43262353E-02 | 0.14940045E+02 |    5.219
 BASOPT| -----------------------------------------------------------------------
 BASOPT| Total residuum value: -.17729264E+04

 BASOPT| Information at iteration number:     400
 BASOPT| Training set | Combination | Rho difference | Condition num. | Time
 BASOPT| -----------------------------------------------------------------------
 BASOPT|        1     |       1     | 0.31852505E-02 | 0.37561577E+03 |   23.421
 BASOPT|        1     |       2     | 0.51756167E-02 | 0.14955215E+03 |   18.304
 BASOPT|        1     |       3     | 0.55356613E-02 | 0.58816464E+02 |   16.049
 BASOPT|        2     |       1     | 0.21001721E-02 | 0.77381808E+03 |   39.914
 BASOPT|        2     |       2     | 0.32379905E-02 | 0.15498311E+03 |   30.331
 BASOPT|        2     |       3     | 0.42203293E-02 | 0.82434435E+02 |   26.458
 BASOPT|        3     |       1     | 0.24755109E-02 | 0.26369318E+02 |   12.483
 BASOPT|        3     |       2     | 0.49479855E-02 | 0.25105405E+02 |   10.373
 BASOPT|        3     |       3     | 0.51431236E-02 | 0.15602440E+02 |    9.376
 BASOPT|        4     |       1     | 0.20368429E-02 | 0.48507739E+02 |   11.624
 BASOPT|        4     |       2     | 0.52289816E-02 | 0.46439884E+02 |    9.558
 BASOPT|        4     |       3     | 0.55377622E-02 | 0.19473143E+02 |    8.611
 BASOPT|        5     |       1     | 0.22268954E-02 | 0.16589158E+03 |    8.772
 BASOPT|        5     |       2     | 0.41308205E-02 | 0.14680271E+03 |    7.570
 BASOPT|        5     |       3     | 0.43007961E-02 | 0.14937457E+02 |    6.955
 BASOPT| -----------------------------------------------------------------------
 BASOPT| Total residuum value: -.17729277E+04

 BASOPT| Information at iteration number:     500
 BASOPT| Training set | Combination | Rho difference | Condition num. | Time
 BASOPT| -----------------------------------------------------------------------
 BASOPT|        1     |       1     | 0.31898472E-02 | 0.37598078E+03 |   29.261
 BASOPT|        1     |       2     | 0.51670629E-02 | 0.14924369E+03 |   22.869
 BASOPT|        1     |       3     | 0.55238619E-02 | 0.59148798E+02 |   20.048
 BASOPT|        2     |       1     | 0.20982784E-02 | 0.77646524E+03 |   49.858
 BASOPT|        2     |       2     | 0.32465020E-02 | 0.15549590E+03 |   37.877
 BASOPT|        2     |       3     | 0.42162990E-02 | 0.82938313E+02 |   33.053
 BASOPT|        3     |       1     | 0.24781817E-02 | 0.26403941E+02 |   15.593
 BASOPT|        3     |       2     | 0.49649593E-02 | 0.25138076E+02 |   12.959
 BASOPT|        3     |       3     | 0.51643914E-02 | 0.15630646E+02 |   11.714
 BASOPT|        4     |       1     | 0.20424921E-02 | 0.48628308E+02 |   14.520
 BASOPT|        4     |       2     | 0.52684935E-02 | 0.46514971E+02 |   11.942
 BASOPT|        4     |       3     | 0.55779205E-02 | 0.19492375E+02 |   10.759
 BASOPT|        5     |       1     | 0.22168158E-02 | 0.16589235E+03 |   10.957
 BASOPT|        5     |       2     | 0.40991109E-02 | 0.14682899E+03 |    9.459
 BASOPT|        5     |       3     | 0.42709213E-02 | 0.14939251E+02 |    8.689
 BASOPT| -----------------------------------------------------------------------
 BASOPT| Total residuum value: -.17729290E+04

 BASOPT| Information at iteration number:     600
 BASOPT| Training set | Combination | Rho difference | Condition num. | Time
 BASOPT| -----------------------------------------------------------------------
 BASOPT|        1     |       1     | 0.31928262E-02 | 0.37561957E+03 |   35.113
 BASOPT|        1     |       2     | 0.51581483E-02 | 0.14879482E+03 |   27.432
 BASOPT|        1     |       3     | 0.55139199E-02 | 0.59393417E+02 |   24.043
 BASOPT|        2     |       1     | 0.20966134E-02 | 0.77691527E+03 |   59.804
 BASOPT|        2     |       2     | 0.32550823E-02 | 0.15586308E+03 |   45.424
 BASOPT|        2     |       3     | 0.42296012E-02 | 0.83285487E+02 |   39.639
 BASOPT|        3     |       1     | 0.24794152E-02 | 0.26421212E+02 |   18.704
 BASOPT|        3     |       2     | 0.49807912E-02 | 0.25149601E+02 |   15.546
 BASOPT|        3     |       3     | 0.51739754E-02 | 0.15660659E+02 |   14.052
 BASOPT|        4     |       1     | 0.20447689E-02 | 0.48664465E+02 |   17.423
 BASOPT|        4     |       2     | 0.53040988E-02 | 0.46533044E+02 |   14.325
 BASOPT|        4     |       3     | 0.56122105E-02 | 0.19510285E+02 |   12.907
 BASOPT|        5     |       1     | 0.22101368E-02 | 0.16589593E+03 |   13.145
 BASOPT|        5     |       2     | 0.40713921E-02 | 0.14685037E+03 |   11.335
 BASOPT|        5     |       3     | 0.42346406E-02 | 0.14943931E+02 |   10.423
 BASOPT| -----------------------------------------------------------------------
 BASOPT| Total residuum value: -.17729302E+04

 BASOPT| Information at iteration number:     700
 BASOPT| Training set | Combination | Rho difference | Condition num. | Time
 BASOPT| -----------------------------------------------------------------------
 BASOPT|        1     |       1     | 0.31961403E-02 | 0.37590739E+03 |   40.954
 BASOPT|        1     |       2     | 0.51500508E-02 | 0.14857426E+03 |   31.995
 BASOPT|        1     |       3     | 0.55049767E-02 | 0.59645326E+02 |   28.036
 BASOPT|        2     |       1     | 0.20948439E-02 | 0.77872025E+03 |   69.748
 BASOPT|        2     |       2     | 0.32632663E-02 | 0.15633235E+03 |   52.967
 BASOPT|        2     |       3     | 0.42293046E-02 | 0.83611418E+02 |   46.233
 BASOPT|        3     |       1     | 0.24811885E-02 | 0.26440350E+02 |   21.813
 BASOPT|        3     |       2     | 0.49968353E-02 | 0.25164808E+02 |   18.130
 BASOPT|        3     |       3     | 0.51910917E-02 | 0.15696589E+02 |   16.390
 BASOPT|        4     |       1     | 0.20477769E-02 | 0.48732135E+02 |   20.325
 BASOPT|        4     |       2     | 0.53399781E-02 | 0.46567606E+02 |   16.708
 BASOPT|        4     |       3     | 0.56473367E-02 | 0.19539191E+02 |   15.053
 BASOPT|        5     |       1     | 0.22022768E-02 | 0.16591951E+03 |   15.332
 BASOPT|        5     |       2     | 0.40428164E-02 | 0.14689041E+03 |   13.210
 BASOPT|        5     |       3     | 0.42055680E-02 | 0.14947188E+02 |   12.157
 BASOPT| -----------------------------------------------------------------------
 BASOPT| Total residuum value: -.17729312E+04

 BASOPT| Information at iteration number:     800
 BASOPT| Training set | Combination | Rho difference | Condition num. | Time
 BASOPT| -----------------------------------------------------------------------
 BASOPT|        1     |       1     | 0.31982098E-02 | 0.37626963E+03 |   46.792
 BASOPT|        1     |       2     | 0.51409146E-02 | 0.14829280E+03 |   36.558
 BASOPT|        1     |       3     | 0.54938760E-02 | 0.59916115E+02 |   32.029
 BASOPT|        2     |       1     | 0.20927695E-02 | 0.78106575E+03 |   79.691
 BASOPT|        2     |       2     | 0.32775190E-02 | 0.15693362E+03 |   60.514
 BASOPT|        2     |       3     | 0.42311599E-02 | 0.84013353E+02 |   52.826
 BASOPT|        3     |       1     | 0.24818864E-02 | 0.26453281E+02 |   24.921
 BASOPT|        3     |       2     | 0.50145262E-02 | 0.25175842E+02 |   20.715
 BASOPT|        3     |       3     | 0.52114343E-02 | 0.15728176E+02 |   18.728
 BASOPT|        4     |       1     | 0.20491880E-02 | 0.48779064E+02 |   23.227
 BASOPT|        4     |       2     | 0.53792880E-02 | 0.46580487E+02 |   19.091
 BASOPT|        4     |       3     | 0.56861384E-02 | 0.19559275E+02 |   17.202
 BASOPT|        5     |       1     | 0.21962115E-02 | 0.16595263E+03 |   17.520
 BASOPT|        5     |       2     | 0.40120861E-02 | 0.14694993E+03 |   15.085
 BASOPT|        5     |       3     | 0.41765148E-02 | 0.14949309E+02 |   13.892
 BASOPT| -----------------------------------------------------------------------
 BASOPT| Total residuum value: -.17729331E+04

 BASOPT| Information at iteration number:     900
 BASOPT| Training set | Combination | Rho difference | Condition num. | Time
 BASOPT| -----------------------------------------------------------------------
 BASOPT|        1     |       1     | 0.32011228E-02 | 0.37584554E+03 |   52.624
 BASOPT|        1     |       2     | 0.51347371E-02 | 0.14802422E+03 |   41.120
 BASOPT|        1     |       3     | 0.54888003E-02 | 0.60176150E+02 |   36.024
 BASOPT|        2     |       1     | 0.20909861E-02 | 0.78017269E+03 |   89.635
 BASOPT|        2     |       2     | 0.32936504E-02 | 0.15745854E+03 |   68.084
 BASOPT|        2     |       3     | 0.42437284E-02 | 0.84285151E+02 |   59.415
 BASOPT|        3     |       1     | 0.24840015E-02 | 0.26474922E+02 |   28.024
 BASOPT|        3     |       2     | 0.50340615E-02 | 0.25191254E+02 |   23.299
 BASOPT|        3     |       3     | 0.52320492E-02 | 0.15776986E+02 |   21.066
 BASOPT|        4     |       1     | 0.20537739E-02 | 0.48832289E+02 |   26.129
 BASOPT|        4     |       2     | 0.54231121E-02 | 0.46597395E+02 |   21.477
 BASOPT|        4     |       3     | 0.57292262E-02 | 0.19600006E+02 |   19.352
 BASOPT|        5     |       1     | 0.21879308E-02 | 0.16603159E+03 |   19.708
 BASOPT|        5     |       2     | 0.39816398E-02 | 0.14704164E+03 |   16.961
 BASOPT|        5     |       3     | 0.41437768E-02 | 0.14952283E+02 |   15.632
 BASOPT| -----------------------------------------------------------------------
 BASOPT| Total residuum value: -.17729342E+04

 BASOPT| Information at iteration number:    1000
 BASOPT| Training set | Combination | Rho difference | Condition num. | Time
 BASOPT| -----------------------------------------------------------------------
 BASOPT|        1     |       1     | 0.32027607E-02 | 0.37431587E+03 |   58.457
 BASOPT|        1     |       2     | 0.51290910E-02 | 0.14755540E+03 |   45.683
 BASOPT|        1     |       3     | 0.54851901E-02 | 0.60391143E+02 |   40.020
 BASOPT|        2     |       1     | 0.20893185E-02 | 0.77602297E+03 |   99.577
 BASOPT|        2     |       2     | 0.33082743E-02 | 0.15774034E+03 |   75.643
 BASOPT|        2     |       3     | 0.42658135E-02 | 0.84457809E+02 |   66.003
 BASOPT|        3     |       1     | 0.24853646E-02 | 0.26471148E+02 |   31.126
 BASOPT|        3     |       2     | 0.50498447E-02 | 0.25181458E+02 |   25.884
 BASOPT|        3     |       3     | 0.52437495E-02 | 0.15821003E+02 |   23.403
 BASOPT|        4     |       1     | 0.20568561E-02 | 0.48830213E+02 |   29.031
 BASOPT|        4     |       2     | 0.54586128E-02 | 0.46567048E+02 |   23.863
 BASOPT|        4     |       3     | 0.57628769E-02 | 0.19635695E+02 |   21.501
 BASOPT|        5     |       1     | 0.21810209E-02 | 0.16607006E+03 |   21.897
 BASOPT|        5     |       2     | 0.39562413E-02 | 0.14709538E+03 |   18.836
 BASOPT|        5     |       3     | 0.41104885E-02 | 0.14955022E+02 |   17.373
 BASOPT| -----------------------------------------------------------------------
 BASOPT| Total residuum value: -.17729353E+04

 BASOPT| Information at iteration number:    1100
 BASOPT| Training set | Combination | Rho difference | Condition num. | Time
 BASOPT| -----------------------------------------------------------------------
 BASOPT|        1     |       1     | 0.32029984E-02 | 0.37349599E+03 |   64.291
 BASOPT|        1     |       2     | 0.51241012E-02 | 0.14698098E+03 |   50.246
 BASOPT|        1     |       3     | 0.54805398E-02 | 0.60614401E+02 |   44.013
 BASOPT|        2     |       1     | 0.20869740E-02 | 0.77420453E+03 |  109.520
 BASOPT|        2     |       2     | 0.33253527E-02 | 0.15803865E+03 |   83.186
 BASOPT|        2     |       3     | 0.42816000E-02 | 0.84647690E+02 |   72.589
 BASOPT|        3     |       1     | 0.24851512E-02 | 0.26456334E+02 |   34.228
 BASOPT|        3     |       2     | 0.50658260E-02 | 0.25157505E+02 |   28.468
 BASOPT|        3     |       3     | 0.52619487E-02 | 0.15871011E+02 |   25.741
 BASOPT|        4     |       1     | 0.20560461E-02 | 0.48783839E+02 |   31.933
 BASOPT|        4     |       2     | 0.54935622E-02 | 0.46505889E+02 |   26.248
 BASOPT|        4     |       3     | 0.57971635E-02 | 0.19680293E+02 |   23.650
 BASOPT|        5     |       1     | 0.21742251E-02 | 0.16606333E+03 |   24.085
 BASOPT|        5     |       2     | 0.39301678E-02 | 0.14711131E+03 |   20.712
 BASOPT|        5     |       3     | 0.40801082E-02 | 0.14958260E+02 |   19.114
 BASOPT| -----------------------------------------------------------------------
 BASOPT| Total residuum value: -.17729362E+04

 BASOPT| Information at iteration number:    1200
 BASOPT| Training set | Combination | Rho difference | Condition num. | Time
 BASOPT| -----------------------------------------------------------------------
 BASOPT|        1     |       1     | 0.32051440E-02 | 0.37297863E+03 |   70.125
 BASOPT|        1     |       2     | 0.51220160E-02 | 0.14682990E+03 |   54.805
 BASOPT|        1     |       3     | 0.54797015E-02 | 0.60753991E+02 |   48.007
 BASOPT|        2     |       1     | 0.20854501E-02 | 0.77295718E+03 |  119.467
 BASOPT|        2     |       2     | 0.33314826E-02 | 0.15826891E+03 |   90.728
 BASOPT|        2     |       3     | 0.42830129E-02 | 0.84793610E+02 |   79.180
 BASOPT|        3     |       1     | 0.24867281E-02 | 0.26461819E+02 |   37.331
 BASOPT|        3     |       2     | 0.50776912E-02 | 0.25155821E+02 |   31.051
 BASOPT|        3     |       3     | 0.52719322E-02 | 0.15895644E+02 |   28.079
 BASOPT|        4     |       1     | 0.20578479E-02 | 0.48770873E+02 |   34.834
 BASOPT|        4     |       2     | 0.55185170E-02 | 0.46491534E+02 |   28.632
 BASOPT|        4     |       3     | 0.58207679E-02 | 0.19699457E+02 |   25.798
 BASOPT|        5     |       1     | 0.21691281E-02 | 0.16607124E+03 |   26.272
 BASOPT|        5     |       2     | 0.39137645E-02 | 0.14713323E+03 |   22.588
 BASOPT|        5     |       3     | 0.40643574E-02 | 0.14959092E+02 |   20.855
 BASOPT| -----------------------------------------------------------------------
 BASOPT| Total residuum value: -.17729368E+04

 BASOPT| Information at iteration number:    1300
 BASOPT| Training set | Combination | Rho difference | Condition num. | Time
 BASOPT| -----------------------------------------------------------------------
 BASOPT|        1     |       1     | 0.32051734E-02 | 0.37301496E+03 |   75.961
 BASOPT|        1     |       2     | 0.51201582E-02 | 0.14665291E+03 |   59.361
 BASOPT|        1     |       3     | 0.54784875E-02 | 0.60776068E+02 |   52.000
 BASOPT|        2     |       1     | 0.20847171E-02 | 0.77323512E+03 |  129.414
 BASOPT|        2     |       2     | 0.33331222E-02 | 0.15837201E+03 |   98.268
 BASOPT|        2     |       3     | 0.42822099E-02 | 0.84807899E+02 |   85.773
 BASOPT|        3     |       1     | 0.24864365E-02 | 0.26441946E+02 |   40.430
 BASOPT|        3     |       2     | 0.50811410E-02 | 0.25132193E+02 |   33.636
 BASOPT|        3     |       3     | 0.52757175E-02 | 0.15904194E+02 |   30.416
 BASOPT|        4     |       1     | 0.20571310E-02 | 0.48722703E+02 |   37.735
 BASOPT|        4     |       2     | 0.55260864E-02 | 0.46444858E+02 |   31.014
 BASOPT|        4     |       3     | 0.58277997E-02 | 0.19706645E+02 |   27.947
 BASOPT|        5     |       1     | 0.21677944E-02 | 0.16609473E+03 |   28.460
 BASOPT|        5     |       2     | 0.39078548E-02 | 0.14715557E+03 |   24.464
 BASOPT|        5     |       3     | 0.40589527E-02 | 0.14959810E+02 |   22.598
 BASOPT| -----------------------------------------------------------------------
 BASOPT| Total residuum value: -.17729370E+04

 BASOPT| Information at iteration number:    1400
 BASOPT| Training set | Combination | Rho difference | Condition num. | Time
 BASOPT| -----------------------------------------------------------------------
 BASOPT|        1     |       1     | 0.32037219E-02 | 0.37250857E+03 |   81.796
 BASOPT|        1     |       2     | 0.51200945E-02 | 0.14653050E+03 |   63.917
 BASOPT|        1     |       3     | 0.54783043E-02 | 0.60791376E+02 |   55.995
 BASOPT|        2     |       1     | 0.20843291E-02 | 0.77168117E+03 |  139.362
 BASOPT|        2     |       2     | 0.33384271E-02 | 0.15835121E+03 |  105.805
 BASOPT|        2     |       3     | 0.42896717E-02 | 0.84788773E+02 |   92.368
 BASOPT|        3     |       1     | 0.24855293E-02 | 0.26435943E+02 |   43.530
 BASOPT|        3     |       2     | 0.50822885E-02 | 0.25123002E+02 |   36.219
 BASOPT|        3     |       3     | 0.52787301E-02 | 0.15911227E+02 |   32.754
 BASOPT|        4     |       1     | 0.20559099E-02 | 0.48693572E+02 |   40.636
 BASOPT|        4     |       2     | 0.55291113E-02 | 0.46422079E+02 |   33.395
 BASOPT|        4     |       3     | 0.58313867E-02 | 0.19714194E+02 |   30.096
 BASOPT|        5     |       1     | 0.21677154E-02 | 0.16610184E+03 |   30.649
 BASOPT|        5     |       2     | 0.39066486E-02 | 0.14716262E+03 |   26.340
 BASOPT|        5     |       3     | 0.40559321E-02 | 0.14959696E+02 |   24.340
 BASOPT| -----------------------------------------------------------------------
 BASOPT| Total residuum value: -.17729373E+04

 BASOPT| Information at iteration number:    1500
 BASOPT| Training set | Combination | Rho difference | Condition num. | Time
 BASOPT| -----------------------------------------------------------------------
 BASOPT|        1     |       1     | 0.32038091E-02 | 0.37222601E+03 |   87.631
 BASOPT|        1     |       2     | 0.51209054E-02 | 0.14640462E+03 |   68.474
 BASOPT|        1     |       3     | 0.54794776E-02 | 0.60801577E+02 |   59.990
 BASOPT|        2     |       1     | 0.20836737E-02 | 0.77103268E+03 |  149.310
 BASOPT|        2     |       2     | 0.33382059E-02 | 0.15832355E+03 |  113.343
 BASOPT|        2     |       3     | 0.42894468E-02 | 0.84781610E+02 |   98.959
 BASOPT|        3     |       1     | 0.24854359E-02 | 0.26430226E+02 |   46.631
 BASOPT|        3     |       2     | 0.50831733E-02 | 0.25111749E+02 |   38.803
 BASOPT|        3     |       3     | 0.52790082E-02 | 0.15915451E+02 |   35.097
 BASOPT|        4     |       1     | 0.20551072E-02 | 0.48658476E+02 |   43.537
 BASOPT|        4     |       2     | 0.55307685E-02 | 0.46400874E+02 |   35.775
 BASOPT|        4     |       3     | 0.58327005E-02 | 0.19717800E+02 |   32.245
 BASOPT|        5     |       1     | 0.21665380E-02 | 0.16611222E+03 |   32.840
 BASOPT|        5     |       2     | 0.39057123E-02 | 0.14716828E+03 |   28.217
 BASOPT|        5     |       3     | 0.40550059E-02 | 0.14960189E+02 |   26.083
 BASOPT| -----------------------------------------------------------------------
 BASOPT| Total residuum value: -.17729376E+04

 BASOPT| Information at iteration number:    1600
 BASOPT| Training set | Combination | Rho difference | Condition num. | Time
 BASOPT| -----------------------------------------------------------------------
 BASOPT|        1     |       1     | 0.32036014E-02 | 0.37177373E+03 |   93.464
 BASOPT|        1     |       2     | 0.51217746E-02 | 0.14611261E+03 |   73.030
 BASOPT|        1     |       3     | 0.54815471E-02 | 0.60821579E+02 |   63.984
 BASOPT|        2     |       1     | 0.20825835E-02 | 0.77004815E+03 |  159.256
 BASOPT|        2     |       2     | 0.33398772E-02 | 0.15829252E+03 |  120.881
 BASOPT|        2     |       3     | 0.42941461E-02 | 0.84761331E+02 |  105.559
 BASOPT|        3     |       1     | 0.24847173E-02 | 0.26421100E+02 |   49.732
 BASOPT|        3     |       2     | 0.50855153E-02 | 0.25090729E+02 |   41.386
 BASOPT|        3     |       3     | 0.52802808E-02 | 0.15926193E+02 |   37.443
 BASOPT|        4     |       1     | 0.20531827E-02 | 0.48591544E+02 |   46.438
 BASOPT|        4     |       2     | 0.55360376E-02 | 0.46359429E+02 |   38.157
 BASOPT|        4     |       3     | 0.58375294E-02 | 0.19728353E+02 |   34.393
 BASOPT|        5     |       1     | 0.21641557E-02 | 0.16613220E+03 |   35.043
 BASOPT|        5     |       2     | 0.39029199E-02 | 0.14717875E+03 |   30.093
 BASOPT|        5     |       3     | 0.40504653E-02 | 0.14960855E+02 |   27.826
 BASOPT| -----------------------------------------------------------------------
 BASOPT| Total residuum value: -.17729379E+04

 BASOPT| Information at iteration number:    1700
 BASOPT| Training set | Combination | Rho difference | Condition num. | Time
 BASOPT| -----------------------------------------------------------------------
 BASOPT|        1     |       1     | 0.32034206E-02 | 0.37127595E+03 |   99.298
 BASOPT|        1     |       2     | 0.51222751E-02 | 0.14551155E+03 |   77.588
 BASOPT|        1     |       3     | 0.54831601E-02 | 0.60844774E+02 |   67.977
 BASOPT|        2     |       1     | 0.20811976E-02 | 0.76962248E+03 |  169.205
 BASOPT|        2     |       2     | 0.33425339E-02 | 0.15824612E+03 |  128.419
 BASOPT|        2     |       3     | 0.42958125E-02 | 0.84730811E+02 |  112.153
 BASOPT|        3     |       1     | 0.24832694E-02 | 0.26398849E+02 |   52.833
 BASOPT|        3     |       2     | 0.50890128E-02 | 0.25050125E+02 |   43.973
 BASOPT|        3     |       3     | 0.52849953E-02 | 0.15943448E+02 |   39.782
 BASOPT|        4     |       1     | 0.20495980E-02 | 0.48482255E+02 |   49.339
 BASOPT|        4     |       2     | 0.55438746E-02 | 0.46283459E+02 |   40.538
 BASOPT|        4     |       3     | 0.58450343E-02 | 0.19746160E+02 |   36.540
 BASOPT|        5     |       1     | 0.21608429E-02 | 0.16613793E+03 |   37.234
 BASOPT|        5     |       2     | 0.38978327E-02 | 0.14717244E+03 |   31.969
 BASOPT|        5     |       3     | 0.40449827E-02 | 0.14961102E+02 |   29.568
 BASOPT| -----------------------------------------------------------------------
 BASOPT| Total residuum value: -.17729384E+04

 BASOPT| Information at iteration number:    1800
 BASOPT| Training set | Combination | Rho difference | Condition num. | Time
 BASOPT| -----------------------------------------------------------------------
 BASOPT|        1     |       1     | 0.32037931E-02 | 0.37047465E+03 |  105.132
 BASOPT|        1     |       2     | 0.51237419E-02 | 0.14433370E+03 |   82.146
 BASOPT|        1     |       3     | 0.54843641E-02 | 0.60896436E+02 |   71.973
 BASOPT|        2     |       1     | 0.20797099E-02 | 0.76972594E+03 |  179.156
 BASOPT|        2     |       2     | 0.33437903E-02 | 0.15807571E+03 |  135.959
 BASOPT|        2     |       3     | 0.42973790E-02 | 0.84819488E+02 |  118.745
 BASOPT|        3     |       1     | 0.24817711E-02 | 0.26354320E+02 |   55.936
 BASOPT|        3     |       2     | 0.50921634E-02 | 0.24983183E+02 |   46.560
 BASOPT|        3     |       3     | 0.52871880E-02 | 0.15949872E+02 |   42.120
 BASOPT|        4     |       1     | 0.20448605E-02 | 0.48314054E+02 |   52.240
 BASOPT|        4     |       2     | 0.55499894E-02 | 0.46160926E+02 |   42.919
 BASOPT|        4     |       3     | 0.58510848E-02 | 0.19749670E+02 |   38.686
 BASOPT|        5     |       1     | 0.21580496E-02 | 0.16610458E+03 |   39.423
 BASOPT|        5     |       2     | 0.38936864E-02 | 0.14713229E+03 |   33.845
 BASOPT|        5     |       3     | 0.40397291E-02 | 0.14960717E+02 |   31.311
 BASOPT| -----------------------------------------------------------------------
 BASOPT| Total residuum value: -.17729389E+04

 BASOPT| Information at iteration number:    1900
 BASOPT| Training set | Combination | Rho difference | Condition num. | Time
 BASOPT| -----------------------------------------------------------------------
 BASOPT|        1     |       1     | 0.32055341E-02 | 0.36907058E+03 |  110.967
 BASOPT|        1     |       2     | 0.51278162E-02 | 0.14297053E+03 |   86.703
 BASOPT|        1     |       3     | 0.54893796E-02 | 0.60894976E+02 |   75.967
 BASOPT|        2     |       1     | 0.20789256E-02 | 0.76805609E+03 |  189.108
 BASOPT|        2     |       2     | 0.33430106E-02 | 0.15773626E+03 |  143.502
 BASOPT|        2     |       3     | 0.42973271E-02 | 0.84782310E+02 |  125.341
 BASOPT|        3     |       1     | 0.24809475E-02 | 0.26323157E+02 |   59.038
 BASOPT|        3     |       2     | 0.50932246E-02 | 0.24925259E+02 |   49.144
 BASOPT|        3     |       3     | 0.52886730E-02 | 0.15968607E+02 |   44.458
 BASOPT|        4     |       1     | 0.20420118E-02 | 0.48162809E+02 |   55.142
 BASOPT|        4     |       2     | 0.55525081E-02 | 0.46052915E+02 |   45.300
 BASOPT|        4     |       3     | 0.58533535E-02 | 0.19770692E+02 |   40.833
 BASOPT|        5     |       1     | 0.21538626E-02 | 0.16607307E+03 |   41.612
 BASOPT|        5     |       2     | 0.38928268E-02 | 0.14708181E+03 |   35.720
 BASOPT|        5     |       3     | 0.40384032E-02 | 0.14962805E+02 |   33.053
 BASOPT| -----------------------------------------------------------------------
 BASOPT| Total residuum value: -.17729394E+04

 BASOPT| Information at iteration number:    2000
 BASOPT| Training set | Combination | Rho difference | Condition num. | Time
 BASOPT| -----------------------------------------------------------------------
 BASOPT|        1     |       1     | 0.32017014E-02 | 0.36607499E+03 |  116.802
 BASOPT|        1     |       2     | 0.51338450E-02 | 0.14032966E+03 |   91.260
 BASOPT|        1     |       3     | 0.54963497E-02 | 0.60847253E+02 |   79.962
 BASOPT|        2     |       1     | 0.20768778E-02 | 0.76401816E+03 |  199.058
 BASOPT|        2     |       2     | 0.33442407E-02 | 0.15683231E+03 |  151.044
 BASOPT|        2     |       3     | 0.43020469E-02 | 0.84660508E+02 |  131.936
 BASOPT|        3     |       1     | 0.24757985E-02 | 0.26254958E+02 |   62.140
 BASOPT|        3     |       2     | 0.50888537E-02 | 0.24803935E+02 |   51.728
 BASOPT|        3     |       3     | 0.52897107E-02 | 0.15979252E+02 |   46.796
 BASOPT|        4     |       1     | 0.20292140E-02 | 0.47790507E+02 |   58.044
 BASOPT|        4     |       2     | 0.55422556E-02 | 0.45790514E+02 |   47.681
 BASOPT|        4     |       3     | 0.58443313E-02 | 0.19780961E+02 |   42.980
 BASOPT|        5     |       1     | 0.21531245E-02 | 0.16591595E+03 |   43.803
 BASOPT|        5     |       2     | 0.39013864E-02 | 0.14691291E+03 |   37.596
 BASOPT|        5     |       3     | 0.40474682E-02 | 0.14958568E+02 |   34.796
 BASOPT| -----------------------------------------------------------------------
 BASOPT| Total residuum value: -.17729404E+04

 BASOPT| Information at iteration number:    2100
 BASOPT| Training set | Combination | Rho difference | Condition num. | Time
 BASOPT| -----------------------------------------------------------------------
 BASOPT|        1     |       1     | 0.32027652E-02 | 0.36587378E+03 |  122.639
 BASOPT|        1     |       2     | 0.51339426E-02 | 0.13997696E+03 |   95.819
 BASOPT|        1     |       3     | 0.54963085E-02 | 0.60871609E+02 |   83.957
 BASOPT|        2     |       1     | 0.20759967E-02 | 0.76412352E+03 |  209.013
 BASOPT|        2     |       2     | 0.33436246E-02 | 0.15679816E+03 |  158.587
 BASOPT|        2     |       3     | 0.43017435E-02 | 0.84733044E+02 |  138.533
 BASOPT|        3     |       1     | 0.24755951E-02 | 0.26251111E+02 |   65.242
 BASOPT|        3     |       2     | 0.50912866E-02 | 0.24791340E+02 |   54.313
 BASOPT|        3     |       3     | 0.52871148E-02 | 0.15978515E+02 |   49.135
 BASOPT|        4     |       1     | 0.20282274E-02 | 0.47744407E+02 |   60.946
 BASOPT|        4     |       2     | 0.55474915E-02 | 0.45756919E+02 |   50.063
 BASOPT|        4     |       3     | 0.58484165E-02 | 0.19776454E+02 |   45.126
 BASOPT|        5     |       1     | 0.21513801E-02 | 0.16593066E+03 |   45.994
 BASOPT|        5     |       2     | 0.38976651E-02 | 0.14692781E+03 |   39.472
 BASOPT|        5     |       3     | 0.40426641E-02 | 0.14959621E+02 |   36.539
 BASOPT| -----------------------------------------------------------------------
 BASOPT| Total residuum value: -.17729408E+04

 BASOPT| Information at iteration number:    2200
 BASOPT| Training set | Combination | Rho difference | Condition num. | Time
 BASOPT| -----------------------------------------------------------------------
 BASOPT|        1     |       1     | 0.32013795E-02 | 0.36534104E+03 |  128.475
 BASOPT|        1     |       2     | 0.51355511E-02 | 0.13931100E+03 |  100.375
 BASOPT|        1     |       3     | 0.54976425E-02 | 0.60844717E+02 |   87.952
 BASOPT|        2     |       1     | 0.20754257E-02 | 0.76374628E+03 |  218.966
 BASOPT|        2     |       2     | 0.33433044E-02 | 0.15655806E+03 |  166.129
 BASOPT|        2     |       3     | 0.43009648E-02 | 0.84712562E+02 |  145.130
 BASOPT|        3     |       1     | 0.24738661E-02 | 0.26244958E+02 |   68.344
 BASOPT|        3     |       2     | 0.50889676E-02 | 0.24771052E+02 |   56.899
 BASOPT|        3     |       3     | 0.52858314E-02 | 0.15979010E+02 |   51.473
 BASOPT|        4     |       1     | 0.20238951E-02 | 0.47666655E+02 |   63.847
 BASOPT|        4     |       2     | 0.55420403E-02 | 0.45708110E+02 |   52.445
 BASOPT|        4     |       3     | 0.58433192E-02 | 0.19776905E+02 |   47.273
 BASOPT|        5     |       1     | 0.21513975E-02 | 0.16590731E+03 |   48.183
 BASOPT|        5     |       2     | 0.39007995E-02 | 0.14689585E+03 |   41.349
 BASOPT|        5     |       3     | 0.40463744E-02 | 0.14959220E+02 |   38.282
 BASOPT| -----------------------------------------------------------------------
 BASOPT| Total residuum value: -.17729411E+04

 BASOPT| Information at iteration number:    2300
 BASOPT| Training set | Combination | Rho difference | Condition num. | Time
 BASOPT| -----------------------------------------------------------------------
 BASOPT|        1     |       1     | 0.31977378E-02 | 0.36354072E+03 |  134.308
 BASOPT|        1     |       2     | 0.51389269E-02 | 0.13799118E+03 |  104.931
 BASOPT|        1     |       3     | 0.55021497E-02 | 0.60698115E+02 |   91.946
 BASOPT|        2     |       1     | 0.20742992E-02 | 0.76008606E+03 |  228.918
 BASOPT|        2     |       2     | 0.33384564E-02 | 0.15592693E+03 |  173.669
 BASOPT|        2     |       3     | 0.43016793E-02 | 0.84506530E+02 |  151.725
 BASOPT|        3     |       1     | 0.24702260E-02 | 0.26223342E+02 |   71.446
 BASOPT|        3     |       2     | 0.50810985E-02 | 0.24711168E+02 |   59.485
 BASOPT|        3     |       3     | 0.52775507E-02 | 0.15977798E+02 |   53.810
 BASOPT|        4     |       1     | 0.20148155E-02 | 0.47453425E+02 |   66.748
 BASOPT|        4     |       2     | 0.55245189E-02 | 0.45571933E+02 |   54.827
 BASOPT|        4     |       3     | 0.58255760E-02 | 0.19778380E+02 |   49.419
 BASOPT|        5     |       1     | 0.21520958E-02 | 0.16590427E+03 |   50.372
 BASOPT|        5     |       2     | 0.39127300E-02 | 0.14685984E+03 |   43.224
 BASOPT|        5     |       3     | 0.40576937E-02 | 0.14960914E+02 |   40.030
 BASOPT| -----------------------------------------------------------------------
 BASOPT| Total residuum value: -.17729418E+04

 BASOPT| Information at iteration number:    2400
 BASOPT| Training set | Combination | Rho difference | Condition num. | Time
 BASOPT| -----------------------------------------------------------------------
 BASOPT|        1     |       1     | 0.31931768E-02 | 0.35986275E+03 |  140.142
 BASOPT|        1     |       2     | 0.51459810E-02 | 0.13508536E+03 |  109.489
 BASOPT|        1     |       3     | 0.55111943E-02 | 0.60521867E+02 |   95.940
 BASOPT|        2     |       1     | 0.20725054E-02 | 0.75404306E+03 |  238.868
 BASOPT|        2     |       2     | 0.33368685E-02 | 0.15482837E+03 |  181.210
 BASOPT|        2     |       3     | 0.43059881E-02 | 0.84266921E+02 |  158.321
 BASOPT|        3     |       1     | 0.24632672E-02 | 0.26207537E+02 |   74.547
 BASOPT|        3     |       2     | 0.50735293E-02 | 0.24605383E+02 |   62.069
 BASOPT|        3     |       3     | 0.52699174E-02 | 0.15990006E+02 |   56.148
 BASOPT|        4     |       1     | 0.19965730E-02 | 0.47045615E+02 |   69.651
 BASOPT|        4     |       2     | 0.55072541E-02 | 0.45307350E+02 |   57.213
 BASOPT|        4     |       3     | 0.58079615E-02 | 0.19793303E+02 |   51.565
 BASOPT|        5     |       1     | 0.21504285E-02 | 0.16585292E+03 |   52.562
 BASOPT|        5     |       2     | 0.39255510E-02 | 0.14676288E+03 |   45.099
 BASOPT|        5     |       3     | 0.40703840E-02 | 0.14963558E+02 |   41.773
 BASOPT| -----------------------------------------------------------------------
 BASOPT| Total residuum value: -.17729430E+04

 BASOPT| Information at iteration number:    2500
 BASOPT| Training set | Combination | Rho difference | Condition num. | Time
 BASOPT| -----------------------------------------------------------------------
 BASOPT|        1     |       1     | 0.31928664E-02 | 0.35937818E+03 |  145.977
 BASOPT|        1     |       2     | 0.51455924E-02 | 0.13473978E+03 |  114.053
 BASOPT|        1     |       3     | 0.55108533E-02 | 0.60482418E+02 |   99.935
 BASOPT|        2     |       1     | 0.20723126E-02 | 0.75322551E+03 |  248.818
 BASOPT|        2     |       2     | 0.33351067E-02 | 0.15469463E+03 |  188.753
 BASOPT|        2     |       3     | 0.43018202E-02 | 0.84207014E+02 |  164.918
 BASOPT|        3     |       1     | 0.24627443E-02 | 0.26197257E+02 |   77.647
 BASOPT|        3     |       2     | 0.50728801E-02 | 0.24585064E+02 |   64.656
 BASOPT|        3     |       3     | 0.52699283E-02 | 0.15990668E+02 |   58.486
 BASOPT|        4     |       1     | 0.19950032E-02 | 0.46981487E+02 |   72.553
 BASOPT|        4     |       2     | 0.55056642E-02 | 0.45257093E+02 |   59.595
 BASOPT|        4     |       3     | 0.58061095E-02 | 0.19794011E+02 |   53.713
 BASOPT|        5     |       1     | 0.21505147E-02 | 0.16583602E+03 |   54.753
 BASOPT|        5     |       2     | 0.39263969E-02 | 0.14674299E+03 |   46.975
 BASOPT|        5     |       3     | 0.40722444E-02 | 0.14962701E+02 |   43.515
 BASOPT| -----------------------------------------------------------------------
 BASOPT| Total residuum value: -.17729431E+04

 BASOPT| Information at iteration number:    2600
 BASOPT| Training set | Combination | Rho difference | Condition num. | Time
 BASOPT| -----------------------------------------------------------------------
 BASOPT|        1     |       1     | 0.31930022E-02 | 0.35902705E+03 |  151.812
 BASOPT|        1     |       2     | 0.51449145E-02 | 0.13437872E+03 |  118.647
 BASOPT|        1     |       3     | 0.55103188E-02 | 0.60493553E+02 |  103.929
 BASOPT|        2     |       1     | 0.20719178E-02 | 0.75279826E+03 |  258.765
 BASOPT|        2     |       2     | 0.33376566E-02 | 0.15465540E+03 |  196.294
 BASOPT|        2     |       3     | 0.43028021E-02 | 0.84217560E+02 |  171.514
 BASOPT|        3     |       1     | 0.24623044E-02 | 0.26195089E+02 |   80.748
 BASOPT|        3     |       2     | 0.50756519E-02 | 0.24572344E+02 |   67.244
 BASOPT|        3     |       3     | 0.52734877E-02 | 0.15997960E+02 |   60.825
 BASOPT|        4     |       1     | 0.19936217E-02 | 0.46929342E+02 |   75.455
 BASOPT|        4     |       2     | 0.55115062E-02 | 0.45213479E+02 |   61.977
 BASOPT|        4     |       3     | 0.58117593E-02 | 0.19799994E+02 |   55.857
 BASOPT|        5     |       1     | 0.21497647E-02 | 0.16582844E+03 |   56.943
 BASOPT|        5     |       2     | 0.39225490E-02 | 0.14673959E+03 |   48.851
 BASOPT|        5     |       3     | 0.40685508E-02 | 0.14962752E+02 |   45.258
 BASOPT| -----------------------------------------------------------------------
 BASOPT| Total residuum value: -.17729432E+04

 BASOPT| Information at iteration number:    2700
 BASOPT| Training set | Combination | Rho difference | Condition num. | Time
 BASOPT| -----------------------------------------------------------------------
 BASOPT|        1     |       1     | 0.31914044E-02 | 0.35852914E+03 |  157.647
 BASOPT|        1     |       2     | 0.51456978E-02 | 0.13394873E+03 |  123.218
 BASOPT|        1     |       3     | 0.55130040E-02 | 0.60435563E+02 |  107.925
 BASOPT|        2     |       1     | 0.20708601E-02 | 0.75179763E+03 |  268.713
 BASOPT|        2     |       2     | 0.33369734E-02 | 0.15441266E+03 |  203.838
 BASOPT|        2     |       3     | 0.43048759E-02 | 0.84096846E+02 |  178.109
 BASOPT|        3     |       1     | 0.24606865E-02 | 0.26190436E+02 |   83.850
 BASOPT|        3     |       2     | 0.50734229E-02 | 0.24551423E+02 |   69.834
 BASOPT|        3     |       3     | 0.52701455E-02 | 0.16001334E+02 |   63.165
 BASOPT|        4     |       1     | 0.19901051E-02 | 0.46860982E+02 |   78.356
 BASOPT|        4     |       2     | 0.55069301E-02 | 0.45162969E+02 |   64.359
 BASOPT|        4     |       3     | 0.58065120E-02 | 0.19804472E+02 |   58.002
 BASOPT|        5     |       1     | 0.21492672E-02 | 0.16578388E+03 |   59.133
 BASOPT|        5     |       2     | 0.39251960E-02 | 0.14669170E+03 |   50.728
 BASOPT|        5     |       3     | 0.40710113E-02 | 0.14960892E+02 |   47.001
 BASOPT| -----------------------------------------------------------------------
 BASOPT| Total residuum value: -.17729435E+04

 BASOPT| Information at iteration number:    2800
 BASOPT| Training set | Combination | Rho difference | Condition num. | Time
 BASOPT| -----------------------------------------------------------------------
 BASOPT|        1     |       1     | 0.31895184E-02 | 0.35774599E+03 |  163.483
 BASOPT|        1     |       2     | 0.51456685E-02 | 0.13363704E+03 |  127.778
 BASOPT|        1     |       3     | 0.55133420E-02 | 0.60374794E+02 |  111.921
 BASOPT|        2     |       1     | 0.20705268E-02 | 0.74970394E+03 |  278.662
 BASOPT|        2     |       2     | 0.33350962E-02 | 0.15417112E+03 |  211.383
 BASOPT|        2     |       3     | 0.43065536E-02 | 0.83965399E+02 |  184.703
 BASOPT|        3     |       1     | 0.24595043E-02 | 0.26186899E+02 |   86.952
 BASOPT|        3     |       2     | 0.50708303E-02 | 0.24533297E+02 |   72.425
 BASOPT|        3     |       3     | 0.52676975E-02 | 0.16003220E+02 |   65.504
 BASOPT|        4     |       1     | 0.19872556E-02 | 0.46797152E+02 |   81.258
 BASOPT|        4     |       2     | 0.55011828E-02 | 0.45118947E+02 |   66.740
 BASOPT|        4     |       3     | 0.58005465E-02 | 0.19807400E+02 |   60.146
 BASOPT|        5     |       1     | 0.21498023E-02 | 0.16575696E+03 |   61.324
 BASOPT|        5     |       2     | 0.39291970E-02 | 0.14665680E+03 |   52.604
 BASOPT|        5     |       3     | 0.40731135E-02 | 0.14960388E+02 |   48.744
 BASOPT| -----------------------------------------------------------------------
 BASOPT| Total residuum value: -.17729437E+04

 BASOPT| Information at iteration number:    2900
 BASOPT| Training set | Combination | Rho difference | Condition num. | Time
 BASOPT| -----------------------------------------------------------------------
 BASOPT|        1     |       1     | 0.31867733E-02 | 0.35721024E+03 |  169.319
 BASOPT|        1     |       2     | 0.51451493E-02 | 0.13336065E+03 |  132.338
 BASOPT|        1     |       3     | 0.55139482E-02 | 0.60316458E+02 |  115.916
 BASOPT|        2     |       1     | 0.20698819E-02 | 0.74828745E+03 |  288.612
 BASOPT|        2     |       2     | 0.33349053E-02 | 0.15393981E+03 |  218.925
 BASOPT|        2     |       3     | 0.43080611E-02 | 0.83846101E+02 |  191.298
 BASOPT|        3     |       1     | 0.24578797E-02 | 0.26176558E+02 |   90.054
 BASOPT|        3     |       2     | 0.50687293E-02 | 0.24508843E+02 |   75.013
 BASOPT|        3     |       3     | 0.52658469E-02 | 0.16001377E+02 |   67.848
 BASOPT|        4     |       1     | 0.19835933E-02 | 0.46721397E+02 |   84.158
 BASOPT|        4     |       2     | 0.54962919E-02 | 0.45062550E+02 |   69.122
 BASOPT|        4     |       3     | 0.57952688E-02 | 0.19804870E+02 |   62.292
 BASOPT|        5     |       1     | 0.21511027E-02 | 0.16569853E+03 |   63.516
 BASOPT|        5     |       2     | 0.39327550E-02 | 0.14660123E+03 |   54.481
 BASOPT|        5     |       3     | 0.40768075E-02 | 0.14957746E+02 |   50.486
 BASOPT| -----------------------------------------------------------------------
 BASOPT| Total residuum value: -.17729439E+04

 BASOPT| Information at iteration number:    3000
 BASOPT| Training set | Combination | Rho difference | Condition num. | Time
 BASOPT| -----------------------------------------------------------------------
 BASOPT|        1     |       1     | 0.31844421E-02 | 0.35659945E+03 |  175.154
 BASOPT|        1     |       2     | 0.51452164E-02 | 0.13302908E+03 |  136.896
 BASOPT|        1     |       3     | 0.55143663E-02 | 0.60265685E+02 |  119.912
 BASOPT|        2     |       1     | 0.20696634E-02 | 0.74683114E+03 |  298.562
 BASOPT|        2     |       2     | 0.33345140E-02 | 0.15369584E+03 |  226.472
 BASOPT|        2     |       3     | 0.43089139E-02 | 0.83754953E+02 |  197.891
 BASOPT|        3     |       1     | 0.24563737E-02 | 0.26158593E+02 |   93.157
 BASOPT|        3     |       2     | 0.50658980E-02 | 0.24478989E+02 |   77.598
 BASOPT|        3     |       3     | 0.52631626E-02 | 0.15996231E+02 |   70.191
 BASOPT|        4     |       1     | 0.19801987E-02 | 0.46641064E+02 |   87.060
 BASOPT|        4     |       2     | 0.54897934E-02 | 0.45000565E+02 |   71.504
 BASOPT|        4     |       3     | 0.57886340E-02 | 0.19799169E+02 |   64.436
 BASOPT|        5     |       1     | 0.21525592E-02 | 0.16563176E+03 |   65.707
 BASOPT|        5     |       2     | 0.39372237E-02 | 0.14653915E+03 |   56.358
 BASOPT|        5     |       3     | 0.40815139E-02 | 0.14955324E+02 |   52.229
 BASOPT| -----------------------------------------------------------------------
 BASOPT| Total residuum value: -.17729441E+04

 BASOPT| Information at iteration number:    3100
 BASOPT| Training set | Combination | Rho difference | Condition num. | Time
 BASOPT| -----------------------------------------------------------------------
 BASOPT|        1     |       1     | 0.31824334E-02 | 0.35554438E+03 |  180.990
 BASOPT|        1     |       2     | 0.51459263E-02 | 0.13264365E+03 |  141.453
 BASOPT|        1     |       3     | 0.55171908E-02 | 0.60223246E+02 |  123.907
 BASOPT|        2     |       1     | 0.20689672E-02 | 0.74417809E+03 |  308.509
 BASOPT|        2     |       2     | 0.33356575E-02 | 0.15346698E+03 |  234.018
 BASOPT|        2     |       3     | 0.43165019E-02 | 0.83637214E+02 |  204.484
 BASOPT|        3     |       1     | 0.24545455E-02 | 0.26157238E+02 |   96.259
 BASOPT|        3     |       2     | 0.50643233E-02 | 0.24454602E+02 |   80.183
 BASOPT|        3     |       3     | 0.52589914E-02 | 0.16000819E+02 |   72.529
 BASOPT|        4     |       1     | 0.19759281E-02 | 0.46557255E+02 |   89.961
 BASOPT|        4     |       2     | 0.54868021E-02 | 0.44942823E+02 |   73.886
 BASOPT|        4     |       3     | 0.57847169E-02 | 0.19803694E+02 |   66.582
 BASOPT|        5     |       1     | 0.21517389E-02 | 0.16559311E+03 |   67.896
 BASOPT|        5     |       2     | 0.39395018E-02 | 0.14649456E+03 |   58.234
 BASOPT|        5     |       3     | 0.40816574E-02 | 0.14954405E+02 |   53.971
 BASOPT| -----------------------------------------------------------------------
 BASOPT| Total residuum value: -.17729444E+04

 BASOPT| Information at iteration number:    3200
 BASOPT| Training set | Combination | Rho difference | Condition num. | Time
 BASOPT| -----------------------------------------------------------------------
 BASOPT|        1     |       1     | 0.31820646E-02 | 0.35503260E+03 |  186.827
 BASOPT|        1     |       2     | 0.51461588E-02 | 0.13240443E+03 |  146.012
 BASOPT|        1     |       3     | 0.55185748E-02 | 0.60220189E+02 |  127.904
 BASOPT|        2     |       1     | 0.20680882E-02 | 0.74320456E+03 |  318.459
 BASOPT|        2     |       2     | 0.33360780E-02 | 0.15338282E+03 |  241.563
 BASOPT|        2     |       3     | 0.43165698E-02 | 0.83576011E+02 |  211.075
 BASOPT|        3     |       1     | 0.24541139E-02 | 0.26161093E+02 |   99.360
 BASOPT|        3     |       2     | 0.50662066E-02 | 0.24441284E+02 |   82.767
 BASOPT|        3     |       3     | 0.52615407E-02 | 0.16012762E+02 |   74.866
 BASOPT|        4     |       1     | 0.19738634E-02 | 0.46504206E+02 |   92.862
 BASOPT|        4     |       2     | 0.54905367E-02 | 0.44905399E+02 |   76.267
 BASOPT|        4     |       3     | 0.57879454E-02 | 0.19816856E+02 |   68.728
 BASOPT|        5     |       1     | 0.21503969E-02 | 0.16554801E+03 |   70.087
 BASOPT|        5     |       2     | 0.39376181E-02 | 0.14645188E+03 |   60.111
 BASOPT|        5     |       3     | 0.40796526E-02 | 0.14953810E+02 |   55.713
 BASOPT| -----------------------------------------------------------------------
 BASOPT| Total residuum value: -.17729446E+04

 BASOPT| Information at iteration number:    3300
 BASOPT| Training set | Combination | Rho difference | Condition num. | Time
 BASOPT| -----------------------------------------------------------------------
 BASOPT|        1     |       1     | 0.31828733E-02 | 0.35478416E+03 |  192.664
 BASOPT|        1     |       2     | 0.51481581E-02 | 0.13202209E+03 |  150.571
 BASOPT|        1     |       3     | 0.55226036E-02 | 0.60251802E+02 |  131.899
 BASOPT|        2     |       1     | 0.20673589E-02 | 0.74364653E+03 |  328.405
 BASOPT|        2     |       2     | 0.33397302E-02 | 0.15335301E+03 |  249.105
 BASOPT|        2     |       3     | 0.43216244E-02 | 0.83567318E+02 |  217.666
 BASOPT|        3     |       1     | 0.24532260E-02 | 0.26173275E+02 |  102.461
 BASOPT|        3     |       2     | 0.50689455E-02 | 0.24436545E+02 |   85.352
 BASOPT|        3     |       3     | 0.52645985E-02 | 0.16031866E+02 |   77.204
 BASOPT|        4     |       1     | 0.19716094E-02 | 0.46478666E+02 |   95.764
 BASOPT|        4     |       2     | 0.54971049E-02 | 0.44890015E+02 |   78.648
 BASOPT|        4     |       3     | 0.57942896E-02 | 0.19838071E+02 |   70.874
 BASOPT|        5     |       1     | 0.21475714E-02 | 0.16549368E+03 |   72.278
 BASOPT|        5     |       2     | 0.39336202E-02 | 0.14639967E+03 |   61.987
 BASOPT|        5     |       3     | 0.40749640E-02 | 0.14954053E+02 |   57.454
 BASOPT| -----------------------------------------------------------------------
 BASOPT| Total residuum value: -.17729448E+04

 BASOPT| Information at iteration number:    3400
 BASOPT| Training set | Combination | Rho difference | Condition num. | Time
 BASOPT| -----------------------------------------------------------------------
 BASOPT|        1     |       1     | 0.31838229E-02 | 0.35428963E+03 |  198.500
 BASOPT|        1     |       2     | 0.51490445E-02 | 0.13168553E+03 |  155.129
 BASOPT|        1     |       3     | 0.55230546E-02 | 0.60283693E+02 |  135.894
 BASOPT|        2     |       1     | 0.20670741E-02 | 0.74306325E+03 |  338.354
 BASOPT|        2     |       2     | 0.33396405E-02 | 0.15326378E+03 |  256.645
 BASOPT|        2     |       3     | 0.43210606E-02 | 0.83606223E+02 |  224.258
 BASOPT|        3     |       1     | 0.24532526E-02 | 0.26185766E+02 |  105.561
 BASOPT|        3     |       2     | 0.50708833E-02 | 0.24438157E+02 |   87.937
 BASOPT|        3     |       3     | 0.52662884E-02 | 0.16039057E+02 |   79.542
 BASOPT|        4     |       1     | 0.19706208E-02 | 0.46464512E+02 |   98.666
 BASOPT|        4     |       2     | 0.55009043E-02 | 0.44885409E+02 |   81.030
 BASOPT|        4     |       3     | 0.57981236E-02 | 0.19844647E+02 |   73.020
 BASOPT|        5     |       1     | 0.21459536E-02 | 0.16546568E+03 |   74.469
 BASOPT|        5     |       2     | 0.39312669E-02 | 0.14637226E+03 |   63.862
 BASOPT|        5     |       3     | 0.40719150E-02 | 0.14954230E+02 |   59.196
 BASOPT| -----------------------------------------------------------------------
 BASOPT| Total residuum value: -.17729450E+04

 BASOPT| Information at iteration number:    3500
 BASOPT| Training set | Combination | Rho difference | Condition num. | Time
 BASOPT| -----------------------------------------------------------------------
 BASOPT|        1     |       1     | 0.31833345E-02 | 0.35306832E+03 |  204.336
 BASOPT|        1     |       2     | 0.51500673E-02 | 0.13099792E+03 |  159.692
 BASOPT|        1     |       3     | 0.55233654E-02 | 0.60310387E+02 |  139.888
 BASOPT|        2     |       1     | 0.20669012E-02 | 0.74062620E+03 |  348.303
 BASOPT|        2     |       2     | 0.33415206E-02 | 0.15296769E+03 |  264.182
 BASOPT|        2     |       3     | 0.43222081E-02 | 0.83632100E+02 |  230.850
 BASOPT|        3     |       1     | 0.24519602E-02 | 0.26194932E+02 |  108.662
 BASOPT|        3     |       2     | 0.50713257E-02 | 0.24426531E+02 |   90.524
 BASOPT|        3     |       3     | 0.52667291E-02 | 0.16041274E+02 |   81.879
 BASOPT|        4     |       1     | 0.19671477E-02 | 0.46408429E+02 |  101.567
 BASOPT|        4     |       2     | 0.55016681E-02 | 0.44847858E+02 |   83.411
 BASOPT|        4     |       3     | 0.57987659E-02 | 0.19844048E+02 |   75.165
 BASOPT|        5     |       1     | 0.21446422E-02 | 0.16541776E+03 |   76.660
 BASOPT|        5     |       2     | 0.39308847E-02 | 0.14632675E+03 |   65.738
 BASOPT|        5     |       3     | 0.40722211E-02 | 0.14953122E+02 |   60.938
 BASOPT| -----------------------------------------------------------------------
 BASOPT| Total residuum value: -.17729453E+04

 BASOPT| Information at iteration number:    3600
 BASOPT| Training set | Combination | Rho difference | Condition num. | Time
 BASOPT| -----------------------------------------------------------------------
 BASOPT|        1     |       1     | 0.31840985E-02 | 0.35114874E+03 |  210.172
 BASOPT|        1     |       2     | 0.51521327E-02 | 0.12973434E+03 |  164.253
 BASOPT|        1     |       3     | 0.55255809E-02 | 0.60402062E+02 |  143.883
 BASOPT|        2     |       1     | 0.20664028E-02 | 0.73777596E+03 |  358.251
 BASOPT|        2     |       2     | 0.33478981E-02 | 0.15260083E+03 |  271.721
 BASOPT|        2     |       3     | 0.43249888E-02 | 0.83709589E+02 |  237.439
 BASOPT|        3     |       1     | 0.24498765E-02 | 0.26224430E+02 |  111.762
 BASOPT|        3     |       2     | 0.50768324E-02 | 0.24413324E+02 |   93.111
 BASOPT|        3     |       3     | 0.52737092E-02 | 0.16065521E+02 |   84.216
 BASOPT|        4     |       1     | 0.19603810E-02 | 0.46311869E+02 |  104.468
 BASOPT|        4     |       2     | 0.55127840E-02 | 0.44785508E+02 |   85.793
 BASOPT|        4     |       3     | 0.58093788E-02 | 0.19864029E+02 |   77.309
 BASOPT|        5     |       1     | 0.21407324E-02 | 0.16528843E+03 |   78.849
 BASOPT|        5     |       2     | 0.39236734E-02 | 0.14621268E+03 |   67.613
 BASOPT|        5     |       3     | 0.40664787E-02 | 0.14952164E+02 |   62.680
 BASOPT| -----------------------------------------------------------------------
 BASOPT| Total residuum value: -.17729457E+04

 BASOPT| Information at iteration number:    3700
 BASOPT| Training set | Combination | Rho difference | Condition num. | Time
 BASOPT| -----------------------------------------------------------------------
 BASOPT|        1     |       1     | 0.31820269E-02 | 0.35034359E+03 |  216.006
 BASOPT|        1     |       2     | 0.51515288E-02 | 0.12935410E+03 |  168.817
 BASOPT|        1     |       3     | 0.55266685E-02 | 0.60397056E+02 |  147.879
 BASOPT|        2     |       1     | 0.20656673E-02 | 0.73592762E+03 |  368.200
 BASOPT|        2     |       2     | 0.33520502E-02 | 0.15242356E+03 |  279.260
 BASOPT|        2     |       3     | 0.43324168E-02 | 0.83608488E+02 |  244.032
 BASOPT|        3     |       1     | 0.24477861E-02 | 0.26234118E+02 |  114.863
 BASOPT|        3     |       2     | 0.50780541E-02 | 0.24400927E+02 |   95.699
 BASOPT|        3     |       3     | 0.52750284E-02 | 0.16083012E+02 |   86.553
 BASOPT|        4     |       1     | 0.19558348E-02 | 0.46243562E+02 |  107.369
 BASOPT|        4     |       2     | 0.55156949E-02 | 0.44735230E+02 |   88.175
 BASOPT|        4     |       3     | 0.58117772E-02 | 0.19880986E+02 |   79.454
 BASOPT|        5     |       1     | 0.21399121E-02 | 0.16521108E+03 |   81.039
 BASOPT|        5     |       2     | 0.39213594E-02 | 0.14614391E+03 |   69.490
 BASOPT|        5     |       3     | 0.40619435E-02 | 0.14951131E+02 |   64.422
 BASOPT| -----------------------------------------------------------------------
 BASOPT| Total residuum value: -.17729459E+04

 BASOPT| Information at iteration number:    3800
 BASOPT| Training set | Combination | Rho difference | Condition num. | Time
 BASOPT| -----------------------------------------------------------------------
 BASOPT|        1     |       1     | 0.31815214E-02 | 0.35043307E+03 |  221.842
 BASOPT|        1     |       2     | 0.51504663E-02 | 0.12934239E+03 |  173.381
 BASOPT|        1     |       3     | 0.55265113E-02 | 0.60406850E+02 |  151.874
 BASOPT|        2     |       1     | 0.20650305E-02 | 0.73649868E+03 |  378.147
 BASOPT|        2     |       2     | 0.33520480E-02 | 0.15245904E+03 |  286.801
 BASOPT|        2     |       3     | 0.43341785E-02 | 0.83600130E+02 |  250.621
 BASOPT|        3     |       1     | 0.24474253E-02 | 0.26241933E+02 |  117.964
 BASOPT|        3     |       2     | 0.50799127E-02 | 0.24400065E+02 |   98.287
 BASOPT|        3     |       3     | 0.52759272E-02 | 0.16090088E+02 |   88.894
 BASOPT|        4     |       1     | 0.19542279E-02 | 0.46229094E+02 |  110.270
 BASOPT|        4     |       2     | 0.55191917E-02 | 0.44728214E+02 |   90.556
 BASOPT|        4     |       3     | 0.58148864E-02 | 0.19887694E+02 |   81.599
 BASOPT|        5     |       1     | 0.21395602E-02 | 0.16518555E+03 |   83.230
 BASOPT|        5     |       2     | 0.39190245E-02 | 0.14612182E+03 |   71.366
 BASOPT|        5     |       3     | 0.40580950E-02 | 0.14951146E+02 |   66.164
 BASOPT| -----------------------------------------------------------------------
 BASOPT| Total residuum value: -.17729461E+04

 BASOPT| Information at iteration number:    3900
 BASOPT| Training set | Combination | Rho difference | Condition num. | Time
 BASOPT| -----------------------------------------------------------------------
 BASOPT|        1     |       1     | 0.31778125E-02 | 0.35112129E+03 |  227.677
 BASOPT|        1     |       2     | 0.51468949E-02 | 0.12946858E+03 |  177.945
 BASOPT|        1     |       3     | 0.55267270E-02 | 0.60363178E+02 |  155.870
 BASOPT|        2     |       1     | 0.20628379E-02 | 0.73910596E+03 |  388.094
 BASOPT|        2     |       2     | 0.33530084E-02 | 0.15255348E+03 |  294.344
 BASOPT|        2     |       3     | 0.43397990E-02 | 0.83468072E+02 |  257.213
 BASOPT|        3     |       1     | 0.24442991E-02 | 0.26253188E+02 |  121.064
 BASOPT|        3     |       2     | 0.50813731E-02 | 0.24386789E+02 |  100.874
 BASOPT|        3     |       3     | 0.52750933E-02 | 0.16106937E+02 |   91.231
 BASOPT|        4     |       1     | 0.19468929E-02 | 0.46163635E+02 |  113.170
 BASOPT|        4     |       2     | 0.55220668E-02 | 0.44688765E+02 |   92.938
 BASOPT|        4     |       3     | 0.58168170E-02 | 0.19905153E+02 |   83.743
 BASOPT|        5     |       1     | 0.21397092E-02 | 0.16508360E+03 |   85.421
 BASOPT|        5     |       2     | 0.39156973E-02 | 0.14602905E+03 |   73.241
 BASOPT|        5     |       3     | 0.40515555E-02 | 0.14949408E+02 |   67.906
 BASOPT| -----------------------------------------------------------------------
 BASOPT| Total residuum value: -.17729465E+04

 BASOPT| Information at iteration number:    4000
 BASOPT| Training set | Combination | Rho difference | Condition num. | Time
 BASOPT| -----------------------------------------------------------------------
 BASOPT|        1     |       1     | 0.31765838E-02 | 0.35165265E+03 |  233.512
 BASOPT|        1     |       2     | 0.51464294E-02 | 0.12951411E+03 |  182.506
 BASOPT|        1     |       3     | 0.55270601E-02 | 0.60320939E+02 |  159.866
 BASOPT|        2     |       1     | 0.20620688E-02 | 0.74103339E+03 |  398.042
 BASOPT|        2     |       2     | 0.33499300E-02 | 0.15255311E+03 |  301.890
 BASOPT|        2     |       3     | 0.43362939E-02 | 0.83405028E+02 |  263.805
 BASOPT|        3     |       1     | 0.24433967E-02 | 0.26251999E+02 |  124.164
 BASOPT|        3     |       2     | 0.50800715E-02 | 0.24376406E+02 |  103.461
 BASOPT|        3     |       3     | 0.52746441E-02 | 0.16108179E+02 |   93.570
 BASOPT|        4     |       1     | 0.19446373E-02 | 0.46142830E+02 |  116.070
 BASOPT|        4     |       2     | 0.55190520E-02 | 0.44679141E+02 |   95.320
 BASOPT|        4     |       3     | 0.58139616E-02 | 0.19909344E+02 |   85.887
 BASOPT|        5     |       1     | 0.21401985E-02 | 0.16503787E+03 |   87.611
 BASOPT|        5     |       2     | 0.39179830E-02 | 0.14598045E+03 |   75.117
 BASOPT|        5     |       3     | 0.40540684E-02 | 0.14948640E+02 |   69.647
 BASOPT| -----------------------------------------------------------------------
 BASOPT| Total residuum value: -.17729467E+04

 BASOPT| Information at iteration number:    4100
 BASOPT| Training set | Combination | Rho difference | Condition num. | Time
 BASOPT| -----------------------------------------------------------------------
 BASOPT|        1     |       1     | 0.31748949E-02 | 0.35194912E+03 |  239.348
 BASOPT|        1     |       2     | 0.51455467E-02 | 0.12951802E+03 |  187.066
 BASOPT|        1     |       3     | 0.55270709E-02 | 0.60285457E+02 |  163.861
 BASOPT|        2     |       1     | 0.20613057E-02 | 0.74217517E+03 |  407.991
 BASOPT|        2     |       2     | 0.33486062E-02 | 0.15252949E+03 |  309.436
 BASOPT|        2     |       3     | 0.43364734E-02 | 0.83341572E+02 |  270.394
 BASOPT|        3     |       1     | 0.24420097E-02 | 0.26251347E+02 |  127.264
 BASOPT|        3     |       2     | 0.50786897E-02 | 0.24366043E+02 |  106.047
 BASOPT|        3     |       3     | 0.52733062E-02 | 0.16109805E+02 |   95.909
 BASOPT|        4     |       1     | 0.19416210E-02 | 0.46117644E+02 |  118.969
 BASOPT|        4     |       2     | 0.55161185E-02 | 0.44664351E+02 |   97.702
 BASOPT|        4     |       3     | 0.58110472E-02 | 0.19912770E+02 |   88.032
 BASOPT|        5     |       1     | 0.21404965E-02 | 0.16499149E+03 |   89.801
 BASOPT|        5     |       2     | 0.39194411E-02 | 0.14593237E+03 |   76.992
 BASOPT|        5     |       3     | 0.40547342E-02 | 0.14947757E+02 |   71.388
 BASOPT| -----------------------------------------------------------------------
 BASOPT| Total residuum value: -.17729469E+04

 BASOPT| Information at iteration number:    4200
 BASOPT| Training set | Combination | Rho difference | Condition num. | Time
 BASOPT| -----------------------------------------------------------------------
 BASOPT|        1     |       1     | 0.31732635E-02 | 0.35212082E+03 |  245.184
 BASOPT|        1     |       2     | 0.51443764E-02 | 0.12944469E+03 |  191.626
 BASOPT|        1     |       3     | 0.55268034E-02 | 0.60246082E+02 |  167.856
 BASOPT|        2     |       1     | 0.20607100E-02 | 0.74302689E+03 |  417.940
 BASOPT|        2     |       2     | 0.33477570E-02 | 0.15247960E+03 |  316.982
 BASOPT|        2     |       3     | 0.43381805E-02 | 0.83281074E+02 |  276.987
 BASOPT|        3     |       1     | 0.24405057E-02 | 0.26246527E+02 |  130.365
 BASOPT|        3     |       2     | 0.50774780E-02 | 0.24350715E+02 |  108.634
 BASOPT|        3     |       3     | 0.52711063E-02 | 0.16110029E+02 |   98.248
 BASOPT|        4     |       1     | 0.19385266E-02 | 0.46083543E+02 |  121.870
 BASOPT|        4     |       2     | 0.55136876E-02 | 0.44640557E+02 |  100.082
 BASOPT|        4     |       3     | 0.58084874E-02 | 0.19914206E+02 |   90.176
 BASOPT|        5     |       1     | 0.21407760E-02 | 0.16494234E+03 |   91.990
 BASOPT|        5     |       2     | 0.39205238E-02 | 0.14588298E+03 |   78.868
 BASOPT|        5     |       3     | 0.40544528E-02 | 0.14947083E+02 |   73.129
 BASOPT| -----------------------------------------------------------------------
 BASOPT| Total residuum value: -.17729470E+04

 BASOPT| Information at iteration number:    4300
 BASOPT| Training set | Combination | Rho difference | Condition num. | Time
 BASOPT| -----------------------------------------------------------------------
 BASOPT|        1     |       1     | 0.31716163E-02 | 0.35261642E+03 |  251.019
 BASOPT|        1     |       2     | 0.51432608E-02 | 0.12939136E+03 |  196.186
 BASOPT|        1     |       3     | 0.55262756E-02 | 0.60202154E+02 |  171.847
 BASOPT|        2     |       1     | 0.20596989E-02 | 0.74522546E+03 |  427.888
 BASOPT|        2     |       2     | 0.33458080E-02 | 0.15244178E+03 |  324.527
 BASOPT|        2     |       3     | 0.43366570E-02 | 0.83237645E+02 |  283.582
 BASOPT|        3     |       1     | 0.24384422E-02 | 0.26250735E+02 |  133.465
 BASOPT|        3     |       2     | 0.50760377E-02 | 0.24340790E+02 |  111.222
 BASOPT|        3     |       3     | 0.52694604E-02 | 0.16109653E+02 |  100.587
 BASOPT|        4     |       1     | 0.19342177E-02 | 0.46065571E+02 |  124.770
 BASOPT|        4     |       2     | 0.55109540E-02 | 0.44637038E+02 |  102.463
 BASOPT|        4     |       3     | 0.58059388E-02 | 0.19916039E+02 |   92.320
 BASOPT|        5     |       1     | 0.21405348E-02 | 0.16487725E+03 |   94.180
 BASOPT|        5     |       2     | 0.39216192E-02 | 0.14581369E+03 |   80.743
 BASOPT|        5     |       3     | 0.40550697E-02 | 0.14946231E+02 |   74.870
 BASOPT| -----------------------------------------------------------------------
 BASOPT| Total residuum value: -.17729472E+04

 BASOPT| Information at iteration number:    4400
 BASOPT| Training set | Combination | Rho difference | Condition num. | Time
 BASOPT| -----------------------------------------------------------------------
 BASOPT|        1     |       1     | 0.31697686E-02 | 0.35263100E+03 |  256.853
 BASOPT|        1     |       2     | 0.51412864E-02 | 0.12905569E+03 |  200.749
 BASOPT|        1     |       3     | 0.55247443E-02 | 0.60174705E+02 |  175.842
 BASOPT|        2     |       1     | 0.20588958E-02 | 0.74651827E+03 |  437.835
 BASOPT|        2     |       2     | 0.33462553E-02 | 0.15232975E+03 |  332.070
 BASOPT|        2     |       3     | 0.43372306E-02 | 0.83209118E+02 |  290.175
 BASOPT|        3     |       1     | 0.24359047E-02 | 0.26247653E+02 |  136.566
 BASOPT|        3     |       2     | 0.50763957E-02 | 0.24315870E+02 |  113.809
 BASOPT|        3     |       3     | 0.52693916E-02 | 0.16111838E+02 |  102.927
 BASOPT|        4     |       1     | 0.19288943E-02 | 0.46004584E+02 |  127.671
 BASOPT|        4     |       2     | 0.55120295E-02 | 0.44593644E+02 |  104.844
 BASOPT|        4     |       3     | 0.58071027E-02 | 0.19918456E+02 |   94.466
 BASOPT|        5     |       1     | 0.21403140E-02 | 0.16478544E+03 |   96.370
 BASOPT|        5     |       2     | 0.39204399E-02 | 0.14572660E+03 |   82.620
 BASOPT|        5     |       3     | 0.40531247E-02 | 0.14945425E+02 |   76.611
 BASOPT| -----------------------------------------------------------------------
 BASOPT| Total residuum value: -.17729476E+04

 BASOPT| Information at iteration number:    4500
 BASOPT| Training set | Combination | Rho difference | Condition num. | Time
 BASOPT| -----------------------------------------------------------------------
 BASOPT|        1     |       1     | 0.31689537E-02 | 0.35263783E+03 |  262.686
 BASOPT|        1     |       2     | 0.51403797E-02 | 0.12887096E+03 |  205.307
 BASOPT|        1     |       3     | 0.55241384E-02 | 0.60186107E+02 |  179.836
 BASOPT|        2     |       1     | 0.20582049E-02 | 0.74763466E+03 |  447.784
 BASOPT|        2     |       2     | 0.33484259E-02 | 0.15230281E+03 |  339.608
 BASOPT|        2     |       3     | 0.43386330E-02 | 0.83241320E+02 |  296.766
 BASOPT|        3     |       1     | 0.24340771E-02 | 0.26259450E+02 |  139.668
 BASOPT|        3     |       2     | 0.50778999E-02 | 0.24312287E+02 |  116.394
 BASOPT|        3     |       3     | 0.52704387E-02 | 0.16114660E+02 |  105.266
 BASOPT|        4     |       1     | 0.19249271E-02 | 0.45990032E+02 |  130.571
 BASOPT|        4     |       2     | 0.55156757E-02 | 0.44591089E+02 |  107.225
 BASOPT|        4     |       3     | 0.58107462E-02 | 0.19920079E+02 |   96.658
 BASOPT|        5     |       1     | 0.21393617E-02 | 0.16470936E+03 |   98.560
 BASOPT|        5     |       2     | 0.39178107E-02 | 0.14565540E+03 |   84.495
[...]
 BASOPT|        5     |       2     | 0.39305791E-02 | 0.14226172E+03 |  726.224
 BASOPT|        5     |       3     | 0.40675652E-02 | 0.15025761E+02 |  674.645
 BASOPT| -----------------------------------------------------------------------
 BASOPT| Total residuum value: -.17729655E+04

 BASOPT| Information at iteration number:   38800
 BASOPT| Training set | Combination | Rho difference | Condition num. | Time
 BASOPT| -----------------------------------------------------------------------
 BASOPT|        1     |       1     | 0.31556365E-02 | 0.29330338E+03 | 2259.000
 BASOPT|        1     |       2     | 0.51753256E-02 | 0.10152830E+03 | 1770.374
 BASOPT|        1     |       3     | 0.55271688E-02 | 0.60245057E+02 | 1550.634
 BASOPT|        2     |       1     | 0.20440625E-02 | 0.66832221E+03 | 3858.832
 BASOPT|        2     |       2     | 0.33665825E-02 | 0.13956295E+03 | 2927.200
 BASOPT|        2     |       3     | 0.43244762E-02 | 0.83040864E+02 | 2552.489
 BASOPT|        3     |       1     | 0.24196449E-02 | 0.27290265E+02 | 1201.317
 BASOPT|        3     |       2     | 0.50782996E-02 | 0.22755481E+02 | 1003.404
 BASOPT|        3     |       3     | 0.52692726E-02 | 0.16185458E+02 |  907.305
 BASOPT|        4     |       1     | 0.17448946E-02 | 0.43998116E+02 | 1128.558
 BASOPT|        4     |       2     | 0.55100838E-02 | 0.42655433E+02 |  924.877
 BASOPT|        4     |       3     | 0.58013032E-02 | 0.20070903E+02 |  833.286
 BASOPT|        5     |       1     | 0.20761789E-02 | 0.16210492E+03 |  850.468
 BASOPT|        5     |       2     | 0.39320172E-02 | 0.14224463E+03 |  728.098
 BASOPT|        5     |       3     | 0.40693771E-02 | 0.15026076E+02 |  676.394
 BASOPT| -----------------------------------------------------------------------
 BASOPT| Total residuum value: -.17729655E+04

 BASOPT| Information at iteration number:   38900
 BASOPT| Training set | Combination | Rho difference | Condition num. | Time
 BASOPT| -----------------------------------------------------------------------
 BASOPT|        1     |       1     | 0.31564525E-02 | 0.29300086E+03 | 2264.810
 BASOPT|        1     |       2     | 0.51764577E-02 | 0.10141413E+03 | 1774.941
 BASOPT|        1     |       3     | 0.55280094E-02 | 0.60259029E+02 | 1554.630
 BASOPT|        2     |       1     | 0.20443236E-02 | 0.66769921E+03 | 3868.786
 BASOPT|        2     |       2     | 0.33673445E-02 | 0.13949663E+03 | 2934.763
 BASOPT|        2     |       3     | 0.43249483E-02 | 0.83062243E+02 | 2559.074
 BASOPT|        3     |       1     | 0.24198827E-02 | 0.27297481E+02 | 1204.399
 BASOPT|        3     |       2     | 0.50785226E-02 | 0.22759339E+02 | 1005.990
 BASOPT|        3     |       3     | 0.52696512E-02 | 0.16187642E+02 |  909.642
 BASOPT|        4     |       1     | 0.17448844E-02 | 0.44007665E+02 | 1131.473
 BASOPT|        4     |       2     | 0.55105874E-02 | 0.42663505E+02 |  927.264
 BASOPT|        4     |       3     | 0.58019495E-02 | 0.20072595E+02 |  835.432
 BASOPT|        5     |       1     | 0.20756923E-02 | 0.16209631E+03 |  852.661
 BASOPT|        5     |       2     | 0.39319523E-02 | 0.14223406E+03 |  729.971
 BASOPT|        5     |       3     | 0.40694992E-02 | 0.15026202E+02 |  678.143
 BASOPT| -----------------------------------------------------------------------
 BASOPT| Total residuum value: -.17729655E+04

 BASOPT| Information at iteration number:   39000
 BASOPT| Training set | Combination | Rho difference | Condition num. | Time
 BASOPT| -----------------------------------------------------------------------
 BASOPT|        1     |       1     | 0.31573044E-02 | 0.29270378E+03 | 2270.621
 BASOPT|        1     |       2     | 0.51771399E-02 | 0.10132809E+03 | 1779.507
 BASOPT|        1     |       3     | 0.55283143E-02 | 0.60297772E+02 | 1558.624
 BASOPT|        2     |       1     | 0.20442930E-02 | 0.66712647E+03 | 3878.740
 BASOPT|        2     |       2     | 0.33687894E-02 | 0.13947264E+03 | 2942.309
 BASOPT|        2     |       3     | 0.43255747E-02 | 0.83112633E+02 | 2565.656
 BASOPT|        3     |       1     | 0.24201379E-02 | 0.27302477E+02 | 1207.481
 BASOPT|        3     |       2     | 0.50801152E-02 | 0.22764086E+02 | 1008.576
 BASOPT|        3     |       3     | 0.52712235E-02 | 0.16191943E+02 |  911.978
 BASOPT|        4     |       1     | 0.17448684E-02 | 0.44015066E+02 | 1134.387
 BASOPT|        4     |       2     | 0.55139465E-02 | 0.42669921E+02 |  929.650
 BASOPT|        4     |       3     | 0.58053870E-02 | 0.20075802E+02 |  837.579
 BASOPT|        5     |       1     | 0.20753321E-02 | 0.16208219E+03 |  854.855
 BASOPT|        5     |       2     | 0.39298878E-02 | 0.14222437E+03 |  731.844
 BASOPT|        5     |       3     | 0.40674046E-02 | 0.15026501E+02 |  679.892
 BASOPT| -----------------------------------------------------------------------
 BASOPT| Total residuum value: -.17729655E+04

 BASOPT| Information at iteration number:   39100
 BASOPT| Training set | Combination | Rho difference | Condition num. | Time
 BASOPT| -----------------------------------------------------------------------
 BASOPT|        1     |       1     | 0.31571882E-02 | 0.29262136E+03 | 2276.433
 BASOPT|        1     |       2     | 0.51771876E-02 | 0.10123747E+03 | 1784.073
 BASOPT|        1     |       3     | 0.55279016E-02 | 0.60296868E+02 | 1562.619
 BASOPT|        2     |       1     | 0.20446155E-02 | 0.66708280E+03 | 3888.696
 BASOPT|        2     |       2     | 0.33692256E-02 | 0.13941932E+03 | 2949.854
 BASOPT|        2     |       3     | 0.43254076E-02 | 0.83123249E+02 | 2572.237
 BASOPT|        3     |       1     | 0.24201421E-02 | 0.27298781E+02 | 1210.562
 BASOPT|        3     |       2     | 0.50800501E-02 | 0.22761861E+02 | 1011.161
 BASOPT|        3     |       3     | 0.52714164E-02 | 0.16191352E+02 |  914.314
 BASOPT|        4     |       1     | 0.17449459E-02 | 0.44011151E+02 | 1137.302
 BASOPT|        4     |       2     | 0.55135610E-02 | 0.42666105E+02 |  932.035
 BASOPT|        4     |       3     | 0.58050394E-02 | 0.20074703E+02 |  839.725
 BASOPT|        5     |       1     | 0.20756993E-02 | 0.16207500E+03 |  857.048
 BASOPT|        5     |       2     | 0.39301810E-02 | 0.14221944E+03 |  733.717
 BASOPT|        5     |       3     | 0.40679657E-02 | 0.15027119E+02 |  681.641
 BASOPT| -----------------------------------------------------------------------
 BASOPT| Total residuum value: -.17729655E+04

 BASOPT| Information at iteration number:   39200
 BASOPT| Training set | Combination | Rho difference | Condition num. | Time
 BASOPT| -----------------------------------------------------------------------
 BASOPT|        1     |       1     | 0.31567107E-02 | 0.29271911E+03 | 2282.245
 BASOPT|        1     |       2     | 0.51764552E-02 | 0.10114927E+03 | 1788.639
 BASOPT|        1     |       3     | 0.55266076E-02 | 0.60296537E+02 | 1566.615
 BASOPT|        2     |       1     | 0.20446020E-02 | 0.66780285E+03 | 3898.652
 BASOPT|        2     |       2     | 0.33689940E-02 | 0.13939829E+03 | 2957.401
 BASOPT|        2     |       3     | 0.43240399E-02 | 0.83148530E+02 | 2578.819
 BASOPT|        3     |       1     | 0.24199666E-02 | 0.27283242E+02 | 1213.644
 BASOPT|        3     |       2     | 0.50802570E-02 | 0.22750626E+02 | 1013.747
 BASOPT|        3     |       3     | 0.52714297E-02 | 0.16188503E+02 |  916.651
 BASOPT|        4     |       1     | 0.17448486E-02 | 0.43986715E+02 | 1140.216
 BASOPT|        4     |       2     | 0.55135196E-02 | 0.42642557E+02 |  934.421
 BASOPT|        4     |       3     | 0.58050545E-02 | 0.20070475E+02 |  841.872
 BASOPT|        5     |       1     | 0.20766862E-02 | 0.16205045E+03 |  859.241
 BASOPT|        5     |       2     | 0.39297909E-02 | 0.14220451E+03 |  735.590
 BASOPT|        5     |       3     | 0.40676067E-02 | 0.15027455E+02 |  683.390
 BASOPT| -----------------------------------------------------------------------
 BASOPT| Total residuum value: -.17729655E+04

 BASOPT| Information at iteration number:   39300
 BASOPT| Training set | Combination | Rho difference | Condition num. | Time
 BASOPT| -----------------------------------------------------------------------
 BASOPT|        1     |       1     | 0.31572288E-02 | 0.29271919E+03 | 2288.056
 BASOPT|        1     |       2     | 0.51766011E-02 | 0.10111852E+03 | 1793.205
 BASOPT|        1     |       3     | 0.55268543E-02 | 0.60311100E+02 | 1570.610
 BASOPT|        2     |       1     | 0.20443749E-02 | 0.66812586E+03 | 3908.605
 BASOPT|        2     |       2     | 0.33696923E-02 | 0.13942138E+03 | 2964.946
 BASOPT|        2     |       3     | 0.43240335E-02 | 0.83167460E+02 | 2585.402
 BASOPT|        3     |       1     | 0.24200402E-02 | 0.27280298E+02 | 1216.726
 BASOPT|        3     |       2     | 0.50815086E-02 | 0.22750325E+02 | 1016.332
 BASOPT|        3     |       3     | 0.52728933E-02 | 0.16192716E+02 |  918.987
 BASOPT|        4     |       1     | 0.17449649E-02 | 0.43986757E+02 | 1143.132
 BASOPT|        4     |       2     | 0.55162155E-02 | 0.42642008E+02 |  936.807
 BASOPT|        4     |       3     | 0.58077084E-02 | 0.20075199E+02 |  844.019
 BASOPT|        5     |       1     | 0.20765338E-02 | 0.16203921E+03 |  861.434
 BASOPT|        5     |       2     | 0.39279773E-02 | 0.14219783E+03 |  737.463
 BASOPT|        5     |       3     | 0.40657858E-02 | 0.15028330E+02 |  685.139
 BASOPT| -----------------------------------------------------------------------
 BASOPT| Total residuum value: -.17729655E+04

 BASOPT| Information at iteration number:   39400
 BASOPT| Training set | Combination | Rho difference | Condition num. | Time
 BASOPT| -----------------------------------------------------------------------
 BASOPT|        1     |       1     | 0.31577052E-02 | 0.29258782E+03 | 2293.865
 BASOPT|        1     |       2     | 0.51772982E-02 | 0.10103087E+03 | 1797.773
 BASOPT|        1     |       3     | 0.55274835E-02 | 0.60309091E+02 | 1574.605
 BASOPT|        2     |       1     | 0.20443670E-02 | 0.66790271E+03 | 3918.558
 BASOPT|        2     |       2     | 0.33693532E-02 | 0.13936011E+03 | 2972.486
 BASOPT|        2     |       3     | 0.43245533E-02 | 0.83165331E+02 | 2591.986
 BASOPT|        3     |       1     | 0.24201621E-02 | 0.27278297E+02 | 1219.808
 BASOPT|        3     |       2     | 0.50812534E-02 | 0.22747822E+02 | 1018.919
 BASOPT|        3     |       3     | 0.52723443E-02 | 0.16192865E+02 |  921.324
 BASOPT|        4     |       1     | 0.17452123E-02 | 0.43983913E+02 | 1146.047
 BASOPT|        4     |       2     | 0.55156875E-02 | 0.42638209E+02 |  939.192
 BASOPT|        4     |       3     | 0.58072216E-02 | 0.20075305E+02 |  846.167
 BASOPT|        5     |       1     | 0.20763039E-02 | 0.16202884E+03 |  863.627
 BASOPT|        5     |       2     | 0.39285118E-02 | 0.14218649E+03 |  739.337
 BASOPT|        5     |       3     | 0.40660022E-02 | 0.15028718E+02 |  686.887
 BASOPT| -----------------------------------------------------------------------
 BASOPT| Total residuum value: -.17729655E+04

 BASOPT| Information at iteration number:   39500
 BASOPT| Training set | Combination | Rho difference | Condition num. | Time
 BASOPT| -----------------------------------------------------------------------
 BASOPT|        1     |       1     | 0.31581255E-02 | 0.29253246E+03 | 2299.676
 BASOPT|        1     |       2     | 0.51777205E-02 | 0.10096223E+03 | 1802.343
 BASOPT|        1     |       3     | 0.55281110E-02 | 0.60301530E+02 | 1578.600
 BASOPT|        2     |       1     | 0.20442528E-02 | 0.66793557E+03 | 3928.512
 BASOPT|        2     |       2     | 0.33689536E-02 | 0.13932232E+03 | 2980.028
 BASOPT|        2     |       3     | 0.43240716E-02 | 0.83151066E+02 | 2598.568
 BASOPT|        3     |       1     | 0.24202381E-02 | 0.27274344E+02 | 1222.890
 BASOPT|        3     |       2     | 0.50812581E-02 | 0.22744693E+02 | 1021.506
 BASOPT|        3     |       3     | 0.52724512E-02 | 0.16195097E+02 |  923.661
 BASOPT|        4     |       1     | 0.17454811E-02 | 0.43980182E+02 | 1148.961
 BASOPT|        4     |       2     | 0.55157811E-02 | 0.42633468E+02 |  941.578
 BASOPT|        4     |       3     | 0.58072532E-02 | 0.20078724E+02 |  848.314
 BASOPT|        5     |       1     | 0.20760911E-02 | 0.16201767E+03 |  865.820
 BASOPT|        5     |       2     | 0.39285758E-02 | 0.14217530E+03 |  741.210
 BASOPT|        5     |       3     | 0.40661943E-02 | 0.15029601E+02 |  688.637
 BASOPT| -----------------------------------------------------------------------
 BASOPT| Total residuum value: -.17729655E+04

 BASOPT| Information at iteration number:   39600
 BASOPT| Training set | Combination | Rho difference | Condition num. | Time
 BASOPT| -----------------------------------------------------------------------
 BASOPT|        1     |       1     | 0.31581404E-02 | 0.29246472E+03 | 2305.486
 BASOPT|        1     |       2     | 0.51772275E-02 | 0.10087431E+03 | 1806.912
 BASOPT|        1     |       3     | 0.55276804E-02 | 0.60310024E+02 | 1582.596
 BASOPT|        2     |       1     | 0.20443828E-02 | 0.66796353E+03 | 3938.465
 BASOPT|        2     |       2     | 0.33699697E-02 | 0.13929559E+03 | 2987.568
 BASOPT|        2     |       3     | 0.43250647E-02 | 0.83156876E+02 | 2605.152
 BASOPT|        3     |       1     | 0.24201480E-02 | 0.27265393E+02 | 1225.972
 BASOPT|        3     |       2     | 0.50822973E-02 | 0.22740216E+02 | 1024.093
 BASOPT|        3     |       3     | 0.52733983E-02 | 0.16198293E+02 |  925.999
 BASOPT|        4     |       1     | 0.17456294E-02 | 0.43966407E+02 | 1151.876
 BASOPT|        4     |       2     | 0.55179437E-02 | 0.42619641E+02 |  943.964
 BASOPT|        4     |       3     | 0.58092602E-02 | 0.20081483E+02 |  850.461
 BASOPT|        5     |       1     | 0.20762100E-02 | 0.16199330E+03 |  868.014
 BASOPT|        5     |       2     | 0.39269100E-02 | 0.14215878E+03 |  743.083
 BASOPT|        5     |       3     | 0.40641947E-02 | 0.15030418E+02 |  690.387
 BASOPT| -----------------------------------------------------------------------
 BASOPT| Total residuum value: -.17729655E+04

 BASOPT| Information at iteration number:   39700
 BASOPT| Training set | Combination | Rho difference | Condition num. | Time
 BASOPT| -----------------------------------------------------------------------
 BASOPT|        1     |       1     | 0.31579247E-02 | 0.29243167E+03 | 2311.296
 BASOPT|        1     |       2     | 0.51769003E-02 | 0.10077193E+03 | 1811.481
 BASOPT|        1     |       3     | 0.55274950E-02 | 0.60296056E+02 | 1586.591
 BASOPT|        2     |       1     | 0.20445570E-02 | 0.66811243E+03 | 3948.418
 BASOPT|        2     |       2     | 0.33696405E-02 | 0.13923035E+03 | 2995.110
 BASOPT|        2     |       3     | 0.43250359E-02 | 0.83134859E+02 | 2611.734
 BASOPT|        3     |       1     | 0.24200075E-02 | 0.27255555E+02 | 1229.059
 BASOPT|        3     |       2     | 0.50818678E-02 | 0.22732231E+02 | 1026.681
 BASOPT|        3     |       3     | 0.52727905E-02 | 0.16198592E+02 |  928.337
 BASOPT|        4     |       1     | 0.17457314E-02 | 0.43952822E+02 | 1154.790
 BASOPT|        4     |       2     | 0.55170426E-02 | 0.42605160E+02 |  946.351
 BASOPT|        4     |       3     | 0.58082726E-02 | 0.20082514E+02 |  852.609
 BASOPT|        5     |       1     | 0.20764845E-02 | 0.16197110E+03 |  870.211
 BASOPT|        5     |       2     | 0.39273330E-02 | 0.14213856E+03 |  744.956
 BASOPT|        5     |       3     | 0.40644913E-02 | 0.15031317E+02 |  692.136
 BASOPT| -----------------------------------------------------------------------
 BASOPT| Total residuum value: -.17729655E+04

 BASOPT| Information at iteration number:   39800
 BASOPT| Training set | Combination | Rho difference | Condition num. | Time
 BASOPT| -----------------------------------------------------------------------
 BASOPT|        1     |       1     | 0.31573462E-02 | 0.29247698E+03 | 2317.106
 BASOPT|        1     |       2     | 0.51766109E-02 | 0.10070961E+03 | 1816.060
 BASOPT|        1     |       3     | 0.55274801E-02 | 0.60266989E+02 | 1590.588
 BASOPT|        2     |       1     | 0.20445352E-02 | 0.66832393E+03 | 3958.372
 BASOPT|        2     |       2     | 0.33683670E-02 | 0.13916188E+03 | 3002.671
 BASOPT|        2     |       3     | 0.43243761E-02 | 0.83087790E+02 | 2618.319
 BASOPT|        3     |       1     | 0.24197779E-02 | 0.27244073E+02 | 1232.140
 BASOPT|        3     |       2     | 0.50804721E-02 | 0.22721502E+02 | 1029.269
 BASOPT|        3     |       3     | 0.52712656E-02 | 0.16196771E+02 |  930.675
 BASOPT|        4     |       1     | 0.17457649E-02 | 0.43937972E+02 | 1157.705
 BASOPT|        4     |       2     | 0.55142374E-02 | 0.42589162E+02 |  948.737
 BASOPT|        4     |       3     | 0.58055528E-02 | 0.20082702E+02 |  854.756
 BASOPT|        5     |       1     | 0.20769071E-02 | 0.16194916E+03 |  872.404
 BASOPT|        5     |       2     | 0.39291900E-02 | 0.14211513E+03 |  746.829
 BASOPT|        5     |       3     | 0.40661712E-02 | 0.15031676E+02 |  693.886
 BASOPT| -----------------------------------------------------------------------
 BASOPT| Total residuum value: -.17729655E+04

 BASOPT| Information at iteration number:   39900
 BASOPT| Training set | Combination | Rho difference | Condition num. | Time
 BASOPT| -----------------------------------------------------------------------
 BASOPT|        1     |       1     | 0.31571689E-02 | 0.29240501E+03 | 2322.916
 BASOPT|        1     |       2     | 0.51764945E-02 | 0.10064603E+03 | 1820.656
 BASOPT|        1     |       3     | 0.55277786E-02 | 0.60247781E+02 | 1594.586
 BASOPT|        2     |       1     | 0.20448040E-02 | 0.66815688E+03 | 3968.323
 BASOPT|        2     |       2     | 0.33681886E-02 | 0.13909884E+03 | 3010.281
 BASOPT|        2     |       3     | 0.43250151E-02 | 0.83053648E+02 | 2624.903
 BASOPT|        3     |       1     | 0.24196452E-02 | 0.27240108E+02 | 1235.222
 BASOPT|        3     |       2     | 0.50797363E-02 | 0.22715200E+02 | 1031.857
 BASOPT|        3     |       3     | 0.52703803E-02 | 0.16197149E+02 |  933.013
 BASOPT|        4     |       1     | 0.17455801E-02 | 0.43930747E+02 | 1160.620
 BASOPT|        4     |       2     | 0.55128073E-02 | 0.42580779E+02 |  951.123
 BASOPT|        4     |       3     | 0.58041280E-02 | 0.20084285E+02 |  856.903
 BASOPT|        5     |       1     | 0.20768765E-02 | 0.16193073E+03 |  874.596
 BASOPT|        5     |       2     | 0.39299642E-02 | 0.14209482E+03 |  748.702
 BASOPT|        5     |       3     | 0.40666496E-02 | 0.15032268E+02 |  695.635
 BASOPT| -----------------------------------------------------------------------
 BASOPT| Total residuum value: -.17729656E+04

 BASOPT| Information at iteration number:   40000
 BASOPT| Training set | Combination | Rho difference | Condition num. | Time
 BASOPT| -----------------------------------------------------------------------
 BASOPT|        1     |       1     | 0.31570161E-02 | 0.29236011E+03 | 2328.726
 BASOPT|        1     |       2     | 0.51764177E-02 | 0.10063163E+03 | 1825.249
 BASOPT|        1     |       3     | 0.55280286E-02 | 0.60236549E+02 | 1598.585
 BASOPT|        2     |       1     | 0.20449065E-02 | 0.66799823E+03 | 3978.276
 BASOPT|        2     |       2     | 0.33680439E-02 | 0.13907134E+03 | 3017.823
 BASOPT|        2     |       3     | 0.43250837E-02 | 0.83029766E+02 | 2631.486
 BASOPT|        3     |       1     | 0.24196713E-02 | 0.27238825E+02 | 1238.304
 BASOPT|        3     |       2     | 0.50794021E-02 | 0.22710876E+02 | 1034.444
 BASOPT|        3     |       3     | 0.52700670E-02 | 0.16197910E+02 |  935.352
 BASOPT|        4     |       1     | 0.17454516E-02 | 0.43927933E+02 | 1163.536
