 DBCSR| CPU Multiplication driver                                           XSMM
 DBCSR| Multrec recursion limit                                              512
 DBCSR| Multiplication stack size                                           1000
 DBCSR| Maximum elements for images                                    UNLIMITED
 DBCSR| Multiplicative factor virtual images                                   1
 DBCSR| Use multiplication densification                                       T
 DBCSR| Multiplication size stacks                                             3
 DBCSR| Use memory pool for CPU allocation                                     F
 DBCSR| Number of 3D layers                                               SINGLE
 DBCSR| Use MPI memory allocation                                              F
 DBCSR| Use RMA algorithm                                                      F
 DBCSR| Use Communication thread                                               T
 DBCSR| Communication thread load                                             87
 DBCSR| MPI: My node id                                                        0
 DBCSR| MPI: Number of nodes                                                  48
 DBCSR| OMP: Current number of threads                                         1
 DBCSR| OMP: Max number of threads                                             1
 DBCSR| Split modifier for TAS multiplication algorithm                  1.0E+00


  **** **** ******  **  PROGRAM STARTED AT               2022-06-07 18:43:46.966
 ***** ** ***  *** **   PROGRAM STARTED ON                               tcopt10
 **    ****   ******    PROGRAM STARTED BY                                hutter
 ***** **    ** ** **   PROGRAM PROCESS ID                                 91218
  **** **  *******  **  PROGRAM STARTED IN /data/hutter/GITHUB/BASIS/scMOLOPT/PB
                                           E/Po

 CP2K| version string:                   CP2K version 10.0 (Development Version)
 CP2K| source code revision number:                                  git:d19b00a
 CP2K| cp2kflags: omp libint fftw3 libxc elpa parallel mpi3 scalapack cosma xsmm
 CP2K|             spglib sirius libvori libbqb
 CP2K| is freely available from                            https://www.cp2k.org/
 CP2K| Program compiled at                      Wed 18 May 2022 12:15:59 PM CEST
 CP2K| Program compiled on                                               tcopt10
 CP2K| Program compiled for                                                local
 CP2K| Data directory path                   /data/hutter/GITHUB/TDLRI/cp2k/data
 CP2K| Input file name                                              PoLi-ref.inp

 GLOBAL| Force Environment number                                              1
 GLOBAL| Basis set file name                                        ../def2QZVPP
 GLOBAL| Potential file name                                        ../POTENTIAL
 GLOBAL| MM Potential file name                                     MM_POTENTIAL
 GLOBAL| Coordinate file name                                      __STD_INPUT__
 GLOBAL| Method name                                                        CP2K
 GLOBAL| Project name                                                    refPoLi
 GLOBAL| Run type                                                         ENERGY
 GLOBAL| FFT library                                                       FFTW3
 GLOBAL| Diagonalization library                                            ELPA
 GLOBAL| Minimum number of eigenvectors for ELPA usage                        16
 GLOBAL| Orthonormality check for eigenvectors                          DISABLED
 GLOBAL| Matrix multiplication library                                     COSMA
 GLOBAL| All-to-all communication in single precision                          F
 GLOBAL| FFTs using library dependent lengths                                  F
 GLOBAL| Grid backend                                                       AUTO
 GLOBAL| Global print level                                                  LOW
 GLOBAL| MPI I/O enabled                                                       T
 GLOBAL| Total number of message passing processes                            48
 GLOBAL| Number of threads for this process                                    1
 GLOBAL| This output is from process                                           0
 GLOBAL| Stack size for threads created by OpenMP (OMP_STACKSIZE)        default
 GLOBAL| CPU model name                          AMD EPYC 7401 24-Core Processor
 GLOBAL| CPUID                                                              1002

 MEMORY| system memory details [Kb]
 MEMORY|                        rank 0           min           max       average
 MEMORY| MemTotal            263969132     263969132     263969132     263969132
 MEMORY| MemFree             236030256     236030256     236030256     236030256
 MEMORY| Buffers                  2836          2836          2836          2836
 MEMORY| Cached               20353492      20353492      20353492      20353492
 MEMORY| Slab                  1479760       1479760       1479760       1479760
 MEMORY| SReclaimable           874044        874044        874044        874044
 MEMORY| MemLikelyFree       257260628     257260628     257260628     257260628


 GENERATE|  Preliminary Number of Bonds generated:                             0
 GENERATE|  Achieved consistency in connectivity generation.

 *******************************************************************************
 *******************************************************************************
 **                                                                           **
 **     #####                         ##              ##                      **
 **    ##   ##            ##          ##              ##                      **
 **   ##     ##                       ##            ######                    **
 **   ##     ##  ##   ##  ##   #####  ##  ##   ####   ##    #####    #####    **
 **   ##     ##  ##   ##  ##  ##      ## ##   ##      ##   ##   ##  ##   ##   **
 **   ##  ## ##  ##   ##  ##  ##      ####     ###    ##   ######   ######    **
 **    ##  ###   ##   ##  ##  ##      ## ##      ##   ##   ##       ##        **
 **     #######   #####   ##   #####  ##  ##  ####    ##    #####   ##        **
 **           ##                                                    ##        **
 **                                                                           **
 **                                                ... make the atoms dance   **
 **                                                                           **
 **            Copyright (C) by CP2K developers group (2000-2022)             **
 **                      J. Chem. Phys. 152, 194103 (2020)                    **
 **                                                                           **
 *******************************************************************************


 TOTAL NUMBERS AND MAXIMUM NUMBERS

  Total number of            - Atomic kinds:                                   2
                             - Atoms:                                          2
                             - Shell sets:                                    35
                             - Shells:                                        35
                             - Primitive Cartesian functions:                 70
                             - Cartesian basis functions:                    144
                             - Spherical basis functions:                    117

  Maximum angular momentum of- Orbital basis functions:                        4
                             - Local part of the GTH pseudopotential:          2
                             - Non-local part of the GTH pseudopotential:      5


 SCF PARAMETERS         Density guess:                                    ATOMIC
                        --------------------------------------------------------
                        max_scf:                                              20
                        max_scf_history:                                       0
                        max_diis:                                              4
                        --------------------------------------------------------
                        eps_scf:                                        1.00E-07
                        eps_scf_history:                                0.00E+00
                        eps_diis:                                       1.00E-01
                        eps_eigval:                                     1.00E-05
                        --------------------------------------------------------
                        level_shift [a.u.]:                             0.000000
                        --------------------------------------------------------
                        Outer loop SCF in use 
                        No variables optimised in outer loop
                        eps_scf                                         1.00E-07
                        max_scf                                                5
                        No outer loop optimization
                        step_size                                       5.00E-01

 Number of electrons:                                                         28
 Number of occupied orbitals:                                                 14
 Number of molecular orbitals:                                                14

 Number of orbital functions:                                                117
 Number of independent orbital functions:                                    117

 Extrapolation method: initial_guess


 SCF WAVEFUNCTION OPTIMIZATION

  ----------------------------------- OT ---------------------------------------
  Minimizer      : DIIS                : direct inversion
                                         in the iterative subspace
                                         using   7 DIIS vectors
                                         safer DIIS on
  Preconditioner : FULL_ALL            : diagonalization, state selective
  Precond_solver : DEFAULT
  stepsize       :    0.10000000                  energy_gap     :    0.08000000
  eps_taylor     :   0.10000E-15                  max_taylor     :             4
  ----------------------------------- OT ---------------------------------------

  Step     Update method      Time    Convergence         Total energy    Change
  ------------------------------------------------------------------------------
     1 OT DIIS     0.10E+00    0.8     0.33413000      -237.8813515142 -2.38E+02
     2 OT DIIS     0.10E+00    0.9     0.30979701      -237.9756151480 -9.43E-02
     3 OT DIIS     0.10E+00    0.9     0.06853162      -243.7860898528 -5.81E+00
     4 OT DIIS     0.10E+00    0.9     0.04976404      -244.0122321680 -2.26E-01
     5 OT DIIS     0.10E+00    0.9     0.03766979      -244.2265246992 -2.14E-01
     6 OT DIIS     0.10E+00    0.9     0.01514985      -244.4327823354 -2.06E-01
     7 OT DIIS     0.10E+00    0.9     0.01415286      -244.4727263417 -3.99E-02
     8 OT DIIS     0.10E+00    0.9     0.00684099      -244.4963912087 -2.37E-02
     9 OT DIIS     0.10E+00    0.9     0.00488392      -244.5078716301 -1.15E-02
    10 OT DIIS     0.10E+00    0.9     0.00466583      -244.5166601872 -8.79E-03
    11 OT DIIS     0.10E+00    0.9     0.00584598      -244.5194565470 -2.80E-03
    12 OT DIIS     0.10E+00    0.9     0.00306466      -244.5267117010 -7.26E-03
    13 OT DIIS     0.10E+00    0.9     0.00418587      -244.5343829135 -7.67E-03
    14 OT DIIS     0.10E+00    0.9     0.00223895      -244.5379667584 -3.58E-03
    15 OT DIIS     0.10E+00    0.9     0.00298114      -244.5417762071 -3.81E-03
    16 OT DIIS     0.10E+00    0.9     0.00169161      -244.5430399361 -1.26E-03
    17 OT DIIS     0.10E+00    0.9     0.00176842      -244.5449185821 -1.88E-03
    18 OT DIIS     0.10E+00    0.9     0.00173290      -244.5470148054 -2.10E-03
    19 OT DIIS     0.10E+00    0.9     0.00178995      -244.5489010157 -1.89E-03
    20 OT DIIS     0.10E+00    0.9     0.00708802      -244.5463914446  2.51E-03

  Leaving inner SCF loop after reaching    20 steps.


  Electronic density on regular grids:        -30.0085501135       -2.0085501135
  Core density on regular grids:               27.0000000000        0.0000000000
  Hard and soft densities (Lebedev):          -29.8900681861      -31.8986182997
  Total Rho_soft + Rho1_hard - Rho1_soft      -27.9999999998
  Total charge density (r-space):              -0.9999999998
  Total Rho_soft + Rho0_soft (g-space):        -1.0000002894

  Overlap energy of the core charge distribution:               0.00000000000000
  Self energy of the core charge distribution:               -363.88717553732988
  Core Hamiltonian energy:                                     76.61521907459986
  Hartree energy:                                             257.54389073897710
  Exchange-correlation energy:                                -23.01692586588165

  GAPW| Exc from hard and soft atomic rho1:                     3.10031779635574
  GAPW| local Eh = 1 center integrals:                       -194.90171765130813

  Total energy:                                              -244.54639144458699

  outer SCF iter =    1 RMS gradient =   0.71E-02 energy =       -244.5463914446

  ----------------------------------- OT ---------------------------------------
  Minimizer      : DIIS                : direct inversion
                                         in the iterative subspace
                                         using   7 DIIS vectors
                                         safer DIIS on
  Preconditioner : FULL_ALL            : diagonalization, state selective
  Precond_solver : DEFAULT
  stepsize       :    0.10000000                  energy_gap     :    0.08000000
  eps_taylor     :   0.10000E-15                  max_taylor     :             4
  ----------------------------------- OT ---------------------------------------

  Step     Update method      Time    Convergence         Total energy    Change
  ------------------------------------------------------------------------------
     1 OT DIIS     0.10E+00    1.9     0.00416355      -244.5480191018 -1.63E-03
     2 OT DIIS     0.10E+00    0.9     0.00314127      -244.5503536318 -2.33E-03
     3 OT DIIS     0.10E+00    0.9     0.00246577      -244.5520069117 -1.65E-03
     4 OT DIIS     0.10E+00    0.9     0.00169204      -244.5539696507 -1.96E-03
     5 OT DIIS     0.10E+00    0.9     0.00097207      -244.5548508153 -8.81E-04
     6 OT DIIS     0.10E+00    0.9     0.00106327      -244.5553341109 -4.83E-04
     7 OT DIIS     0.10E+00    0.9     0.00060297      -244.5553177301  1.64E-05
     8 OT DIIS     0.10E+00    0.9     0.00025023      -244.5554314063 -1.14E-04
     9 OT DIIS     0.10E+00    0.9     0.00008424      -244.5554376732 -6.27E-06
    10 OT DIIS     0.10E+00    0.9     0.00002232      -244.5554384237 -7.51E-07
    11 OT DIIS     0.10E+00    0.9     0.00002304      -244.5554385327 -1.09E-07
    12 OT DIIS     0.10E+00    0.9     0.00000774      -244.5554386032 -7.05E-08
    13 OT DIIS     0.10E+00    0.9     0.00000122      -244.5554386114 -8.21E-09
    14 OT DIIS     0.10E+00    0.9     0.00000019      -244.5554386116 -2.57E-10
    15 OT DIIS     0.10E+00    0.9     0.00000005      -244.5554386116 -8.87E-12

  *** SCF run converged in    15 steps ***


  Electronic density on regular grids:        -30.0075042202       -2.0075042202
  Core density on regular grids:               27.0000000000        0.0000000000
  Hard and soft densities (Lebedev):          -29.7586815593      -31.7661857796
  Total Rho_soft + Rho1_hard - Rho1_soft      -27.9999999999
  Total charge density (r-space):              -0.9999999999
  Total Rho_soft + Rho0_soft (g-space):        -1.0000002895

  Overlap energy of the core charge distribution:               0.00000000000000
  Self energy of the core charge distribution:               -363.88717553732988
  Core Hamiltonian energy:                                     76.53629553821334
  Hartree energy:                                             257.64172938852823
  Exchange-correlation energy:                                -23.00647870650752

  GAPW| Exc from hard and soft atomic rho1:                     3.09754165500928
  GAPW| local Eh = 1 center integrals:                       -194.93735094956111

  Total energy:                                              -244.55543861164767

  outer SCF iter =    2 RMS gradient =   0.49E-07 energy =       -244.5554386116
  outer SCF loop converged in   2 iterations or   35 steps


 ENERGY| Total FORCE_EVAL ( QS ) energy [a.u.]:             -244.555438611647673

 -------------------------------------------------------------------------------
 -                                                                             -
 -                                DBCSR STATISTICS                             -
 -                                                                             -
 -------------------------------------------------------------------------------
 COUNTER                                    TOTAL       BLAS       SMM       ACC
 flops    35 x    35 x    14              1234800       0.0%    100.0%      0.0%
 flops    14 x    14 x    14              1629936       0.0%    100.0%      0.0%
 flops    14 x    14 x    35              1948240       0.0%    100.0%      0.0%
 flops    35 x    14 x    35              2881200       0.0%    100.0%      0.0%
 flops    35 x    82 x    14              2892960       0.0%    100.0%      0.0%
 flops    14 x    14 x    82              4564448       0.0%    100.0%      0.0%
 flops    35 x    14 x    82              6750240       0.0%    100.0%      0.0%
 flops    82 x    14 x    35              6750240       0.0%    100.0%      0.0%
 flops    82 x    82 x    14              6777792       0.0%    100.0%      0.0%
 flops   117 x    14 x    14              8117928       0.0%    100.0%      0.0%
 flops   117 x    14 x    35              8484840       0.0%    100.0%      0.0%
 flops    82 x    14 x    82             15814848       0.0%    100.0%      0.0%
 flops   117 x    14 x    82             19878768       0.0%    100.0%      0.0%
 flops inhomo. stacks                           0       0.0%      0.0%      0.0%
 flops total                        87.726240E+06       0.0%    100.0%      0.0%
 flops max/rank                     86.491440E+06       0.0%    100.0%      0.0%
 matmuls inhomo. stacks                         0       0.0%      0.0%      0.0%
 matmuls total                               1350       0.0%    100.0%      0.0%
 number of processed stacks                  1350       0.0%    100.0%      0.0%
 average stack size                                     0.0       1.0       0.0
 marketing flops                    90.711088E+06
 -------------------------------------------------------------------------------
 # multiplications                            812
 max memory usage/rank             507.518976E+06
 # max total images/rank                        3
 # max 3D layers                                1
 # MPI messages exchanged                  779520
 MPI messages size (bytes):
  total size                       262.064160E+06
  min size                           0.000000E+00
  max size                          76.752000E+03
  average size                     336.186584E+00
 MPI breakdown and total messages size (bytes):
             size <=      128              763872                        0
       128 < size <=     8192                7259                 17426752
      8192 < size <=    32768                6651                111242432
     32768 < size <=   131072                1738                133394976
    131072 < size <=  4194304                   0                        0
   4194304 < size <= 16777216                   0                        0
  16777216 < size                               0                        0
 -------------------------------------------------------------------------------

 *** WARNING in dbcsr_mm.F:290 :: Using a non-square number of MPI ranks ***
 *** might lead to poor performance. Used ranks: 48 Suggested: 49 100    ***

 -------------------------------------------------------------------------------
 -                                                                             -
 -                      DBCSR MESSAGE PASSING PERFORMANCE                      -
 -                                                                             -
 -------------------------------------------------------------------------------
 ROUTINE             CALLS      AVE VOLUME [Bytes]
 MP_Bcast               14                     12.
 MP_Allreduce         4349                      8.
 MP_Alltoall          2981                   4727.
 MP_ISend            36318                    910.
 MP_IRecv            35794                    243.
 -------------------------------------------------------------------------------

 -------------------------------------------------------------------------------
 -                                                                             -
 -                                GRID STATISTICS                              -
 -                                                                             -
 -------------------------------------------------------------------------------
 LP    KERNEL             BACKEND                              COUNT     PERCENT
 1     collocate ortho    REF                                  39744      13.74%
 1     integrate ortho    REF                                  38640      13.36%
 2     collocate ortho    REF                                  37044      12.81%
 2     integrate ortho    REF                                  36015      12.46%
 3     collocate ortho    REF                                  26856       9.29%
 3     integrate ortho    REF                                  26110       9.03%
 0     collocate ortho    REF                                  17496       6.05%
 0     integrate ortho    REF                                  17010       5.88%
 4     collocate ortho    REF                                  14436       4.99%
 4     integrate ortho    REF                                  14035       4.85%
 5     collocate ortho    REF                                   5652       1.95%
 5     integrate ortho    REF                                   5495       1.90%
 2     collocate general  REF                                   3360       1.16%
 2     integrate general  REF                                   3360       1.16%
 6     collocate ortho    REF                                   1584       0.55%
 6     integrate ortho    REF                                   1540       0.53%
 7     collocate ortho    REF                                    360       0.12%
 7     integrate ortho    REF                                    350       0.12%
 8     collocate ortho    REF                                     36       0.01%
 8     integrate ortho    REF                                     35       0.01%
 -------------------------------------------------------------------------------

 MEMORY| Estimated peak process memory [MiB]                                 485

 -------------------------------------------------------------------------------
 -                                                                             -
 -                         MESSAGE PASSING PERFORMANCE                         -
 -                                                                             -
 -------------------------------------------------------------------------------

 ROUTINE             CALLS      AVE VOLUME [Bytes]
 MP_Group                4
 MP_Bcast              611                 568629.
 MP_Allreduce         1890                 298600.
 MP_Sync                82
 MP_Alltoall           790                2994301.
 MP_ISendRecv        10011                 115392.
 MP_Wait             18612
 MP_comm_split          39
 MP_ISend             7896                 222537.
 MP_IRecv             7896                 222577.
 MP_Recv                12                   1872.
 -------------------------------------------------------------------------------


 -------------------------------------------------------------------------------
 -                                                                             -
 -                           R E F E R E N C E S                               -
 -                                                                             -
 -------------------------------------------------------------------------------
 
 CP2K version 10.0 (Development Version), the CP2K developers group (2022).
 CP2K is freely available from https://www.cp2k.org/ .

 Kuehne,Thomas D.; Iannuzzi,Marcella; Del Ben,Mauro;
 Rybkin,Vladimir V.; Seewald,Patrick; Stein,Frederick; Laino,Teodoro;
 Khaliullin,Rustam Z.; Schuett,Ole; Schiffmann,Florian; Golze,Dorothea;
 Wilhelm,Jan; Chulkov,Sergey; Bani-Hashemian,Mohammad Hossein;
 Weber,Valery; Borstnik,Urban; Taillefumier,Mathieu;
 Jakobovits,Alice Shoshana; Lazzaro,Alfio; Pabst,Hans; Mueller,Tiziano;
 Schade,Robert; Guidon,Manuel; Andermatt,Samuel; Holmberg,Nico;
 Schenter,Gregory K.; Hehn,Anna; Bussy,Augustin; Belleflamme,Fabian;
 Tabacchi,Gloria; Gloess,Andreas; Lass,Michael; Bethune,Iain;
 Mundy,Christopher J.; Plessl,Christian; Watkins,Matt;
 VandeVondele,Joost; Krack,Matthias; Hutter,Juerg. 
 The Journal of Chemical Physics, 152 (19), (2020). 
 CP2K: An electronic structure and molecular dynamics software package -
 Quickstep: Efficient and accurate electronic structure calculations.
 https://doi.org/10.1063/5.0007045

 Schuett, Ole; Messmer, Peter; Hutter, Juerg; VandeVondele, Joost. 
 Electronic Structure Calculations on Graphics Processing Units, John
 Wiley & Sons, Ltd, 173-190 (2016). 
 GPU-Accelerated Sparse Matrix-Matrix Multiplication for
 Linear Scaling Density Functional Theory.
 https://doi.org/10.1002/9781118670712.ch8

 Heinecke, A; Henry, G; Hutchinson, M; Pabst, H. 
 Proceedings of Intl. Supercomputing Conference, 981-991 (2016). 
 LIBXSMM: Accelerating Small Matrix Multiplications
 by Runtime Code Generation.
 https://doi.org/10.1109/SC.2016.83

 Borstnik, U; VandeVondele, J; Weber, V; Hutter, J. 
 PARALLEL COMPUTING, 40 (5-6), 47-58 (2014). 
 Sparse matrix multiplication: The distributed block-compressed sparse
 row library.
 https://doi.org/10.1016/j.parco.2014.03.012

 Hutter, J; Iannuzzi, M; Schiffmann, F; VandeVondele, J. 
 WIREs Comput Mol Sci., 4 (1), 15-25 (2014). 
 CP2K: atomistic simulations of condensed matter systems.
 https://doi.org/10.1002/wcms.1159

 Marek, A; Blum, V; Johanni, R; Havu, V; Lang, B; Auckenthaler, T;
 Heinecke, A; Bungartz, H; Lederer, H. 
 Journal of Physics: Condensed Matter, 26 (21), (2014). 
 The ELPA library: scalable parallel eigenvalue solutions for
 electronic structure
 theory and computational science.
 https://doi.org/10.1088/0953-8984/26/21/213201

 Krack, M. 
 THEORETICAL CHEMISTRY ACCOUNTS, 114 (1-3), 145-152 (2005). 
 Pseudopotentials for H to Kr optimized for gradient-corrected
 exchange-correlation functionals.
 https://doi.org/10.1007/s00214-005-0655-y

 Frigo, M; Johnson, SG. 
 PROCEEDINGS OF THE IEEE, 93 (2), 216-231 (2005). 
 The design and implementation of FFTW3.
 https://doi.org/10.1109/JPROC.2004.840301

 VandeVondele, J; Hutter, J. 
 JOURNAL OF CHEMICAL PHYSICS, 118 (10), 4365-4369 (2003). 
 An efficient orbital transformation method for electronic structure
 calculations.
 https://doi.org/10.1063/1.1543154

 Lippert, G; Hutter, J; Parrinello, M. 
 THEORETICAL CHEMISTRY ACCOUNTS, 103 (2), 124-140 (1999). 
 The Gaussian and augmented-plane-wave density functional method for ab
 initio molecular dynamics simulations.
 https://doi.org/10.1007/s002140050523

 Krack, M; Parrinello, M. 
 PHYSICAL CHEMISTRY CHEMICAL PHYSICS, 2 (10), 2105-2112 (2000). 
 All-electron ab-initio molecular dynamics.
 https://doi.org/10.1039/b001167n

 Hartwigsen, C; Goedecker, S; Hutter, J. 
 PHYSICAL REVIEW B, 58 (7), 3641-3662 (1998). 
 Relativistic separable dual-space Gaussian pseudopotentials from H to Rn.
 https://doi.org/10.1103/PhysRevB.58.3641

 Perdew, JP; Burke, K; Ernzerhof, M. 
 PHYSICAL REVIEW LETTERS, 77 (18), 3865-3868 (1996). 
 Generalized gradient approximation made simple.
 https://doi.org/10.1103/PhysRevLett.77.3865

 Goedecker, S; Teter, M; Hutter, J. 
 PHYSICAL REVIEW B, 54 (3), 1703-1710 (1996). 
 Separable dual-space Gaussian pseudopotentials.
 https://doi.org/10.1103/PhysRevB.54.1703


 -------------------------------------------------------------------------------
 -                                                                             -
 -                                T I M I N G                                  -
 -                                                                             -
 -------------------------------------------------------------------------------
 SUBROUTINE                       CALLS  ASD         SELF TIME        TOTAL TIME
                                MAXIMUM       AVERAGE  MAXIMUM  AVERAGE  MAXIMUM
 CP2K                                 1  1.0    0.010    0.033   33.646   33.648
 qs_energies                          1  2.0    0.000    0.000   33.354   33.355
 scf_env_do_scf                       1  3.0    0.000    0.000   32.754   32.755
 scf_env_do_scf_inner_loop           35  4.0    0.001    0.002   31.176   31.177
 qs_ks_update_qs_env                 37  5.0    0.000    0.000   27.103   27.106
 rebuild_ks_matrix                   35  6.0    0.000    0.000   27.100   27.101
 qs_ks_build_kohn_sham_matrix        35  7.0    0.007    0.009   27.099   27.101
 pw_transfer                        740 10.1    0.083    0.103    7.586    7.948
 fft_wrap_pw1pw2                    635 11.3    0.009    0.011    7.425    7.793
 prepare_gapw_den                    35  8.0    0.001    0.002    7.566    7.605
 rs_pw_transfer                     354  9.5    0.009    0.012    7.162    7.469
 fft_wrap_pw1pw2_300                422 12.7    0.518    0.598    6.949    7.366
 qs_vxc_create                       35  8.0    0.001    0.001    6.625    6.625
 xc_vxc_pw_create                    35  9.0    0.052    0.059    6.624    6.624
 fft3d_ps                           635 13.3    2.916    3.442    5.790    6.173
 mp_sum_d                          1380  7.3    4.626    4.935    4.626    4.935
 qs_rho_update_rho                   36  5.0    0.001    0.001    4.829    4.831
 calculate_rho_elec                  36  6.0    0.020    0.021    4.580    4.580
 xc_pw_derive                       210 11.0    0.002    0.003    4.038    4.485
 calculate_rho0_atom                 70  9.0    4.132    4.310    4.132    4.310
 density_rs2pw                       36  7.0    0.002    0.002    3.471    3.846
 sum_up_and_integrate                35  8.0    0.017    0.022    3.764    3.780
 integrate_v_rspace                  35  9.0    0.001    0.001    3.746    3.762
 xc_rho_set_and_dset_create          35 10.0    0.051    0.060    3.581    3.732
 integrate_vhg0_rspace               35  8.0    0.324    0.640    3.686    3.699
 calculate_rho_atom                  70  9.0    1.005    3.524    1.005    3.524
 calculate_vxc_atom                  35  8.0    0.016    0.224    3.458    3.458
 potential_pw2rs                     35 10.0    0.003    0.003    3.294    3.300
 mp_alltoall_z22v                   635 15.3    2.201    3.265    2.201    3.265
 xc_pw_divergence                    35 10.0    0.001    0.002    2.806    3.187
 gaVxcgb_GC                          70  9.0    0.065    3.096    0.065    3.096
 rs_pw_transfer_RS2PW_300            71 10.0    1.677    1.812    2.506    2.844
 rs_pw_transfer_PW2RS_300            70 11.0    1.676    1.761    2.710    2.839
 yz_to_x                            283 14.1    0.296    0.380    1.583    2.330
 mp_sum_dm                          214  7.7    2.065    2.137    2.065    2.137
 put_rho0_on_grid                    35  9.0    0.023    0.028    2.086    2.125
 mp_waitany                        7896 11.5    1.413    1.822    1.413    1.822
 xc_functional_eval                 175 10.9    0.001    0.001    1.579    1.804
 pbe_lda_eval                       175 11.9    1.579    1.803    1.579    1.803
 init_scf_loop                        2  4.0    0.000    0.000    1.578    1.578
 mp_waitall_1                     75676 13.9    1.338    1.514    1.338    1.514
 x_to_yz                            281 14.6    0.328    0.374    1.236    1.374
 mp_sum_dv                          570 12.7    0.344    1.320    0.344    1.320
 grid_collocate_task_list            36  7.0    0.903    0.983    0.903    0.983
 dbcsr_multiply_generic             812 10.1    0.024    0.025    0.959    0.973
 rs_pw_transfer_PW2RS_100            35 12.0    0.198    0.246    0.881    0.936
 Vh_1c_gg_integrals                  35  8.0    0.026    0.828    0.839    0.902
 qs_scf_new_mos                      35  5.0    0.000    0.000    0.882    0.884
 qs_scf_loop_do_ot                   35  6.0    0.000    0.000    0.881    0.884
 ot_scf_mini                         35  7.0    0.000    0.000    0.845    0.847
 -------------------------------------------------------------------------------

 The number of warnings for this run is : 1
 
 -------------------------------------------------------------------------------
  **** **** ******  **  PROGRAM ENDED AT                 2022-06-07 18:44:21.054
 ***** ** ***  *** **   PROGRAM RAN ON                                   tcopt10
 **    ****   ******    PROGRAM RAN BY                                    hutter
 ***** **    ** ** **   PROGRAM PROCESS ID                                 91218
  **** **  *******  **  PROGRAM STOPPED IN /data/hutter/GITHUB/BASIS/scMOLOPT/PB
                                           E/Po
