
  **** **** ******  **  PROGRAM STARTED AT               2021-01-05 21:30:31.843
 ***** ** ***  *** **   PROGRAM STARTED ON                               tcopt10
 **    ****   ******    PROGRAM STARTED BY                                hutter
 ***** **    ** ** **   PROGRAM PROCESS ID                                 59140
  **** **  *******  **  PROGRAM STARTED IN /data/hutter/GITHUB/BASIS/MOLOPT/PBE/
                                           Ge

 CP2K| version string:                    CP2K version 9.0 (Development Version)
 CP2K| source code revision number:                                  git:e8cde91
 CP2K| cp2kflags: omp libint fftw3 libxc elpa parallel mpi3 scalapack xsmm spgli
 CP2K|            b sirius
 CP2K| is freely available from                            https://www.cp2k.org/
 CP2K| Program compiled at                          Tue Jan  5 16:49:35 CET 2021
 CP2K| Program compiled on                                               tcopt10
 CP2K| Program compiled for                                                local
 CP2K| Data directory path                 /data/hutter/GITHUB/CURRENT/cp2k/data
 CP2K| Input file name                                              opt-dzvp.inp

 GLOBAL| Method name                                              OPTIMIZE_BASIS
 GLOBAL| Project name                                                     molopt
 GLOBAL| Preferred FFT library                                             FFTW3
 GLOBAL| Preferred diagonalization lib.                                     ELPA
 GLOBAL| Run type                                                   ENERGY_FORCE
 GLOBAL| All-to-all communication in single precision                          F
 GLOBAL| FFTs using library dependent lengths                                  F
 GLOBAL| Global print level                                               MEDIUM
 GLOBAL| MPI I/O enabled                                                       T
 GLOBAL| Total number of message passing processes                            24
 GLOBAL| Number of threads for this process                                    1
 GLOBAL| This output is from process                                           0
 GLOBAL| CPU model name                          AMD EPYC 7401 24-Core Processor
 GLOBAL| CPUID                                                              1002

 MEMORY| system memory details [Kb]
 MEMORY|                        rank 0           min           max       average
 MEMORY| MemTotal            263987256     263987256     263987256     263987256
 MEMORY| MemFree             228900816     228900816     228900816     228900816
 MEMORY| Buffers                   148           148           148           148
 MEMORY| Cached               31415416      31415416      31415416      31415416
 MEMORY| Slab                  1101524       1101524       1101524       1101524
 MEMORY| SReclaimable           501232        501232        501232        501232
 MEMORY| MemLikelyFree       260817612     260817612     260817612     260817612


 *** Fundamental physical constants (SI units) ***

 *** Literature: B. J. Mohr and B. N. Taylor,
 ***             CODATA recommended values of the fundamental physical
 ***             constants: 2006, Web Version 5.1
 ***             http://physics.nist.gov/constants

 Speed of light in vacuum [m/s]                             2.99792458000000E+08
 Magnetic constant or permeability of vacuum [N/A**2]       1.25663706143592E-06
 Electric constant or permittivity of vacuum [F/m]          8.85418781762039E-12
 Planck constant (h) [J*s]                                  6.62606896000000E-34
 Planck constant (h-bar) [J*s]                              1.05457162825177E-34
 Elementary charge [C]                                      1.60217648700000E-19
 Electron mass [kg]                                         9.10938215000000E-31
 Electron g factor [ ]                                     -2.00231930436220E+00
 Proton mass [kg]                                           1.67262163700000E-27
 Fine-structure constant                                    7.29735253760000E-03
 Rydberg constant [1/m]                                     1.09737315685270E+07
 Avogadro constant [1/mol]                                  6.02214179000000E+23
 Boltzmann constant [J/K]                                   1.38065040000000E-23
 Atomic mass unit [kg]                                      1.66053878200000E-27
 Bohr radius [m]                                            5.29177208590000E-11

 *** Conversion factors ***

 [u] -> [a.u.]                                              1.82288848426455E+03
 [Angstrom] -> [Bohr] = [a.u.]                              1.88972613288564E+00
 [a.u.] = [Bohr] -> [Angstrom]                              5.29177208590000E-01
 [a.u.] -> [s]                                              2.41888432650478E-17
 [a.u.] -> [fs]                                             2.41888432650478E-02
 [a.u.] -> [J]                                              4.35974393937059E-18
 [a.u.] -> [N]                                              8.23872205491840E-08
 [a.u.] -> [K]                                              3.15774647902944E+05
 [a.u.] -> [kJ/mol]                                         2.62549961709828E+03
 [a.u.] -> [kcal/mol]                                       6.27509468713739E+02
 [a.u.] -> [Pa]                                             2.94210107994716E+13
 [a.u.] -> [bar]                                            2.94210107994716E+08
 [a.u.] -> [atm]                                            2.90362800883016E+08
 [a.u.] -> [eV]                                             2.72113838565563E+01
 [a.u.] -> [Hz]                                             6.57968392072181E+15
 [a.u.] -> [1/cm] (wave numbers)                            2.19474631370540E+05
 [a.u./Bohr**2] -> [1/cm]                                   5.14048714338585E+03
 
 DBCSR| CPU Multiplication driver                                           XSMM
 DBCSR| Multrec recursion limit                                              512
 DBCSR| Multiplication stack size                                           1000
 DBCSR| Maximum elements for images                                    UNLIMITED
 DBCSR| Multiplicative factor virtual images                                   1
 DBCSR| Use multiplication densification                                       T
 DBCSR| Multiplication size stacks                                             3
 DBCSR| Use memory pool for CPU allocation                                     F
 DBCSR| Number of 3D layers                                               SINGLE
 DBCSR| Use MPI memory allocation                                              F
 DBCSR| Use RMA algorithm                                                      F
 DBCSR| Use Communication thread                                               T
 DBCSR| Communication thread load                                             87
 DBCSR| MPI: My node id                                                        0
 DBCSR| MPI: Number of nodes                                                  24
 DBCSR| OMP: Current number of threads                                         1
 DBCSR| OMP: Max number of threads                                             1
 DBCSR| Split modifier for TAS multiplication algorithm                  1.0E+00

 BASOPT| Total number of calculations      6

 BASOPT| Content of basis combination      1
 BASOPT|     Element:   GE    Basis set:    DZVP-MOLOPT-PBE-GTH-Q4
 BASOPT|     Element:    H    Basis set:    DZVP-MOLOPT-PBE-GTH-Q1
 BASOPT|     Element:    O    Basis set:    DZVP-MOLOPT-PBE-GTH-Q6
 BASOPT|     Element:    F    Basis set:    DZVP-MOLOPT-PBE-GTH-Q7
 BASOPT|     Element:   CL    Basis set:    DZVP-MOLOPT-PBE-GTH-Q7

 BASOPT| Information at iteration number:       0
 BASOPT| Training set | Combination | Rho difference | Condition num. | Time
 BASOPT| -----------------------------------------------------------------------
 BASOPT|        1     |       1     | 0.72242980E-02 | 0.16623245E+03 |    0.076
 BASOPT|        2     |       1     | 0.53726782E-02 | 0.30707892E+03 |    0.081
 BASOPT|        3     |       1     | 0.31392864E-02 | 0.29745591E+03 |    0.020
 BASOPT|        4     |       1     | 0.24912014E-01 | 0.25855188E+03 |    0.043
 BASOPT|        5     |       1     | 0.46582154E-02 | 0.44512389E+02 |    0.026
 BASOPT|        6     |       1     | 0.40290360E-02 | 0.21051823E+03 |    0.010
 BASOPT| -----------------------------------------------------------------------
 BASOPT| Total residuum value: -.58361615E+03

 BASOPT| Information at iteration number:     100
 BASOPT| Training set | Combination | Rho difference | Condition num. | Time
 BASOPT| -----------------------------------------------------------------------
 BASOPT|        1     |       1     | 0.74847387E-02 | 0.21655045E+03 |    7.548
 BASOPT|        2     |       1     | 0.55249731E-02 | 0.25808295E+03 |    7.725
 BASOPT|        3     |       1     | 0.32282980E-02 | 0.23497128E+03 |    1.856
 BASOPT|        4     |       1     | 0.18912335E-01 | 0.22067609E+03 |    4.448
 BASOPT|        5     |       1     | 0.30861411E-02 | 0.41489782E+02 |    2.297
 BASOPT|        6     |       1     | 0.31052551E-02 | 0.18183372E+03 |    0.908
 BASOPT| -----------------------------------------------------------------------
 BASOPT| Total residuum value: -.58374775E+03

 BASOPT| Information at iteration number:     200
 BASOPT| Training set | Combination | Rho difference | Condition num. | Time
 BASOPT| -----------------------------------------------------------------------
 BASOPT|        1     |       1     | 0.75981326E-02 | 0.23889722E+03 |   15.325
 BASOPT|        2     |       1     | 0.56276156E-02 | 0.23403411E+03 |   15.812
 BASOPT|        3     |       1     | 0.33586500E-02 | 0.20786442E+03 |    3.880
 BASOPT|        4     |       1     | 0.16230276E-01 | 0.19787259E+03 |    9.377
 BASOPT|        5     |       1     | 0.26082192E-02 | 0.40077377E+02 |    4.813
 BASOPT|        6     |       1     | 0.31537966E-02 | 0.16982839E+03 |    1.983
 BASOPT| -----------------------------------------------------------------------
 BASOPT| Total residuum value: -.58378741E+03

 BASOPT| Information at iteration number:     300
 BASOPT| Training set | Combination | Rho difference | Condition num. | Time
 BASOPT| -----------------------------------------------------------------------
 BASOPT|        1     |       1     | 0.73147152E-02 | 0.24050784E+03 |   22.701
 BASOPT|        2     |       1     | 0.58237187E-02 | 0.23479397E+03 |   23.246
 BASOPT|        3     |       1     | 0.32607294E-02 | 0.22269637E+03 |    5.696
 BASOPT|        4     |       1     | 0.16290052E-01 | 0.19896221E+03 |   13.682
 BASOPT|        5     |       1     | 0.23973251E-02 | 0.42104850E+02 |    7.093
 BASOPT|        6     |       1     | 0.29224266E-02 | 0.17841053E+03 |    2.858
 BASOPT| -----------------------------------------------------------------------
 BASOPT| Total residuum value: -.58379557E+03

 BASOPT| Information at iteration number:     400
 BASOPT| Training set | Combination | Rho difference | Condition num. | Time
 BASOPT| -----------------------------------------------------------------------
 BASOPT|        1     |       1     | 0.73649077E-02 | 0.25045786E+03 |   30.064
 BASOPT|        2     |       1     | 0.58025946E-02 | 0.20934433E+03 |   30.659
 BASOPT|        3     |       1     | 0.33144178E-02 | 0.20166905E+03 |    7.506
 BASOPT|        4     |       1     | 0.14760474E-01 | 0.17952926E+03 |   17.914
 BASOPT|        5     |       1     | 0.21920848E-02 | 0.41366836E+02 |    9.359
 BASOPT|        6     |       1     | 0.30110550E-02 | 0.16335595E+03 |    3.727
 BASOPT| -----------------------------------------------------------------------
 BASOPT| Total residuum value: -.58382159E+03

 BASOPT| Information at iteration number:     500
 BASOPT| Training set | Combination | Rho difference | Condition num. | Time
 BASOPT| -----------------------------------------------------------------------
 BASOPT|        1     |       1     | 0.73354692E-02 | 0.24959016E+03 |   37.424
 BASOPT|        2     |       1     | 0.58734813E-02 | 0.19519140E+03 |   38.060
 BASOPT|        3     |       1     | 0.33528697E-02 | 0.19301069E+03 |    9.318
 BASOPT|        4     |       1     | 0.14003868E-01 | 0.16835889E+03 |   22.149
 BASOPT|        5     |       1     | 0.20533505E-02 | 0.41627803E+02 |   11.628
 BASOPT|        6     |       1     | 0.30595630E-02 | 0.15663846E+03 |    4.595
 BASOPT| -----------------------------------------------------------------------
 BASOPT| Total residuum value: -.58382511E+03

 BASOPT| Information at iteration number:     600
 BASOPT| Training set | Combination | Rho difference | Condition num. | Time
 BASOPT| -----------------------------------------------------------------------
 BASOPT|        1     |       1     | 0.72824648E-02 | 0.24161258E+03 |   44.784
 BASOPT|        2     |       1     | 0.59029838E-02 | 0.18765869E+03 |   45.463
 BASOPT|        3     |       1     | 0.33782405E-02 | 0.18603916E+03 |   11.130
 BASOPT|        4     |       1     | 0.13735215E-01 | 0.16258523E+03 |   26.379
 BASOPT|        5     |       1     | 0.20446090E-02 | 0.42639397E+02 |   13.898
 BASOPT|        6     |       1     | 0.30517459E-02 | 0.15287542E+03 |    5.462
 BASOPT| -----------------------------------------------------------------------
 BASOPT| Total residuum value: -.58382981E+03

 BASOPT| Information at iteration number:     700
 BASOPT| Training set | Combination | Rho difference | Condition num. | Time
 BASOPT| -----------------------------------------------------------------------
 BASOPT|        1     |       1     | 0.72649377E-02 | 0.23629051E+03 |   52.155
 BASOPT|        2     |       1     | 0.58364189E-02 | 0.18486171E+03 |   52.869
 BASOPT|        3     |       1     | 0.34277343E-02 | 0.17675694E+03 |   12.942
 BASOPT|        4     |       1     | 0.13646954E-01 | 0.16048945E+03 |   30.611
 BASOPT|        5     |       1     | 0.20438860E-02 | 0.43137975E+02 |   16.169
 BASOPT|        6     |       1     | 0.30667029E-02 | 0.14897772E+03 |    6.329
 BASOPT| -----------------------------------------------------------------------
 BASOPT| Total residuum value: -.58383521E+03

 BASOPT| Information at iteration number:     800
 BASOPT| Training set | Combination | Rho difference | Condition num. | Time
 BASOPT| -----------------------------------------------------------------------
 BASOPT|        1     |       1     | 0.72868845E-02 | 0.23597052E+03 |   59.520
 BASOPT|        2     |       1     | 0.57818422E-02 | 0.18446885E+03 |   60.293
 BASOPT|        3     |       1     | 0.34371231E-02 | 0.17657259E+03 |   14.757
 BASOPT|        4     |       1     | 0.13647635E-01 | 0.16021703E+03 |   34.841
 BASOPT|        5     |       1     | 0.20755078E-02 | 0.43094929E+02 |   18.445
 BASOPT|        6     |       1     | 0.30876458E-02 | 0.14707940E+03 |    7.197
 BASOPT| -----------------------------------------------------------------------
 BASOPT| Total residuum value: -.58383693E+03

 BASOPT| Information at iteration number:     900
 BASOPT| Training set | Combination | Rho difference | Condition num. | Time
 BASOPT| -----------------------------------------------------------------------
 BASOPT|        1     |       1     | 0.72566322E-02 | 0.23167422E+03 |   66.887
 BASOPT|        2     |       1     | 0.58036605E-02 | 0.18096649E+03 |   67.718
 BASOPT|        3     |       1     | 0.34579661E-02 | 0.17420620E+03 |   16.572
 BASOPT|        4     |       1     | 0.13455538E-01 | 0.15723802E+03 |   39.072
 BASOPT|        5     |       1     | 0.20463679E-02 | 0.43412022E+02 |   20.722
 BASOPT|        6     |       1     | 0.30794325E-02 | 0.14506598E+03 |    8.066
 BASOPT| -----------------------------------------------------------------------
 BASOPT| Total residuum value: -.58383793E+03

 BASOPT| Information at iteration number:    1000
 BASOPT| Training set | Combination | Rho difference | Condition num. | Time
 BASOPT| -----------------------------------------------------------------------
 BASOPT|        1     |       1     | 0.72749864E-02 | 0.22887444E+03 |   74.256
 BASOPT|        2     |       1     | 0.57294784E-02 | 0.18321745E+03 |   75.127
 BASOPT|        3     |       1     | 0.34792245E-02 | 0.17626221E+03 |   18.386
 BASOPT|        4     |       1     | 0.13601436E-01 | 0.15886607E+03 |   43.302
 BASOPT|        5     |       1     | 0.20950168E-02 | 0.43328421E+02 |   22.998
 BASOPT|        6     |       1     | 0.30682637E-02 | 0.14372577E+03 |    8.935
 BASOPT| -----------------------------------------------------------------------
 BASOPT| Total residuum value: -.58383970E+03

 BASOPT| Information at iteration number:    1100
 BASOPT| Training set | Combination | Rho difference | Condition num. | Time
 BASOPT| -----------------------------------------------------------------------
 BASOPT|        1     |       1     | 0.72694674E-02 | 0.22620749E+03 |   81.626
 BASOPT|        2     |       1     | 0.57094506E-02 | 0.18233283E+03 |   82.535
 BASOPT|        3     |       1     | 0.35073538E-02 | 0.17542236E+03 |   20.203
 BASOPT|        4     |       1     | 0.13567285E-01 | 0.15784986E+03 |   47.535
 BASOPT|        5     |       1     | 0.21135008E-02 | 0.43459350E+02 |   25.275
 BASOPT|        6     |       1     | 0.30738895E-02 | 0.14182236E+03 |    9.805
 BASOPT| -----------------------------------------------------------------------
 BASOPT| Total residuum value: -.58384011E+03

 BASOPT| Information at iteration number:    1200
 BASOPT| Training set | Combination | Rho difference | Condition num. | Time
 BASOPT| -----------------------------------------------------------------------
 BASOPT|        1     |       1     | 0.72602098E-02 | 0.22490696E+03 |   88.998
 BASOPT|        2     |       1     | 0.57093110E-02 | 0.18143337E+03 |   89.945
 BASOPT|        3     |       1     | 0.35237841E-02 | 0.17466864E+03 |   22.020
 BASOPT|        4     |       1     | 0.13516610E-01 | 0.15709117E+03 |   51.773
 BASOPT|        5     |       1     | 0.21075680E-02 | 0.43637634E+02 |   27.553
 BASOPT|        6     |       1     | 0.30583055E-02 | 0.14059979E+03 |   10.676
 BASOPT| -----------------------------------------------------------------------
 BASOPT| Total residuum value: -.58384091E+03

 BASOPT| Information at iteration number:    1300
 BASOPT| Training set | Combination | Rho difference | Condition num. | Time
 BASOPT| -----------------------------------------------------------------------
 BASOPT|        1     |       1     | 0.72598828E-02 | 0.22474335E+03 |   96.367
 BASOPT|        2     |       1     | 0.57037567E-02 | 0.18175292E+03 |   97.346
 BASOPT|        3     |       1     | 0.35264829E-02 | 0.17489402E+03 |   23.837
 BASOPT|        4     |       1     | 0.13541497E-01 | 0.15737765E+03 |   56.007
 BASOPT|        5     |       1     | 0.21196292E-02 | 0.43646419E+02 |   29.831
 BASOPT|        6     |       1     | 0.30538769E-02 | 0.14057105E+03 |   11.546
 BASOPT| -----------------------------------------------------------------------
 BASOPT| Total residuum value: -.58384105E+03

 BASOPT| Information at iteration number:    1400
 BASOPT| Training set | Combination | Rho difference | Condition num. | Time
 BASOPT| -----------------------------------------------------------------------
 BASOPT|        1     |       1     | 0.72547423E-02 | 0.22055620E+03 |  103.736
 BASOPT|        2     |       1     | 0.56963737E-02 | 0.18153545E+03 |  104.760
 BASOPT|        3     |       1     | 0.35397137E-02 | 0.17329475E+03 |   25.653
 BASOPT|        4     |       1     | 0.13553059E-01 | 0.15682891E+03 |   60.239
 BASOPT|        5     |       1     | 0.21414160E-02 | 0.43754992E+02 |   32.112
 BASOPT|        6     |       1     | 0.30566355E-02 | 0.13968371E+03 |   12.419
 BASOPT| -----------------------------------------------------------------------
 BASOPT| Total residuum value: -.58384152E+03

 BASOPT| Information at iteration number:    1500
 BASOPT| Training set | Combination | Rho difference | Condition num. | Time
 BASOPT| -----------------------------------------------------------------------
 BASOPT|        1     |       1     | 0.72474721E-02 | 0.21516589E+03 |  111.107
 BASOPT|        2     |       1     | 0.56860343E-02 | 0.18184034E+03 |  112.168
 BASOPT|        3     |       1     | 0.35584360E-02 | 0.17295178E+03 |   27.471
 BASOPT|        4     |       1     | 0.13611552E-01 | 0.15683671E+03 |   64.471
 BASOPT|        5     |       1     | 0.21688861E-02 | 0.43853663E+02 |   34.395
 BASOPT|        6     |       1     | 0.30448345E-02 | 0.13894910E+03 |   13.292
 BASOPT| -----------------------------------------------------------------------
 BASOPT| Total residuum value: -.58384206E+03

 BASOPT| Information at iteration number:    1600
 BASOPT| Training set | Combination | Rho difference | Condition num. | Time
 BASOPT| -----------------------------------------------------------------------
 BASOPT|        1     |       1     | 0.72477789E-02 | 0.21245026E+03 |  118.479
 BASOPT|        2     |       1     | 0.56760093E-02 | 0.18052003E+03 |  119.581
 BASOPT|        3     |       1     | 0.35693052E-02 | 0.17115613E+03 |   29.289
 BASOPT|        4     |       1     | 0.13518028E-01 | 0.15559033E+03 |   68.701
 BASOPT|        5     |       1     | 0.21609060E-02 | 0.43743377E+02 |   36.677
 BASOPT|        6     |       1     | 0.30616290E-02 | 0.13783104E+03 |   14.163
 BASOPT| -----------------------------------------------------------------------
 BASOPT| Total residuum value: -.58384238E+03

 BASOPT| Information at iteration number:    1700
 BASOPT| Training set | Combination | Rho difference | Condition num. | Time
 BASOPT| -----------------------------------------------------------------------
 BASOPT|        1     |       1     | 0.72479079E-02 | 0.21118927E+03 |  125.856
 BASOPT|        2     |       1     | 0.56808295E-02 | 0.18087177E+03 |  127.008
 BASOPT|        3     |       1     | 0.35706583E-02 | 0.17062850E+03 |   31.109
 BASOPT|        4     |       1     | 0.13539583E-01 | 0.15575351E+03 |   72.934
 BASOPT|        5     |       1     | 0.21692307E-02 | 0.43727902E+02 |   38.961
 BASOPT|        6     |       1     | 0.30577629E-02 | 0.13797657E+03 |   15.036
 BASOPT| -----------------------------------------------------------------------
 BASOPT| Total residuum value: -.58384260E+03

 BASOPT| Information at iteration number:    1800
 BASOPT| Training set | Combination | Rho difference | Condition num. | Time
 BASOPT| -----------------------------------------------------------------------
 BASOPT|        1     |       1     | 0.72425757E-02 | 0.20837840E+03 |  133.235
 BASOPT|        2     |       1     | 0.56925128E-02 | 0.18031790E+03 |  134.419
 BASOPT|        3     |       1     | 0.35677504E-02 | 0.16944068E+03 |   32.931
 BASOPT|        4     |       1     | 0.13501467E-01 | 0.15512142E+03 |   77.168
 BASOPT|        5     |       1     | 0.21530931E-02 | 0.43630639E+02 |   41.247
 BASOPT|        6     |       1     | 0.30596141E-02 | 0.13811612E+03 |   15.910
 BASOPT| -----------------------------------------------------------------------
 BASOPT| Total residuum value: -.58384296E+03

 BASOPT| Information at iteration number:    1900
 BASOPT| Training set | Combination | Rho difference | Condition num. | Time
 BASOPT| -----------------------------------------------------------------------
 BASOPT|        1     |       1     | 0.72425616E-02 | 0.20587894E+03 |  140.617
 BASOPT|        2     |       1     | 0.56937793E-02 | 0.18074931E+03 |  141.824
 BASOPT|        3     |       1     | 0.35589725E-02 | 0.16871366E+03 |   34.752
 BASOPT|        4     |       1     | 0.13502474E-01 | 0.15528121E+03 |   81.402
 BASOPT|        5     |       1     | 0.21500517E-02 | 0.43416678E+02 |   43.535
 BASOPT|        6     |       1     | 0.30508693E-02 | 0.13856004E+03 |   16.783
 BASOPT| -----------------------------------------------------------------------
 BASOPT| Total residuum value: -.58384338E+03

 BASOPT| Information at iteration number:    2000
 BASOPT| Training set | Combination | Rho difference | Condition num. | Time
 BASOPT| -----------------------------------------------------------------------
 BASOPT|        1     |       1     | 0.72545695E-02 | 0.19627523E+03 |  148.000
 BASOPT|        2     |       1     | 0.56762899E-02 | 0.18522193E+03 |  149.232
 BASOPT|        3     |       1     | 0.35175219E-02 | 0.16745033E+03 |   36.571
 BASOPT|        4     |       1     | 0.13657528E-01 | 0.15812432E+03 |   85.636
 BASOPT|        5     |       1     | 0.21513356E-02 | 0.42249406E+02 |   45.820
 BASOPT|        6     |       1     | 0.30426660E-02 | 0.14149491E+03 |   17.655
 BASOPT| -----------------------------------------------------------------------
 BASOPT| Total residuum value: -.58384476E+03

 BASOPT| Information at iteration number:    2100
 BASOPT| Training set | Combination | Rho difference | Condition num. | Time
 BASOPT| -----------------------------------------------------------------------
 BASOPT|        1     |       1     | 0.72509653E-02 | 0.19509551E+03 |  155.381
 BASOPT|        2     |       1     | 0.56885786E-02 | 0.18478245E+03 |  156.637
 BASOPT|        3     |       1     | 0.35105800E-02 | 0.16605913E+03 |   38.390
 BASOPT|        4     |       1     | 0.13601448E-01 | 0.15763968E+03 |   89.876
 BASOPT|        5     |       1     | 0.21342689E-02 | 0.42084598E+02 |   48.104
 BASOPT|        6     |       1     | 0.30465274E-02 | 0.14170803E+03 |   18.528
 BASOPT| -----------------------------------------------------------------------
 BASOPT| Total residuum value: -.58384514E+03

 BASOPT| Information at iteration number:    2200
 BASOPT| Training set | Combination | Rho difference | Condition num. | Time
 BASOPT| -----------------------------------------------------------------------
 BASOPT|        1     |       1     | 0.72535375E-02 | 0.19423601E+03 |  162.766
 BASOPT|        2     |       1     | 0.56842903E-02 | 0.18620338E+03 |  164.039
 BASOPT|        3     |       1     | 0.35112260E-02 | 0.16646885E+03 |   40.209
 BASOPT|        4     |       1     | 0.13667901E-01 | 0.15860590E+03 |   94.114
 BASOPT|        5     |       1     | 0.21518504E-02 | 0.41975162E+02 |   50.387
 BASOPT|        6     |       1     | 0.30407088E-02 | 0.14207259E+03 |   19.403
 BASOPT| -----------------------------------------------------------------------
 BASOPT| Total residuum value: -.58384536E+03

 BASOPT| Information at iteration number:    2300
 BASOPT| Training set | Combination | Rho difference | Condition num. | Time
 BASOPT| -----------------------------------------------------------------------
 BASOPT|        1     |       1     | 0.72531704E-02 | 0.19231271E+03 |  170.155
 BASOPT|        2     |       1     | 0.56898559E-02 | 0.18676038E+03 |  171.447
 BASOPT|        3     |       1     | 0.35141078E-02 | 0.16729023E+03 |   42.029
 BASOPT|        4     |       1     | 0.13648986E-01 | 0.15865271E+03 |   98.354
 BASOPT|        5     |       1     | 0.21456765E-02 | 0.41778905E+02 |   52.670
 BASOPT|        6     |       1     | 0.30418751E-02 | 0.14204782E+03 |   20.279
 BASOPT| -----------------------------------------------------------------------
 BASOPT| Total residuum value: -.58384555E+03

 BASOPT| Information at iteration number:    2400
 BASOPT| Training set | Combination | Rho difference | Condition num. | Time
 BASOPT| -----------------------------------------------------------------------
 BASOPT|        1     |       1     | 0.72479527E-02 | 0.19139114E+03 |  177.539
 BASOPT|        2     |       1     | 0.56814284E-02 | 0.18769010E+03 |  178.855
 BASOPT|        3     |       1     | 0.35108950E-02 | 0.16759734E+03 |   43.849
 BASOPT|        4     |       1     | 0.13676316E-01 | 0.15928999E+03 |  102.589
 BASOPT|        5     |       1     | 0.21554603E-02 | 0.41670530E+02 |   54.954
 BASOPT|        6     |       1     | 0.30318553E-02 | 0.14221794E+03 |   21.155
 BASOPT| -----------------------------------------------------------------------
 BASOPT| Total residuum value: -.58384573E+03

 BASOPT| Information at iteration number:    2500
 BASOPT| Training set | Combination | Rho difference | Condition num. | Time
 BASOPT| -----------------------------------------------------------------------
 BASOPT|        1     |       1     | 0.72435651E-02 | 0.19013974E+03 |  184.928
 BASOPT|        2     |       1     | 0.56796905E-02 | 0.18753613E+03 |  186.274
 BASOPT|        3     |       1     | 0.35177155E-02 | 0.16718486E+03 |   45.669
 BASOPT|        4     |       1     | 0.13622643E-01 | 0.15901796E+03 |  106.827
 BASOPT|        5     |       1     | 0.21483418E-02 | 0.41526087E+02 |   57.237
 BASOPT|        6     |       1     | 0.30371543E-02 | 0.14180725E+03 |   22.033
 BASOPT| -----------------------------------------------------------------------
 BASOPT| Total residuum value: -.58384595E+03

 BASOPT| Information at iteration number:    2600
 BASOPT| Training set | Combination | Rho difference | Condition num. | Time
 BASOPT| -----------------------------------------------------------------------
 BASOPT|        1     |       1     | 0.72510879E-02 | 0.18976335E+03 |  192.312
 BASOPT|        2     |       1     | 0.56730221E-02 | 0.18810927E+03 |  193.681
 BASOPT|        3     |       1     | 0.35208265E-02 | 0.16716477E+03 |   47.489
 BASOPT|        4     |       1     | 0.13631152E-01 | 0.15931662E+03 |  111.063
 BASOPT|        5     |       1     | 0.21534853E-02 | 0.41345637E+02 |   59.520
 BASOPT|        6     |       1     | 0.30405629E-02 | 0.14167445E+03 |   22.910
 BASOPT| -----------------------------------------------------------------------
 BASOPT| Total residuum value: -.58384609E+03

 BASOPT| Information at iteration number:    2700
 BASOPT| Training set | Combination | Rho difference | Condition num. | Time
 BASOPT| -----------------------------------------------------------------------
 BASOPT|        1     |       1     | 0.72494190E-02 | 0.18954873E+03 |  199.696
 BASOPT|        2     |       1     | 0.56736261E-02 | 0.18847178E+03 |  201.091
 BASOPT|        3     |       1     | 0.35224270E-02 | 0.16717819E+03 |   49.310
 BASOPT|        4     |       1     | 0.13634222E-01 | 0.15951839E+03 |  115.300
 BASOPT|        5     |       1     | 0.21551856E-02 | 0.41274066E+02 |   61.801
 BASOPT|        6     |       1     | 0.30336812E-02 | 0.14163242E+03 |   23.787
 BASOPT| -----------------------------------------------------------------------
 BASOPT| Total residuum value: -.58384618E+03

 BASOPT| Information at iteration number:    2800
 BASOPT| Training set | Combination | Rho difference | Condition num. | Time
 BASOPT| -----------------------------------------------------------------------
 BASOPT|        1     |       1     | 0.72450711E-02 | 0.18915849E+03 |  207.082
 BASOPT|        2     |       1     | 0.56764536E-02 | 0.18807546E+03 |  208.495
 BASOPT|        3     |       1     | 0.35262059E-02 | 0.16679246E+03 |   51.134
 BASOPT|        4     |       1     | 0.13598250E-01 | 0.15912895E+03 |  119.536
 BASOPT|        5     |       1     | 0.21506104E-02 | 0.41268880E+02 |   64.080
 BASOPT|        6     |       1     | 0.30347801E-02 | 0.14132925E+03 |   24.662
 BASOPT| -----------------------------------------------------------------------
 BASOPT| Total residuum value: -.58384624E+03

 BASOPT| Information at iteration number:    2900
 BASOPT| Training set | Combination | Rho difference | Condition num. | Time
 BASOPT| -----------------------------------------------------------------------
 BASOPT|        1     |       1     | 0.72487071E-02 | 0.18877939E+03 |  214.463
 BASOPT|        2     |       1     | 0.56722121E-02 | 0.18816805E+03 |  215.896
 BASOPT|        3     |       1     | 0.35328525E-02 | 0.16630454E+03 |   52.957
 BASOPT|        4     |       1     | 0.13587790E-01 | 0.15910705E+03 |  123.773
 BASOPT|        5     |       1     | 0.21526780E-02 | 0.41200760E+02 |   66.367
 BASOPT|        6     |       1     | 0.30400286E-02 | 0.14099203E+03 |   25.538
 BASOPT| -----------------------------------------------------------------------
 BASOPT| Total residuum value: -.58384633E+03

 BASOPT| Information at iteration number:    3000
 BASOPT| Training set | Combination | Rho difference | Condition num. | Time
 BASOPT| -----------------------------------------------------------------------
 BASOPT|        1     |       1     | 0.72458701E-02 | 0.18878676E+03 |  221.849
 BASOPT|        2     |       1     | 0.56726924E-02 | 0.18825190E+03 |  223.306
 BASOPT|        3     |       1     | 0.35309590E-02 | 0.16646420E+03 |   54.782
 BASOPT|        4     |       1     | 0.13582661E-01 | 0.15917403E+03 |  128.009
 BASOPT|        5     |       1     | 0.21533455E-02 | 0.41150632E+02 |   68.658
 BASOPT|        6     |       1     | 0.30375547E-02 | 0.14104126E+03 |   26.413
 BASOPT| -----------------------------------------------------------------------
 BASOPT| Total residuum value: -.58384644E+03

 BASOPT| Information at iteration number:    3100
 BASOPT| Training set | Combination | Rho difference | Condition num. | Time
 BASOPT| -----------------------------------------------------------------------
 BASOPT|        1     |       1     | 0.72445921E-02 | 0.18849424E+03 |  229.235
 BASOPT|        2     |       1     | 0.56746829E-02 | 0.18793267E+03 |  230.714
 BASOPT|        3     |       1     | 0.35342055E-02 | 0.16622927E+03 |   56.606
 BASOPT|        4     |       1     | 0.13559122E-01 | 0.15883659E+03 |  132.244
 BASOPT|        5     |       1     | 0.21517570E-02 | 0.41105856E+02 |   70.948
 BASOPT|        6     |       1     | 0.30430247E-02 | 0.14071499E+03 |   27.289
 BASOPT| -----------------------------------------------------------------------
 BASOPT| Total residuum value: -.58384662E+03

 BASOPT| Information at iteration number:    3200
 BASOPT| Training set | Combination | Rho difference | Condition num. | Time
 BASOPT| -----------------------------------------------------------------------
 BASOPT|        1     |       1     | 0.72435365E-02 | 0.18830682E+03 |  236.620
 BASOPT|        2     |       1     | 0.56793898E-02 | 0.18621166E+03 |  238.124
 BASOPT|        3     |       1     | 0.35509704E-02 | 0.16471352E+03 |   58.431
 BASOPT|        4     |       1     | 0.13436406E-01 | 0.15729750E+03 |  136.483
 BASOPT|        5     |       1     | 0.21372045E-02 | 0.41102919E+02 |   73.239
 BASOPT|        6     |       1     | 0.30647708E-02 | 0.13933574E+03 |   28.165
 BASOPT| -----------------------------------------------------------------------
 BASOPT| Total residuum value: -.58384671E+03

 BASOPT| Information at iteration number:    3300
 BASOPT| Training set | Combination | Rho difference | Condition num. | Time
 BASOPT| -----------------------------------------------------------------------
 BASOPT|        1     |       1     | 0.72422810E-02 | 0.18836154E+03 |  244.001
 BASOPT|        2     |       1     | 0.56722152E-02 | 0.18823942E+03 |  245.541
 BASOPT|        3     |       1     | 0.35377188E-02 | 0.16605248E+03 |   60.253
 BASOPT|        4     |       1     | 0.13575745E-01 | 0.15903458E+03 |  140.719
 BASOPT|        5     |       1     | 0.21571003E-02 | 0.41040034E+02 |   75.521
 BASOPT|        6     |       1     | 0.30395782E-02 | 0.14049751E+03 |   29.042
 BASOPT| -----------------------------------------------------------------------
 BASOPT| Total residuum value: -.58384689E+03

 BASOPT| Information at iteration number:    3400
 BASOPT| Training set | Combination | Rho difference | Condition num. | Time
 BASOPT| -----------------------------------------------------------------------
 BASOPT|        1     |       1     | 0.72467337E-02 | 0.18831166E+03 |  251.382
 BASOPT|        2     |       1     | 0.56706450E-02 | 0.18850625E+03 |  252.944
 BASOPT|        3     |       1     | 0.35338764E-02 | 0.16641289E+03 |   62.076
 BASOPT|        4     |       1     | 0.13586690E-01 | 0.15920702E+03 |  144.952
 BASOPT|        5     |       1     | 0.21558089E-02 | 0.40884120E+02 |   77.811
 BASOPT|        6     |       1     | 0.30395405E-02 | 0.14055725E+03 |   29.918
 BASOPT| -----------------------------------------------------------------------
 BASOPT| Total residuum value: -.58384707E+03

 BASOPT| Information at iteration number:    3500
 BASOPT| Training set | Combination | Rho difference | Condition num. | Time
 BASOPT| -----------------------------------------------------------------------
 BASOPT|        1     |       1     | 0.72404307E-02 | 0.18839709E+03 |  258.767
 BASOPT|        2     |       1     | 0.56784422E-02 | 0.18798176E+03 |  260.347
 BASOPT|        3     |       1     | 0.35286801E-02 | 0.16665913E+03 |   63.901
 BASOPT|        4     |       1     | 0.13550485E-01 | 0.15879786E+03 |  149.190
 BASOPT|        5     |       1     | 0.21448783E-02 | 0.40731493E+02 |   80.102
 BASOPT|        6     |       1     | 0.30357964E-02 | 0.14049544E+03 |   30.795
 BASOPT| -----------------------------------------------------------------------
 BASOPT| Total residuum value: -.58384737E+03

 BASOPT| Information at iteration number:    3600
 BASOPT| Training set | Combination | Rho difference | Condition num. | Time
 BASOPT| -----------------------------------------------------------------------
 BASOPT|        1     |       1     | 0.72427327E-02 | 0.18850978E+03 |  266.152
 BASOPT|        2     |       1     | 0.56715116E-02 | 0.18823316E+03 |  267.754
 BASOPT|        3     |       1     | 0.35234704E-02 | 0.16684808E+03 |   65.727
 BASOPT|        4     |       1     | 0.13572884E-01 | 0.15903543E+03 |  153.428
 BASOPT|        5     |       1     | 0.21468026E-02 | 0.40485001E+02 |   82.393
 BASOPT|        6     |       1     | 0.30355747E-02 | 0.14048270E+03 |   31.672
 BASOPT| -----------------------------------------------------------------------
 BASOPT| Total residuum value: -.58384773E+03

 BASOPT| Information at iteration number:    3700
 BASOPT| Training set | Combination | Rho difference | Condition num. | Time
 BASOPT| -----------------------------------------------------------------------
 BASOPT|        1     |       1     | 0.72423464E-02 | 0.18873159E+03 |  273.539
 BASOPT|        2     |       1     | 0.56728262E-02 | 0.18832587E+03 |  275.161
 BASOPT|        3     |       1     | 0.35231806E-02 | 0.16688679E+03 |   67.553
 BASOPT|        4     |       1     | 0.13587108E-01 | 0.15911667E+03 |  157.667
 BASOPT|        5     |       1     | 0.21504791E-02 | 0.40487029E+02 |   84.685
 BASOPT|        6     |       1     | 0.30312238E-02 | 0.14039348E+03 |   32.551
 BASOPT| -----------------------------------------------------------------------
 BASOPT| Total residuum value: -.58384788E+03

 BASOPT| Information at iteration number:    3800
 BASOPT| Training set | Combination | Rho difference | Condition num. | Time
 BASOPT| -----------------------------------------------------------------------
 BASOPT|        1     |       1     | 0.72354543E-02 | 0.18885294E+03 |  280.932
 BASOPT|        2     |       1     | 0.56822428E-02 | 0.18699383E+03 |  282.561
 BASOPT|        3     |       1     | 0.35238418E-02 | 0.16672031E+03 |   69.379
 BASOPT|        4     |       1     | 0.13523029E-01 | 0.15812169E+03 |  161.903
 BASOPT|        5     |       1     | 0.21380260E-02 | 0.40296762E+02 |   86.972
 BASOPT|        6     |       1     | 0.30424883E-02 | 0.13978489E+03 |   33.429
 BASOPT| -----------------------------------------------------------------------
 BASOPT| Total residuum value: -.58384839E+03

 BASOPT| Information at iteration number:    3900
 BASOPT| Training set | Combination | Rho difference | Condition num. | Time
 BASOPT| -----------------------------------------------------------------------
 BASOPT|        1     |       1     | 0.72367020E-02 | 0.18910619E+03 |  288.329
 BASOPT|        2     |       1     | 0.56826404E-02 | 0.18691516E+03 |  289.966
 BASOPT|        3     |       1     | 0.35208676E-02 | 0.16667106E+03 |   71.206
 BASOPT|        4     |       1     | 0.13534497E-01 | 0.15812765E+03 |  166.143
 BASOPT|        5     |       1     | 0.21385305E-02 | 0.40172190E+02 |   89.260
 BASOPT|        6     |       1     | 0.30393541E-02 | 0.13976676E+03 |   34.307
 BASOPT| -----------------------------------------------------------------------
 BASOPT| Total residuum value: -.58384861E+03

 BASOPT| Information at iteration number:    4000
 BASOPT| Training set | Combination | Rho difference | Condition num. | Time
 BASOPT| -----------------------------------------------------------------------
 BASOPT|        1     |       1     | 0.72403452E-02 | 0.18964652E+03 |  295.721
 BASOPT|        2     |       1     | 0.56772516E-02 | 0.18683586E+03 |  297.385
 BASOPT|        3     |       1     | 0.35132641E-02 | 0.16663989E+03 |   73.032
 BASOPT|        4     |       1     | 0.13553567E-01 | 0.15824033E+03 |  170.382
 BASOPT|        5     |       1     | 0.21378034E-02 | 0.39889881E+02 |   91.555
 BASOPT|        6     |       1     | 0.30365165E-02 | 0.13977143E+03 |   35.185
 BASOPT| -----------------------------------------------------------------------
 BASOPT| Total residuum value: -.58384889E+03

 BASOPT| Information at iteration number:    4100
 BASOPT| Training set | Combination | Rho difference | Condition num. | Time
 BASOPT| -----------------------------------------------------------------------
 BASOPT|        1     |       1     | 0.72335718E-02 | 0.19006758E+03 |  303.112
 BASOPT|        2     |       1     | 0.56888341E-02 | 0.18575413E+03 |  304.817
 BASOPT|        3     |       1     | 0.35232301E-02 | 0.16585345E+03 |   74.858
 BASOPT|        4     |       1     | 0.13503888E-01 | 0.15735365E+03 |  174.621
 BASOPT|        5     |       1     | 0.21319299E-02 | 0.39980730E+02 |   93.852
 BASOPT|        6     |       1     | 0.30374717E-02 | 0.13898279E+03 |   36.063
 BASOPT| -----------------------------------------------------------------------
 BASOPT| Total residuum value: -.58384906E+03

 BASOPT| Information at iteration number:    4200
 BASOPT| Training set | Combination | Rho difference | Condition num. | Time
 BASOPT| -----------------------------------------------------------------------
 BASOPT|        1     |       1     | 0.72389436E-02 | 0.19177854E+03 |  310.504
 BASOPT|        2     |       1     | 0.56795462E-02 | 0.18541590E+03 |  312.265
 BASOPT|        3     |       1     | 0.35190366E-02 | 0.16508446E+03 |   76.686
 BASOPT|        4     |       1     | 0.13539728E-01 | 0.15737952E+03 |  178.859
 BASOPT|        5     |       1     | 0.21365338E-02 | 0.39775763E+02 |   96.149
 BASOPT|        6     |       1     | 0.30323009E-02 | 0.13860453E+03 |   36.940
 BASOPT| -----------------------------------------------------------------------
 BASOPT| Total residuum value: -.58384932E+03

 BASOPT| Information at iteration number:    4300
 BASOPT| Training set | Combination | Rho difference | Condition num. | Time
 BASOPT| -----------------------------------------------------------------------
 BASOPT|        1     |       1     | 0.72357176E-02 | 0.19248962E+03 |  317.916
 BASOPT|        2     |       1     | 0.56824767E-02 | 0.18395874E+03 |  319.719
 BASOPT|        3     |       1     | 0.35207698E-02 | 0.16394903E+03 |   78.514
 BASOPT|        4     |       1     | 0.13489181E-01 | 0.15637081E+03 |  183.102
 BASOPT|        5     |       1     | 0.21275338E-02 | 0.39649596E+02 |   98.435
 BASOPT|        6     |       1     | 0.30386759E-02 | 0.13788162E+03 |   37.820
 BASOPT| -----------------------------------------------------------------------
 BASOPT| Total residuum value: -.58384958E+03

 BASOPT| Information at iteration number:    4400
 BASOPT| Training set | Combination | Rho difference | Condition num. | Time
 BASOPT| -----------------------------------------------------------------------
 BASOPT|        1     |       1     | 0.72332346E-02 | 0.19416455E+03 |  325.315
 BASOPT|        2     |       1     | 0.56813640E-02 | 0.18322941E+03 |  327.164
 BASOPT|        3     |       1     | 0.35221882E-02 | 0.16306969E+03 |   80.339
 BASOPT|        4     |       1     | 0.13479227E-01 | 0.15603811E+03 |  187.343
 BASOPT|        5     |       1     | 0.21291226E-02 | 0.39502095E+02 |  100.720
 BASOPT|        6     |       1     | 0.30357319E-02 | 0.13728177E+03 |   38.698
 BASOPT| -----------------------------------------------------------------------
 BASOPT| Total residuum value: -.58384989E+03

 BASOPT| Information at iteration number:    4500
 BASOPT| Training set | Combination | Rho difference | Condition num. | Time
 BASOPT| -----------------------------------------------------------------------
 BASOPT|        1     |       1     | 0.72318902E-02 | 0.19439058E+03 |  332.713
 BASOPT|        2     |       1     | 0.56780127E-02 | 0.18339357E+03 |  334.604
 BASOPT|        3     |       1     | 0.35269953E-02 | 0.16265469E+03 |   82.166
 BASOPT|        4     |       1     | 0.13493597E-01 | 0.15621583E+03 |  191.587
 BASOPT|        5     |       1     | 0.21375382E-02 | 0.39490347E+02 |  103.005
 BASOPT|        6     |       1     | 0.30326963E-02 | 0.13702196E+03 |   39.577
 BASOPT| -----------------------------------------------------------------------
 BASOPT| Total residuum value: -.58384999E+03

 BASOPT| Information at iteration number:    4600
 BASOPT| Training set | Combination | Rho difference | Condition num. | Time
 BASOPT| -----------------------------------------------------------------------
 BASOPT|        1     |       1     | 0.72299580E-02 | 0.19488723E+03 |  340.117
 BASOPT|        2     |       1     | 0.56761513E-02 | 0.18290913E+03 |  342.042
 BASOPT|        3     |       1     | 0.35326346E-02 | 0.16176882E+03 |   83.991
 BASOPT|        4     |       1     | 0.13484025E-01 | 0.15590601E+03 |  195.827
 BASOPT|        5     |       1     | 0.21401142E-02 | 0.39577966E+02 |  105.290
 BASOPT|        6     |       1     | 0.30337654E-02 | 0.13647614E+03 |   40.454
 BASOPT| -----------------------------------------------------------------------
 BASOPT| Total residuum value: -.58385009E+03

 BASOPT| Information at iteration number:    4700
 BASOPT| Training set | Combination | Rho difference | Condition num. | Time
 BASOPT| -----------------------------------------------------------------------
 BASOPT|        1     |       1     | 0.72250044E-02 | 0.19588069E+03 |  347.518
 BASOPT|        2     |       1     | 0.56711337E-02 | 0.18274074E+03 |  349.482
 BASOPT|        3     |       1     | 0.35314782E-02 | 0.16124469E+03 |   85.817
 BASOPT|        4     |       1     | 0.13494815E-01 | 0.15591542E+03 |  200.069
 BASOPT|        5     |       1     | 0.21493255E-02 | 0.39648004E+02 |  107.575
 BASOPT|        6     |       1     | 0.30274222E-02 | 0.13620233E+03 |   41.333
 BASOPT| -----------------------------------------------------------------------
 BASOPT| Total residuum value: -.58385017E+03

 BASOPT| Information at iteration number:    4800
 BASOPT| Training set | Combination | Rho difference | Condition num. | Time
 BASOPT| -----------------------------------------------------------------------
 BASOPT|        1     |       1     | 0.72289222E-02 | 0.19608142E+03 |  354.924
 BASOPT|        2     |       1     | 0.56706472E-02 | 0.18242687E+03 |  356.921
 BASOPT|        3     |       1     | 0.35363622E-02 | 0.16071746E+03 |   87.644
 BASOPT|        4     |       1     | 0.13480305E-01 | 0.15569048E+03 |  204.310
 BASOPT|        5     |       1     | 0.21446073E-02 | 0.39660464E+02 |  109.861
 BASOPT|        6     |       1     | 0.30326899E-02 | 0.13587618E+03 |   42.213
 BASOPT| -----------------------------------------------------------------------
 BASOPT| Total residuum value: -.58385022E+03

 BASOPT| Information at iteration number:    4900
 BASOPT| Training set | Combination | Rho difference | Condition num. | Time
 BASOPT| -----------------------------------------------------------------------
 BASOPT|        1     |       1     | 0.72308823E-02 | 0.19672079E+03 |  362.324
 BASOPT|        2     |       1     | 0.56699362E-02 | 0.18202716E+03 |  364.355
 BASOPT|        3     |       1     | 0.35375154E-02 | 0.16033193E+03 |   89.473
 BASOPT|        4     |       1     | 0.13466190E-01 | 0.15544633E+03 |  208.553
 BASOPT|        5     |       1     | 0.21435829E-02 | 0.39672138E+02 |  112.147
 BASOPT|        6     |       1     | 0.30369244E-02 | 0.13560620E+03 |   43.091
 BASOPT| -----------------------------------------------------------------------
 BASOPT| Total residuum value: -.58385029E+03

 BASOPT| Information at iteration number:    5000
 BASOPT| Training set | Combination | Rho difference | Condition num. | Time
 BASOPT| -----------------------------------------------------------------------
 BASOPT|        1     |       1     | 0.72216949E-02 | 0.19768368E+03 |  369.726
 BASOPT|        2     |       1     | 0.56803642E-02 | 0.18220733E+03 |  371.779
 BASOPT|        3     |       1     | 0.35283346E-02 | 0.16116167E+03 |   91.300
 BASOPT|        4     |       1     | 0.13498815E-01 | 0.15576327E+03 |  212.792
 BASOPT|        5     |       1     | 0.21464888E-02 | 0.39734678E+02 |  114.431
 BASOPT|        6     |       1     | 0.30235759E-02 | 0.13615462E+03 |   43.970
 BASOPT| -----------------------------------------------------------------------
 BASOPT| Total residuum value: -.58385034E+03

 BASOPT| Information at iteration number:    5100
 BASOPT| Training set | Combination | Rho difference | Condition num. | Time
 BASOPT| -----------------------------------------------------------------------
 BASOPT|        1     |       1     | 0.72281847E-02 | 0.19884798E+03 |  377.128
 BASOPT|        2     |       1     | 0.56800745E-02 | 0.18105368E+03 |  379.195
 BASOPT|        3     |       1     | 0.35355600E-02 | 0.15999833E+03 |   93.128
 BASOPT|        4     |       1     | 0.13442462E-01 | 0.15491238E+03 |  217.035
 BASOPT|        5     |       1     | 0.21363310E-02 | 0.39789558E+02 |  116.716
 BASOPT|        6     |       1     | 0.30374119E-02 | 0.13535444E+03 |   44.849
 BASOPT| -----------------------------------------------------------------------
 BASOPT| Total residuum value: -.58385049E+03

 BASOPT| Information at iteration number:    5200
 BASOPT| Training set | Combination | Rho difference | Condition num. | Time
 BASOPT| -----------------------------------------------------------------------
 BASOPT|        1     |       1     | 0.72283994E-02 | 0.19966335E+03 |  384.527
 BASOPT|        2     |       1     | 0.56830459E-02 | 0.18083471E+03 |  386.624
 BASOPT|        3     |       1     | 0.35341152E-02 | 0.15989677E+03 |   94.958
 BASOPT|        4     |       1     | 0.13445261E-01 | 0.15482798E+03 |  221.273
 BASOPT|        5     |       1     | 0.21337355E-02 | 0.39841442E+02 |  118.998
 BASOPT|        6     |       1     | 0.30367576E-02 | 0.13532107E+03 |   45.729
 BASOPT| -----------------------------------------------------------------------
 BASOPT| Total residuum value: -.58385055E+03

 BASOPT| Information at iteration number:    5300
 BASOPT| Training set | Combination | Rho difference | Condition num. | Time
 BASOPT| -----------------------------------------------------------------------
 BASOPT|        1     |       1     | 0.72256280E-02 | 0.20076411E+03 |  391.925
 BASOPT|        2     |       1     | 0.56856642E-02 | 0.18062909E+03 |  394.072
 BASOPT|        3     |       1     | 0.35301080E-02 | 0.15993047E+03 |   96.783
 BASOPT|        4     |       1     | 0.13445764E-01 | 0.15481355E+03 |  225.516
 BASOPT|        5     |       1     | 0.21318403E-02 | 0.39870486E+02 |  121.292
 BASOPT|        6     |       1     | 0.30330636E-02 | 0.13538793E+03 |   46.611
 BASOPT| -----------------------------------------------------------------------
 BASOPT| Total residuum value: -.58385061E+03

 BASOPT| Information at iteration number:    5400
 BASOPT| Training set | Combination | Rho difference | Condition num. | Time
 BASOPT| -----------------------------------------------------------------------
 BASOPT|        1     |       1     | 0.72270832E-02 | 0.20169696E+03 |  399.324
 BASOPT|        2     |       1     | 0.56837405E-02 | 0.18005247E+03 |  401.509
 BASOPT|        3     |       1     | 0.35322360E-02 | 0.15930980E+03 |   98.613
 BASOPT|        4     |       1     | 0.13423437E-01 | 0.15443073E+03 |  229.756
 BASOPT|        5     |       1     | 0.21304007E-02 | 0.39925820E+02 |  123.575
 BASOPT|        6     |       1     | 0.30397632E-02 | 0.13498619E+03 |   47.492
 BASOPT| -----------------------------------------------------------------------
 BASOPT| Total residuum value: -.58385069E+03

 BASOPT| Information at iteration number:    5500
 BASOPT| Training set | Combination | Rho difference | Condition num. | Time
 BASOPT| -----------------------------------------------------------------------
 BASOPT|        1     |       1     | 0.72250986E-02 | 0.20179108E+03 |  406.722
 BASOPT|        2     |       1     | 0.56829166E-02 | 0.18004706E+03 |  408.942
 BASOPT|        3     |       1     | 0.35329143E-02 | 0.15917562E+03 |  100.444
 BASOPT|        4     |       1     | 0.13419203E-01 | 0.15443031E+03 |  233.997
 BASOPT|        5     |       1     | 0.21295722E-02 | 0.39937120E+02 |  125.857
 BASOPT|        6     |       1     | 0.30374205E-02 | 0.13490761E+03 |   48.373
 BASOPT| -----------------------------------------------------------------------
 BASOPT| Total residuum value: -.58385075E+03

 BASOPT| Information at iteration number:    5600
 BASOPT| Training set | Combination | Rho difference | Condition num. | Time
 BASOPT| -----------------------------------------------------------------------
 BASOPT|        1     |       1     | 0.72231094E-02 | 0.20198105E+03 |  414.121
 BASOPT|        2     |       1     | 0.56833471E-02 | 0.17994191E+03 |  416.378
 BASOPT|        3     |       1     | 0.35321569E-02 | 0.15915132E+03 |  102.279
 BASOPT|        4     |       1     | 0.13414108E-01 | 0.15436868E+03 |  238.241
 BASOPT|        5     |       1     | 0.21290534E-02 | 0.39957090E+02 |  128.138
 BASOPT|        6     |       1     | 0.30364768E-02 | 0.13486355E+03 |   49.255
 BASOPT| -----------------------------------------------------------------------
 BASOPT| Total residuum value: -.58385078E+03

 BASOPT| Information at iteration number:    5700
 BASOPT| Training set | Combination | Rho difference | Condition num. | Time
 BASOPT| -----------------------------------------------------------------------
 BASOPT|        1     |       1     | 0.72232333E-02 | 0.20202953E+03 |  421.521
 BASOPT|        2     |       1     | 0.56832094E-02 | 0.18002115E+03 |  423.810
 BASOPT|        3     |       1     | 0.35312307E-02 | 0.15924080E+03 |  104.109
 BASOPT|        4     |       1     | 0.13420168E-01 | 0.15445280E+03 |  242.489
 BASOPT|        5     |       1     | 0.21294650E-02 | 0.39959922E+02 |  130.421
 BASOPT|        6     |       1     | 0.30358117E-02 | 0.13493556E+03 |   50.136
 BASOPT| -----------------------------------------------------------------------
 BASOPT| Total residuum value: -.58385080E+03

 BASOPT| Information at iteration number:    5800
 BASOPT| Training set | Combination | Rho difference | Condition num. | Time
 BASOPT| -----------------------------------------------------------------------
 BASOPT|        1     |       1     | 0.72242608E-02 | 0.20205472E+03 |  428.930
 BASOPT|        2     |       1     | 0.56809543E-02 | 0.18019123E+03 |  431.243
 BASOPT|        3     |       1     | 0.35288040E-02 | 0.15942719E+03 |  105.942
 BASOPT|        4     |       1     | 0.13429519E-01 | 0.15460327E+03 |  246.738
 BASOPT|        5     |       1     | 0.21308645E-02 | 0.39972780E+02 |  132.705
 BASOPT|        6     |       1     | 0.30353767E-02 | 0.13503282E+03 |   51.017
 BASOPT| -----------------------------------------------------------------------
 BASOPT| Total residuum value: -.58385082E+03

 BASOPT| Information at iteration number:    5900
 BASOPT| Training set | Combination | Rho difference | Condition num. | Time
 BASOPT| -----------------------------------------------------------------------
 BASOPT|        1     |       1     | 0.72266945E-02 | 0.20208320E+03 |  436.328
 BASOPT|        2     |       1     | 0.56831983E-02 | 0.18038920E+03 |  438.690
 BASOPT|        3     |       1     | 0.35246444E-02 | 0.15985489E+03 |  107.774
 BASOPT|        4     |       1     | 0.13441976E-01 | 0.15484350E+03 |  250.987
 BASOPT|        5     |       1     | 0.21261121E-02 | 0.40000634E+02 |  134.993
 BASOPT|        6     |       1     | 0.30338679E-02 | 0.13530698E+03 |   51.900
 BASOPT| -----------------------------------------------------------------------
 BASOPT| Total residuum value: -.58385090E+03

 BASOPT| Information at iteration number:    6000
 BASOPT| Training set | Combination | Rho difference | Condition num. | Time
 BASOPT| -----------------------------------------------------------------------
 BASOPT|        1     |       1     | 0.72252290E-02 | 0.20199405E+03 |  443.722
 BASOPT|        2     |       1     | 0.56836653E-02 | 0.18036360E+03 |  446.126
 BASOPT|        3     |       1     | 0.35219577E-02 | 0.16005998E+03 |  109.602
 BASOPT|        4     |       1     | 0.13434101E-01 | 0.15484681E+03 |  255.239
 BASOPT|        5     |       1     | 0.21245966E-02 | 0.39993524E+02 |  137.282
 BASOPT|        6     |       1     | 0.30327890E-02 | 0.13538414E+03 |   52.781
 BASOPT| -----------------------------------------------------------------------
 BASOPT| Total residuum value: -.58385094E+03

 BASOPT| Information at iteration number:    6100
 BASOPT| Training set | Combination | Rho difference | Condition num. | Time
 BASOPT| -----------------------------------------------------------------------
 BASOPT|        1     |       1     | 0.72216837E-02 | 0.20168791E+03 |  451.115
 BASOPT|        2     |       1     | 0.56879553E-02 | 0.18005330E+03 |  453.568
 BASOPT|        3     |       1     | 0.35226930E-02 | 0.16010344E+03 |  111.433
 BASOPT|        4     |       1     | 0.13412581E-01 | 0.15457247E+03 |  259.491
 BASOPT|        5     |       1     | 0.21200269E-02 | 0.40030867E+02 |  139.572
 BASOPT|        6     |       1     | 0.30340456E-02 | 0.13529707E+03 |   53.664
 BASOPT| -----------------------------------------------------------------------
 BASOPT| Total residuum value: -.58385096E+03

 BASOPT| Information at iteration number:    6200
 BASOPT| Training set | Combination | Rho difference | Condition num. | Time
 BASOPT| -----------------------------------------------------------------------
 BASOPT|        1     |       1     | 0.72254984E-02 | 0.20173011E+03 |  458.506
 BASOPT|        2     |       1     | 0.56791836E-02 | 0.18075495E+03 |  461.014
 BASOPT|        3     |       1     | 0.35197542E-02 | 0.16034337E+03 |  113.265
 BASOPT|        4     |       1     | 0.13454840E-01 | 0.15521512E+03 |  263.740
 BASOPT|        5     |       1     | 0.21308726E-02 | 0.39979511E+02 |  141.866
 BASOPT|        6     |       1     | 0.30321493E-02 | 0.13555950E+03 |   54.546
 BASOPT| -----------------------------------------------------------------------
 BASOPT| Total residuum value: -.58385101E+03

 BASOPT| Information at iteration number:    6300
 BASOPT| Training set | Combination | Rho difference | Condition num. | Time
 BASOPT| -----------------------------------------------------------------------
 BASOPT|        1     |       1     | 0.72234432E-02 | 0.20107425E+03 |  465.898
 BASOPT|        2     |       1     | 0.56856383E-02 | 0.18018648E+03 |  468.459
 BASOPT|        3     |       1     | 0.35220468E-02 | 0.16019380E+03 |  115.097
 BASOPT|        4     |       1     | 0.13412302E-01 | 0.15466894E+03 |  267.989
 BASOPT|        5     |       1     | 0.21187739E-02 | 0.40067683E+02 |  144.159
 BASOPT|        6     |       1     | 0.30349115E-02 | 0.13533014E+03 |   55.428
 BASOPT| -----------------------------------------------------------------------
 BASOPT| Total residuum value: -.58385107E+03

 BASOPT| Information at iteration number:    6400
 BASOPT| Training set | Combination | Rho difference | Condition num. | Time
 BASOPT| -----------------------------------------------------------------------
 BASOPT|        1     |       1     | 0.72228676E-02 | 0.20090801E+03 |  473.292
 BASOPT|        2     |       1     | 0.56841173E-02 | 0.18032168E+03 |  475.891
 BASOPT|        3     |       1     | 0.35199657E-02 | 0.16032654E+03 |  116.929
 BASOPT|        4     |       1     | 0.13415526E-01 | 0.15480571E+03 |  272.242
 BASOPT|        5     |       1     | 0.21204734E-02 | 0.40058178E+02 |  146.449
 BASOPT|        6     |       1     | 0.30320996E-02 | 0.13543337E+03 |   56.311
 BASOPT| -----------------------------------------------------------------------
 BASOPT| Total residuum value: -.58385113E+03

 BASOPT| Information at iteration number:    6500
 BASOPT| Training set | Combination | Rho difference | Condition num. | Time
 BASOPT| -----------------------------------------------------------------------
 BASOPT|        1     |       1     | 0.72266279E-02 | 0.20087491E+03 |  480.688
 BASOPT|        2     |       1     | 0.56764791E-02 | 0.18080856E+03 |  483.323
 BASOPT|        3     |       1     | 0.35182931E-02 | 0.16040239E+03 |  118.760
 BASOPT|        4     |       1     | 0.13447018E-01 | 0.15521744E+03 |  276.494
 BASOPT|        5     |       1     | 0.21291752E-02 | 0.40044909E+02 |  148.743
 BASOPT|        6     |       1     | 0.30323466E-02 | 0.13556690E+03 |   57.194
 BASOPT| -----------------------------------------------------------------------
 BASOPT| Total residuum value: -.58385115E+03

 BASOPT| Information at iteration number:    6600
 BASOPT| Training set | Combination | Rho difference | Condition num. | Time
 BASOPT| -----------------------------------------------------------------------
 BASOPT|        1     |       1     | 0.72213368E-02 | 0.19960491E+03 |  488.089
 BASOPT|        2     |       1     | 0.56846520E-02 | 0.18028340E+03 |  490.759
 BASOPT|        3     |       1     | 0.35274578E-02 | 0.16007227E+03 |  120.590
 BASOPT|        4     |       1     | 0.13409492E-01 | 0.15472412E+03 |  280.745
 BASOPT|        5     |       1     | 0.21262323E-02 | 0.40131622E+02 |  151.037
 BASOPT|        6     |       1     | 0.30368810E-02 | 0.13517743E+03 |   58.077
 BASOPT| -----------------------------------------------------------------------
 BASOPT| Total residuum value: -.58385129E+03

 BASOPT| Information at iteration number:    6700
 BASOPT| Training set | Combination | Rho difference | Condition num. | Time
 BASOPT| -----------------------------------------------------------------------
 BASOPT|        1     |       1     | 0.72161077E-02 | 0.19900115E+03 |  495.488
 BASOPT|        2     |       1     | 0.56910701E-02 | 0.18096859E+03 |  498.188
 BASOPT|        3     |       1     | 0.35213766E-02 | 0.16076196E+03 |  122.422
 BASOPT|        4     |       1     | 0.13449747E-01 | 0.15532043E+03 |  284.996
 BASOPT|        5     |       1     | 0.21258919E-02 | 0.40154955E+02 |  153.329
 BASOPT|        6     |       1     | 0.30178546E-02 | 0.13573419E+03 |   58.960
 BASOPT| -----------------------------------------------------------------------
 BASOPT| Total residuum value: -.58385124E+03

 BASOPT| Information at iteration number:    6800
 BASOPT| Training set | Combination | Rho difference | Condition num. | Time
 BASOPT| -----------------------------------------------------------------------
 BASOPT|        1     |       1     | 0.72193208E-02 | 0.19905412E+03 |  502.888
 BASOPT|        2     |       1     | 0.56842815E-02 | 0.18021810E+03 |  505.620
 BASOPT|        3     |       1     | 0.35264723E-02 | 0.16002991E+03 |  124.252
 BASOPT|        4     |       1     | 0.13394209E-01 | 0.15465205E+03 |  289.247
 BASOPT|        5     |       1     | 0.21230384E-02 | 0.40187522E+02 |  155.639
 BASOPT|        6     |       1     | 0.30331236E-02 | 0.13512261E+03 |   59.843
 BASOPT| -----------------------------------------------------------------------
 BASOPT| Total residuum value: -.58385140E+03

 BASOPT| Information at iteration number:    6900
 BASOPT| Training set | Combination | Rho difference | Condition num. | Time
 BASOPT| -----------------------------------------------------------------------
 BASOPT|        1     |       1     | 0.72203135E-02 | 0.19893913E+03 |  510.280
 BASOPT|        2     |       1     | 0.56831193E-02 | 0.18019042E+03 |  513.053
 BASOPT|        3     |       1     | 0.35280305E-02 | 0.15988569E+03 |  126.087
 BASOPT|        4     |       1     | 0.13388373E-01 | 0.15461364E+03 |  293.499
 BASOPT|        5     |       1     | 0.21236435E-02 | 0.40188642E+02 |  157.931
 BASOPT|        6     |       1     | 0.30338744E-02 | 0.13502713E+03 |   60.726
 BASOPT| -----------------------------------------------------------------------
 BASOPT| Total residuum value: -.58385143E+03

 BASOPT| Information at iteration number:    7000
 BASOPT| Training set | Combination | Rho difference | Condition num. | Time
 BASOPT| -----------------------------------------------------------------------
 BASOPT|        1     |       1     | 0.72212506E-02 | 0.19856399E+03 |  517.678
 BASOPT|        2     |       1     | 0.56799022E-02 | 0.18071821E+03 |  520.492
 BASOPT|        3     |       1     | 0.35259275E-02 | 0.16022849E+03 |  127.921
 BASOPT|        4     |       1     | 0.13416193E-01 | 0.15503127E+03 |  297.751
 BASOPT|        5     |       1     | 0.21277392E-02 | 0.40211394E+02 |  160.225
 BASOPT|        6     |       1     | 0.30302221E-02 | 0.13527437E+03 |   61.609
 BASOPT| -----------------------------------------------------------------------
 BASOPT| Total residuum value: -.58385148E+03

 BASOPT| Information at iteration number:    7100
 BASOPT| Training set | Combination | Rho difference | Condition num. | Time
 BASOPT| -----------------------------------------------------------------------
 BASOPT|        1     |       1     | 0.72207700E-02 | 0.19805331E+03 |  525.079
 BASOPT|        2     |       1     | 0.56804082E-02 | 0.18084656E+03 |  527.937
 BASOPT|        3     |       1     | 0.35259960E-02 | 0.16033891E+03 |  129.755
 BASOPT|        4     |       1     | 0.13406055E-01 | 0.15507614E+03 |  302.004
 BASOPT|        5     |       1     | 0.21259150E-02 | 0.40235849E+02 |  162.517
 BASOPT|        6     |       1     | 0.30262408E-02 | 0.13528546E+03 |   62.493
 BASOPT| -----------------------------------------------------------------------
 BASOPT| Total residuum value: -.58385156E+03

 BASOPT| Information at iteration number:    7200
 BASOPT| Training set | Combination | Rho difference | Condition num. | Time
 BASOPT| -----------------------------------------------------------------------
 BASOPT|        1     |       1     | 0.72175693E-02 | 0.19775878E+03 |  532.477
 BASOPT|        2     |       1     | 0.56849888E-02 | 0.18034667E+03 |  535.372
 BASOPT|        3     |       1     | 0.35262900E-02 | 0.16022346E+03 |  131.589
 BASOPT|        4     |       1     | 0.13377302E-01 | 0.15465209E+03 |  306.252
 BASOPT|        5     |       1     | 0.21200286E-02 | 0.40296511E+02 |  164.808
 BASOPT|        6     |       1     | 0.30291807E-02 | 0.13512119E+03 |   63.377
 BASOPT| -----------------------------------------------------------------------
 BASOPT| Total residuum value: -.58385160E+03

 BASOPT| Information at iteration number:    7300
 BASOPT| Training set | Combination | Rho difference | Condition num. | Time
 BASOPT| -----------------------------------------------------------------------
 BASOPT|        1     |       1     | 0.72150192E-02 | 0.19738725E+03 |  539.872
 BASOPT|        2     |       1     | 0.56858498E-02 | 0.18008616E+03 |  542.805
 BASOPT|        3     |       1     | 0.35259523E-02 | 0.16027228E+03 |  133.422
 BASOPT|        4     |       1     | 0.13357683E-01 | 0.15446362E+03 |  310.506
 BASOPT|        5     |       1     | 0.21175248E-02 | 0.40321657E+02 |  167.096
 BASOPT|        6     |       1     | 0.30337768E-02 | 0.13511185E+03 |   64.262
 BASOPT| -----------------------------------------------------------------------
 BASOPT| Total residuum value: -.58385164E+03

 BASOPT| Information at iteration number:    7400
 BASOPT| Training set | Combination | Rho difference | Condition num. | Time
 BASOPT| -----------------------------------------------------------------------
 BASOPT|        1     |       1     | 0.72173304E-02 | 0.19727379E+03 |  547.267
 BASOPT|        2     |       1     | 0.56829751E-02 | 0.18043988E+03 |  550.234
 BASOPT|        3     |       1     | 0.35242803E-02 | 0.16049887E+03 |  135.256
 BASOPT|        4     |       1     | 0.13374056E-01 | 0.15473471E+03 |  314.760
 BASOPT|        5     |       1     | 0.21197254E-02 | 0.40303258E+02 |  169.383
 BASOPT|        6     |       1     | 0.30324416E-02 | 0.13526576E+03 |   65.146
 BASOPT| -----------------------------------------------------------------------
 BASOPT| Total residuum value: -.58385166E+03

 BASOPT| Information at iteration number:    7500
 BASOPT| Training set | Combination | Rho difference | Condition num. | Time
 BASOPT| -----------------------------------------------------------------------
 BASOPT|        1     |       1     | 0.72163328E-02 | 0.19694366E+03 |  554.666
 BASOPT|        2     |       1     | 0.56791510E-02 | 0.18101793E+03 |  557.663
 BASOPT|        3     |       1     | 0.35193087E-02 | 0.16099960E+03 |  137.077
 BASOPT|        4     |       1     | 0.13399452E-01 | 0.15516146E+03 |  319.011
 BASOPT|        5     |       1     | 0.21242826E-02 | 0.40299683E+02 |  171.672
 BASOPT|        6     |       1     | 0.30262860E-02 | 0.13558096E+03 |   66.032
 BASOPT| -----------------------------------------------------------------------
 BASOPT| Total residuum value: -.58385169E+03

 BASOPT| Information at iteration number:    7600
 BASOPT| Training set | Combination | Rho difference | Condition num. | Time
 BASOPT| -----------------------------------------------------------------------
 BASOPT|        1     |       1     | 0.72165351E-02 | 0.19688239E+03 |  562.067
 BASOPT|        2     |       1     | 0.56800410E-02 | 0.18087904E+03 |  565.094
 BASOPT|        3     |       1     | 0.35204855E-02 | 0.16090769E+03 |  138.898
 BASOPT|        4     |       1     | 0.13386168E-01 | 0.15505091E+03 |  323.265
 BASOPT|        5     |       1     | 0.21206797E-02 | 0.40305508E+02 |  173.958
 BASOPT|        6     |       1     | 0.30272414E-02 | 0.13550643E+03 |   66.917
 BASOPT| -----------------------------------------------------------------------
 BASOPT| Total residuum value: -.58385171E+03

 BASOPT| Information at iteration number:    7700
 BASOPT| Training set | Combination | Rho difference | Condition num. | Time
 BASOPT| -----------------------------------------------------------------------
 BASOPT|        1     |       1     | 0.72147806E-02 | 0.19679469E+03 |  569.462
 BASOPT|        2     |       1     | 0.56819216E-02 | 0.18058683E+03 |  572.530
 BASOPT|        3     |       1     | 0.35207679E-02 | 0.16081687E+03 |  140.720
 BASOPT|        4     |       1     | 0.13366003E-01 | 0.15479574E+03 |  327.518
 BASOPT|        5     |       1     | 0.21162041E-02 | 0.40360084E+02 |  176.242
 BASOPT|        6     |       1     | 0.30286250E-02 | 0.13538680E+03 |   67.802
 BASOPT| -----------------------------------------------------------------------
 BASOPT| Total residuum value: -.58385174E+03

 BASOPT| Information at iteration number:    7800
 BASOPT| Training set | Combination | Rho difference | Condition num. | Time
 BASOPT| -----------------------------------------------------------------------
 BASOPT|        1     |       1     | 0.72147172E-02 | 0.19699162E+03 |  576.861
 BASOPT|        2     |       1     | 0.56812334E-02 | 0.18065980E+03 |  579.970
 BASOPT|        3     |       1     | 0.35201165E-02 | 0.16084645E+03 |  142.542
 BASOPT|        4     |       1     | 0.13373857E-01 | 0.15486213E+03 |  331.776
 BASOPT|        5     |       1     | 0.21187691E-02 | 0.40369959E+02 |  178.531
 BASOPT|        6     |       1     | 0.30275711E-02 | 0.13542324E+03 |   68.687
 BASOPT| -----------------------------------------------------------------------
 BASOPT| Total residuum value: -.58385177E+03

 BASOPT| Information at iteration number:    7900
 BASOPT| Training set | Combination | Rho difference | Condition num. | Time
 BASOPT| -----------------------------------------------------------------------
 BASOPT|        1     |       1     | 0.72152227E-02 | 0.19729011E+03 |  584.259
 BASOPT|        2     |       1     | 0.56819590E-02 | 0.18060940E+03 |  587.403
 BASOPT|        3     |       1     | 0.35211379E-02 | 0.16071695E+03 |  144.365
 BASOPT|        4     |       1     | 0.13377741E-01 | 0.15483291E+03 |  336.036
 BASOPT|        5     |       1     | 0.21201266E-02 | 0.40401087E+02 |  180.825
 BASOPT|        6     |       1     | 0.30270329E-02 | 0.13536763E+03 |   69.572
 BASOPT| -----------------------------------------------------------------------
 BASOPT| Total residuum value: -.58385181E+03

 BASOPT| Information at iteration number:    8000
 BASOPT| Training set | Combination | Rho difference | Condition num. | Time
 BASOPT| -----------------------------------------------------------------------
 BASOPT|        1     |       1     | 0.72167926E-02 | 0.19735591E+03 |  591.657
 BASOPT|        2     |       1     | 0.56816230E-02 | 0.18044928E+03 |  594.834
 BASOPT|        3     |       1     | 0.35235431E-02 | 0.16045463E+03 |  146.188
 BASOPT|        4     |       1     | 0.13377164E-01 | 0.15469168E+03 |  340.293
 BASOPT|        5     |       1     | 0.21200439E-02 | 0.40467268E+02 |  183.124
 BASOPT|        6     |       1     | 0.30307802E-02 | 0.13521569E+03 |   70.457
 BASOPT| -----------------------------------------------------------------------
 BASOPT| Total residuum value: -.58385183E+03

 BASOPT| Information at iteration number:    8100
 BASOPT| Training set | Combination | Rho difference | Condition num. | Time
 BASOPT| -----------------------------------------------------------------------
 BASOPT|        1     |       1     | 0.72155064E-02 | 0.19732235E+03 |  599.057
 BASOPT|        2     |       1     | 0.56850369E-02 | 0.18029816E+03 |  602.259
 BASOPT|        3     |       1     | 0.35235814E-02 | 0.16049321E+03 |  148.012
 BASOPT|        4     |       1     | 0.13366405E-01 | 0.15454729E+03 |  344.552
 BASOPT|        5     |       1     | 0.21170306E-02 | 0.40498595E+02 |  185.421
 BASOPT|        6     |       1     | 0.30298331E-02 | 0.13518517E+03 |   71.342
 BASOPT| -----------------------------------------------------------------------
 BASOPT| Total residuum value: -.58385185E+03

 BASOPT| Information at iteration number:    8200
 BASOPT| Training set | Combination | Rho difference | Condition num. | Time
 BASOPT| -----------------------------------------------------------------------
 BASOPT|        1     |       1     | 0.72136729E-02 | 0.19724268E+03 |  606.448
 BASOPT|        2     |       1     | 0.56840894E-02 | 0.18022422E+03 |  609.692
 BASOPT|        3     |       1     | 0.35239423E-02 | 0.16037156E+03 |  149.833
 BASOPT|        4     |       1     | 0.13357676E-01 | 0.15446398E+03 |  348.807
 BASOPT|        5     |       1     | 0.21189941E-02 | 0.40500786E+02 |  187.714
 BASOPT|        6     |       1     | 0.30289665E-02 | 0.13510702E+03 |   72.227
 BASOPT| -----------------------------------------------------------------------
 BASOPT| Total residuum value: -.58385188E+03

 BASOPT| Information at iteration number:    8300
 BASOPT| Training set | Combination | Rho difference | Condition num. | Time
 BASOPT| -----------------------------------------------------------------------
 BASOPT|        1     |       1     | 0.72122878E-02 | 0.19716866E+03 |  613.844
 BASOPT|        2     |       1     | 0.56868085E-02 | 0.17991717E+03 |  617.117
 BASOPT|        3     |       1     | 0.35231177E-02 | 0.16035626E+03 |  151.655
 BASOPT|        4     |       1     | 0.13335278E-01 | 0.15419695E+03 |  353.067
 BASOPT|        5     |       1     | 0.21124167E-02 | 0.40562542E+02 |  190.005
 BASOPT|        6     |       1     | 0.30298947E-02 | 0.13504983E+03 |   73.114
 BASOPT| -----------------------------------------------------------------------
 BASOPT| Total residuum value: -.58385191E+03

 BASOPT| Information at iteration number:    8400
 BASOPT| Training set | Combination | Rho difference | Condition num. | Time
 BASOPT| -----------------------------------------------------------------------
 BASOPT|        1     |       1     | 0.72127382E-02 | 0.19733507E+03 |  621.238
 BASOPT|        2     |       1     | 0.56843669E-02 | 0.18000479E+03 |  624.539
 BASOPT|        3     |       1     | 0.35189348E-02 | 0.16055614E+03 |  153.476
 BASOPT|        4     |       1     | 0.13343509E-01 | 0.15428457E+03 |  357.326
 BASOPT|        5     |       1     | 0.21119418E-02 | 0.40606898E+02 |  192.299
 BASOPT|        6     |       1     | 0.30296626E-02 | 0.13519702E+03 |   74.001
 BASOPT| -----------------------------------------------------------------------
 BASOPT| Total residuum value: -.58385194E+03

 BASOPT| Information at iteration number:    8500
 BASOPT| Training set | Combination | Rho difference | Condition num. | Time
 BASOPT| -----------------------------------------------------------------------
 BASOPT|        1     |       1     | 0.72134428E-02 | 0.19732650E+03 |  628.633
 BASOPT|        2     |       1     | 0.56833027E-02 | 0.18015499E+03 |  631.969
 BASOPT|        3     |       1     | 0.35184253E-02 | 0.16063057E+03 |  155.298
 BASOPT|        4     |       1     | 0.13349165E-01 | 0.15439698E+03 |  361.586
 BASOPT|        5     |       1     | 0.21131427E-02 | 0.40583159E+02 |  194.593
 BASOPT|        6     |       1     | 0.30285105E-02 | 0.13526135E+03 |   74.889
 BASOPT| -----------------------------------------------------------------------
 BASOPT| Total residuum value: -.58385195E+03

 BASOPT| Information at iteration number:    8600
 BASOPT| Training set | Combination | Rho difference | Condition num. | Time
 BASOPT| -----------------------------------------------------------------------
 BASOPT|        1     |       1     | 0.72132327E-02 | 0.19731373E+03 |  636.030
 BASOPT|        2     |       1     | 0.56829196E-02 | 0.18036452E+03 |  639.409
 BASOPT|        3     |       1     | 0.35159739E-02 | 0.16090987E+03 |  157.119
 BASOPT|        4     |       1     | 0.13359715E-01 | 0.15456297E+03 |  365.844
 BASOPT|        5     |       1     | 0.21138882E-02 | 0.40584067E+02 |  196.887
 BASOPT|        6     |       1     | 0.30263495E-02 | 0.13543539E+03 |   75.776
 BASOPT| -----------------------------------------------------------------------
 BASOPT| Total residuum value: -.58385196E+03

 BASOPT| Information at iteration number:    8700
 BASOPT| Training set | Combination | Rho difference | Condition num. | Time
 BASOPT| -----------------------------------------------------------------------
 BASOPT|        1     |       1     | 0.72117494E-02 | 0.19719332E+03 |  643.426
 BASOPT|        2     |       1     | 0.56843093E-02 | 0.18023846E+03 |  646.845
 BASOPT|        3     |       1     | 0.35163498E-02 | 0.16086332E+03 |  158.941
 BASOPT|        4     |       1     | 0.13350951E-01 | 0.15443285E+03 |  370.097
 BASOPT|        5     |       1     | 0.21116473E-02 | 0.40616893E+02 |  199.182
[...]
 BASOPT|        6     |       1     | 0.30238600E-02 | 0.13511840E+03 |   97.106
 BASOPT| -----------------------------------------------------------------------
 BASOPT| Total residuum value: -.58385220E+03

 BASOPT| Information at iteration number:   11100
 BASOPT| Training set | Combination | Rho difference | Condition num. | Time
 BASOPT| -----------------------------------------------------------------------
 BASOPT|        1     |       1     | 0.72065761E-02 | 0.19753247E+03 |  820.937
 BASOPT|        2     |       1     | 0.56860401E-02 | 0.17975144E+03 |  825.099
 BASOPT|        3     |       1     | 0.35138615E-02 | 0.16072009E+03 |  202.799
 BASOPT|        4     |       1     | 0.13320718E-01 | 0.15385097E+03 |  472.358
 BASOPT|        5     |       1     | 0.21071267E-02 | 0.41136743E+02 |  254.253
 BASOPT|        6     |       1     | 0.30226019E-02 | 0.13519574E+03 |   97.996
 BASOPT| -----------------------------------------------------------------------
 BASOPT| Total residuum value: -.58385220E+03

 BASOPT| Information at iteration number:   11200
 BASOPT| Training set | Combination | Rho difference | Condition num. | Time
 BASOPT| -----------------------------------------------------------------------
 BASOPT|        1     |       1     | 0.72071684E-02 | 0.19750542E+03 |  828.333
 BASOPT|        2     |       1     | 0.56844489E-02 | 0.17963006E+03 |  832.515
 BASOPT|        3     |       1     | 0.35139416E-02 | 0.16059068E+03 |  204.627
 BASOPT|        4     |       1     | 0.13311196E-01 | 0.15375062E+03 |  476.619
 BASOPT|        5     |       1     | 0.21062504E-02 | 0.41146404E+02 |  256.551
 BASOPT|        6     |       1     | 0.30244701E-02 | 0.13511030E+03 |   98.885
 BASOPT| -----------------------------------------------------------------------
 BASOPT| Total residuum value: -.58385221E+03

 BASOPT| Information at iteration number:   11300
 BASOPT| Training set | Combination | Rho difference | Condition num. | Time
 BASOPT| -----------------------------------------------------------------------
 BASOPT|        1     |       1     | 0.72073423E-02 | 0.19747011E+03 |  835.730
 BASOPT|        2     |       1     | 0.56840896E-02 | 0.17968189E+03 |  839.944
 BASOPT|        3     |       1     | 0.35136962E-02 | 0.16062699E+03 |  206.455
 BASOPT|        4     |       1     | 0.13313118E-01 | 0.15378963E+03 |  480.882
 BASOPT|        5     |       1     | 0.21064188E-02 | 0.41146206E+02 |  258.848
 BASOPT|        6     |       1     | 0.30241389E-02 | 0.13513321E+03 |   99.775
 BASOPT| -----------------------------------------------------------------------
 BASOPT| Total residuum value: -.58385221E+03

 BASOPT| Information at iteration number:   11400
 BASOPT| Training set | Combination | Rho difference | Condition num. | Time
 BASOPT| -----------------------------------------------------------------------
 BASOPT|        1     |       1     | 0.72073547E-02 | 0.19746985E+03 |  843.129
 BASOPT|        2     |       1     | 0.56841129E-02 | 0.17968088E+03 |  847.364
 BASOPT|        3     |       1     | 0.35137089E-02 | 0.16062584E+03 |  208.281
 BASOPT|        4     |       1     | 0.13313073E-01 | 0.15378895E+03 |  485.139
 BASOPT|        5     |       1     | 0.21063611E-02 | 0.41146282E+02 |  261.147
 BASOPT|        6     |       1     | 0.30241321E-02 | 0.13513264E+03 |  100.663
 BASOPT| -----------------------------------------------------------------------
 BASOPT| Total residuum value: -.58385221E+03

 BASOPT| Information at iteration number:   11500
 BASOPT| Training set | Combination | Rho difference | Condition num. | Time
 BASOPT| -----------------------------------------------------------------------
 BASOPT|        1     |       1     | 0.72073537E-02 | 0.19746980E+03 |  850.526
 BASOPT|        2     |       1     | 0.56841125E-02 | 0.17968102E+03 |  854.792
 BASOPT|        3     |       1     | 0.35137080E-02 | 0.16062595E+03 |  210.110
 BASOPT|        4     |       1     | 0.13313081E-01 | 0.15378905E+03 |  489.403
 BASOPT|        5     |       1     | 0.21063633E-02 | 0.41146283E+02 |  263.449
 BASOPT|        6     |       1     | 0.30241304E-02 | 0.13513272E+03 |  101.551
 BASOPT| -----------------------------------------------------------------------
 BASOPT| Total residuum value: -.58385221E+03

 BASOPT| Information at iteration number:   11600
 BASOPT| Training set | Combination | Rho difference | Condition num. | Time
 BASOPT| -----------------------------------------------------------------------
 BASOPT|        1     |       1     | 0.72073537E-02 | 0.19746980E+03 |  857.922
 BASOPT|        2     |       1     | 0.56841125E-02 | 0.17968102E+03 |  862.215
 BASOPT|        3     |       1     | 0.35137080E-02 | 0.16062595E+03 |  211.941
 BASOPT|        4     |       1     | 0.13313081E-01 | 0.15378905E+03 |  493.667
 BASOPT|        5     |       1     | 0.21063633E-02 | 0.41146283E+02 |  265.750
 BASOPT|        6     |       1     | 0.30241304E-02 | 0.13513272E+03 |  102.440
 BASOPT| -----------------------------------------------------------------------
 BASOPT| Total residuum value: -.58385221E+03


 -------------------------------------------------------------------------------
 -                                                                             -
 -                                DBCSR STATISTICS                             -
 -                                                                             -
 -------------------------------------------------------------------------------
 COUNTER                                    TOTAL       BLAS       SMM       ACC
 flops   104 x   104 x     4                86528       0.0%    100.0%      0.0%
 flops   104 x   104 x     5               108160       0.0%    100.0%      0.0%
 flops    68 x   104 x     4               113152       0.0%    100.0%      0.0%
 flops   104 x    68 x     4               113152       0.0%    100.0%      0.0%
 flops   116 x   104 x     5               120640       0.0%    100.0%      0.0%
 flops   116 x   116 x     5               134560       0.0%    100.0%      0.0%
 flops   104 x   104 x     8               173056       0.0%    100.0%      0.0%
 flops   116 x   104 x     8               193024       0.0%    100.0%      0.0%
 flops   104 x   116 x     8               193024       0.0%    100.0%      0.0%
 flops   104 x   104 x    13               281216       0.0%    100.0%      0.0%
 flops   104 x   116 x    13               313664       0.0%    100.0%      0.0%
 flops    68 x    68 x     4               369920       0.0%    100.0%      0.0%
 flops   116 x   104 x    13               627328       0.0%    100.0%      0.0%
 flops   116 x   116 x     8               645888       0.0%    100.0%      0.0%
 flops   104 x   104 x    16               692224       0.0%    100.0%      0.0%
 flops   104 x   116 x    16              1544192       0.0%    100.0%      0.0%
 flops   116 x   104 x    16              1544192       0.0%    100.0%      0.0%
 flops   116 x   116 x    13              2099136       0.0%    100.0%      0.0%
 flops   116 x   116 x    16              8611840       0.0%    100.0%      0.0%
 flops inhomo. stacks                           0       0.0%      0.0%      0.0%
 flops total                        17.964896E+06       0.0%    100.0%      0.0%
 flops max/rank                      2.409984E+06       0.0%    100.0%      0.0%
 matmuls inhomo. stacks                         0       0.0%      0.0%      0.0%
 matmuls total                                 64       0.0%    100.0%      0.0%
 number of processed stacks                    43       0.0%    100.0%      0.0%
 average stack size                                     0.0       1.5       0.0
 marketing flops                    29.381184E+06
 -------------------------------------------------------------------------------
 # multiplications                              1
 max memory usage/rank               1.220866E+09
 # max total images/rank                        1
 # max 3D layers                                1
 # MPI messages exchanged                      48
 MPI messages size (bytes):
  total size                       469.504000E+03
  min size                           0.000000E+00
  max size                          43.008000E+03
  average size                       9.781333E+03
 MPI breakdown and total messages size (bytes):
             size <=      128                  24                        0
       128 < size <=     8192                  10                    56512
      8192 < size <=    32768                  10                   240960
     32768 < size <=   131072                   4                   172032
    131072 < size <=  4194304                   0                        0
   4194304 < size <= 16777216                   0                        0
  16777216 < size                               0                        0
 -------------------------------------------------------------------------------
 -                                                                             -
 -                      DBCSR MESSAGE PASSING PERFORMANCE                      -
 -                                                                             -
 -------------------------------------------------------------------------------
 ROUTINE             CALLS      AVE VOLUME [Bytes]
 MP_Bcast               20                     12.
 MP_Allreduce           64                     22.
 MP_Alltoall        701841                 121118.
 MP_ISend                8                  10822.
 MP_IRecv                8                     61.
 -------------------------------------------------------------------------------

 -------------------------------------------------------------------------------
 -                                                                             -
 -                                GRID STATISTICS                              -
 -                                                                             -
 -------------------------------------------------------------------------------
 LP    KERNEL             BACKEND                              COUNT     PERCENT
 2     collocate ortho    REF                                   2831      15.04%
 2     integrate ortho    REF                                   2831      15.04%
 5     collocate ortho    REF                                   2176      11.56%
 5     integrate ortho    REF                                   2176      11.56%
 4     collocate ortho    REF                                   1376       7.31%
 4     integrate ortho    REF                                   1376       7.31%
 3     collocate ortho    REF                                    832       4.42%
 3     integrate ortho    REF                                    832       4.42%
 0     collocate ortho    REF                                    574       3.05%
 0     integrate ortho    REF                                    574       3.05%
 6     collocate ortho    REF                                    508       2.70%
 6     integrate ortho    REF                                    508       2.70%
 8     collocate ortho    REF                                    464       2.47%
 8     integrate ortho    REF                                    464       2.47%
 7     collocate ortho    REF                                    348       1.85%
 7     integrate ortho    REF                                    348       1.85%
 1     collocate ortho    REF                                    252       1.34%
 1     integrate ortho    REF                                    252       1.34%
 0     collocate general  REF                                     96       0.51%
 -------------------------------------------------------------------------------

 MEMORY| Estimated peak process memory [MiB]                                2415

 -------------------------------------------------------------------------------
 -                                                                             -
 -                         MESSAGE PASSING PERFORMANCE                         -
 -                                                                             -
 -------------------------------------------------------------------------------

 ROUTINE             CALLS      AVE VOLUME [Bytes]
 MP_Bcast            11741                   1494.
 MP_Allreduce        82248                     57.
 MP_Sync             11697
 MP_Alltoall            44              123036339.
 MP_ISendRecv           18                4698667.
 MP_Wait                42
 MP_comm_split           1
 MP_ISend               18               17400000.
 MP_IRecv               18               17400000.
 -------------------------------------------------------------------------------


 -------------------------------------------------------------------------------
 -                                                                             -
 -                           R E F E R E N C E S                               -
 -                                                                             -
 -------------------------------------------------------------------------------
 
 CP2K version 9.0 (Development Version), the CP2K developers group (2020).
 CP2K is freely available from https://www.cp2k.org/ .

 Kuehne,Thomas D.; Iannuzzi,Marcella; Del Ben,Mauro;
 Rybkin,Vladimir V.; Seewald,Patrick; Stein,Frederick; Laino,Teodoro;
 Khaliullin,Rustam Z.; Schuett,Ole; Schiffmann,Florian; Golze,Dorothea;
 Wilhelm,Jan; Chulkov,Sergey; Bani-Hashemian,Mohammad Hossein;
 Weber,Valery; Borstnik,Urban; Taillefumier,Mathieu;
 Jakobovits,Alice Shoshana; Lazzaro,Alfio; Pabst,Hans; Mueller,Tiziano;
 Schade,Robert; Guidon,Manuel; Andermatt,Samuel; Holmberg,Nico;
 Schenter,Gregory K.; Hehn,Anna; Bussy,Augustin; Belleflamme,Fabian;
 Tabacchi,Gloria; Gloess,Andreas; Lass,Michael; Bethune,Iain;
 Mundy,Christopher J.; Plessl,Christian; Watkins,Matt;
 VandeVondele,Joost; Krack,Matthias; Hutter,Juerg. 
 The Journal of Chemical Physics, 152 (19), (2020). 
 CP2K: An electronic structure and molecular dynamics software package -
 Quickstep: Efficient and accurate electronic structure calculations.
 https://doi.org/10.1063/5.0007045

 Schuett, Ole; Messmer, Peter; Hutter, Juerg; VandeVondele, Joost. 
 Electronic Structure Calculations on Graphics Processing Units, John
 Wiley & Sons, Ltd, 173-190 (2016). 
 GPU-Accelerated Sparse Matrix-Matrix Multiplication for
 Linear Scaling Density Functional Theory.
 https://doi.org/10.1002/9781118670712.ch8

 Borstnik, U; VandeVondele, J; Weber, V; Hutter, J. 
 PARALLEL COMPUTING, 40 (5-6), 47-58 (2014). 
 Sparse matrix multiplication: The distributed block-compressed sparse
 row library.
 https://doi.org/10.1016/j.parco.2014.03.012

 Hutter, J; Iannuzzi, M; Schiffmann, F; VandeVondele, J. 
 WIREs Comput Mol Sci., 4 (1), 15-25 (2014). 
 CP2K: atomistic simulations of condensed matter systems.
 https://doi.org/10.1002/wcms.1159

 Marek, A; Blum, V; Johanni, R; Havu, V; Lang, B; Auckenthaler, T;
 Heinecke, A; Bungartz, H; Lederer, H. 
 Journal of Physics: Condensed Matter, 26 (21), (2014). 
 The ELPA library: scalable parallel eigenvalue solutions for
 electronic structure
 theory and computational science.
 https://doi.org/10.1088/0953-8984/26/21/213201

 Guidon, M; Hutter, J; VandeVondele, J. 
 JOURNAL OF CHEMICAL THEORY AND COMPUTATION, 6 (8), 2348-2364 (2010). 
 Auxiliary Density Matrix Methods for Hartree-Fock Exchange Calculations.
 https://doi.org/10.1021/ct1002225

 VandeVondele, J; Hutter, J. 
 JOURNAL OF CHEMICAL PHYSICS, 127 (11), 114105 (2007). 
 Gaussian basis sets for accurate calculations on molecular systems in
 gas and condensed phases.
 https://doi.org/10.1063/1.2770708

 Krack, M. 
 THEORETICAL CHEMISTRY ACCOUNTS, 114 (1-3), 145-152 (2005). 
 Pseudopotentials for H to Kr optimized for gradient-corrected
 exchange-correlation functionals.
 https://doi.org/10.1007/s00214-005-0655-y

 VandeVondele, J; Krack, M; Mohamed, F; Parrinello, M; Chassaing, T;
 Hutter, J. COMPUTER PHYSICS COMMUNICATIONS, 167 (2), 103-128 (2005). 
 QUICKSTEP: Fast and accurate density functional calculations using a
 mixed Gaussian and plane waves approach.
 https://doi.org/10.1016/j.cpc.2004.12.014

 Frigo, M; Johnson, SG. 
 PROCEEDINGS OF THE IEEE, 93 (2), 216-231 (2005). 
 The design and implementation of FFTW3.
 https://doi.org/10.1109/JPROC.2004.840301

 Hartwigsen, C; Goedecker, S; Hutter, J. 
 PHYSICAL REVIEW B, 58 (7), 3641-3662 (1998). 
 Relativistic separable dual-space Gaussian pseudopotentials from H to Rn.
 https://doi.org/10.1103/PhysRevB.58.3641

 Lippert, G; Hutter, J; Parrinello, M. 
 MOLECULAR PHYSICS, 92 (3), 477-487 (1997). 
 A hybrid Gaussian and plane wave density functional scheme.
 https://doi.org/10.1080/002689797170220

 Perdew, JP; Burke, K; Ernzerhof, M. 
 PHYSICAL REVIEW LETTERS, 77 (18), 3865-3868 (1996). 
 Generalized gradient approximation made simple.
 https://doi.org/10.1103/PhysRevLett.77.3865

 Goedecker, S; Teter, M; Hutter, J. 
 PHYSICAL REVIEW B, 54 (3), 1703-1710 (1996). 
 Separable dual-space Gaussian pseudopotentials.
 https://doi.org/10.1103/PhysRevB.54.1703


 -------------------------------------------------------------------------------
 -                                                                             -
 -                                T I M I N G                                  -
 -                                                                             -
 -------------------------------------------------------------------------------
 SUBROUTINE                       CALLS  ASD         SELF TIME        TOTAL TIME
                                MAXIMUM       AVERAGE  MAXIMUM  AVERAGE  MAXIMUM
 CP2K                                 1  1.0    0.002    0.008  884.699  884.709
 run_optimize_basis                   1  2.0    0.002    0.002  884.690  884.700
 driver_para_opt_basis                1  3.0    0.000    0.000  884.679  884.688
 driver_optimization_para_low         1  4.0    0.101    0.154  884.678  884.688
 compute_residuum_vectors         11697  5.0    0.655    0.831  870.993  871.279
 mp_sum_dv                        58486  5.8  401.352  767.703  401.352  767.703
 cp_gemm                         140364  7.2    0.216    0.294  374.026  737.842
 cp_gemm_fm_gemm                 140364  8.2    0.130    0.172  373.810  737.638
 cp_fm_gemm                      140364  9.2  373.681  737.513  373.681  737.513
 admm_fit_mo_coeffs               11697  6.0    0.030    0.048  164.668  316.513
 fit_mo_coeffs                    11697  7.0    0.105    0.131  118.085  236.952
 purify_mo_diag                   11697  7.0    0.139    0.191   46.552   80.905
 copy_dbcsr_to_fm                 58486  6.8    0.652    1.106   35.215   53.284
 cp_fm_syevd                      23394  7.0    0.079    0.111   26.135   37.628
 cp_fm_syevd_base                 23394  8.0   26.027   37.536   26.027   37.536
 build_overlap_matrix_low         23398  6.0   12.101   27.822   12.645   28.440
 dbcsr_complete_redistribute      58487  7.8    5.378    9.848   19.457   25.858
 dbcsr_desymmetrize_deep          58486  7.8    1.772    3.162   11.966   23.583
 cp_fm_upper_to_full              35093  7.3    9.329   19.488    9.329   19.488
 -------------------------------------------------------------------------------

 The number of warnings for this run is : 0
 
 -------------------------------------------------------------------------------
  **** **** ******  **  PROGRAM ENDED AT                 2021-01-05 21:45:17.171
 ***** ** ***  *** **   PROGRAM RAN ON                                   tcopt10
 **    ****   ******    PROGRAM RAN BY                                    hutter
 ***** **    ** ** **   PROGRAM PROCESS ID                                 59140
  **** **  *******  **  PROGRAM STOPPED IN /data/hutter/GITHUB/BASIS/MOLOPT/PBE/
                                           Ge
