 DBCSR| CPU Multiplication driver                                           XSMM
 DBCSR| Multrec recursion limit                                              512
 DBCSR| Multiplication stack size                                           1000
 DBCSR| Maximum elements for images                                    UNLIMITED
 DBCSR| Multiplicative factor virtual images                                   1
 DBCSR| Use multiplication densification                                       T
 DBCSR| Multiplication size stacks                                             3
 DBCSR| Use memory pool for CPU allocation                                     F
 DBCSR| Number of 3D layers                                               SINGLE
 DBCSR| Use MPI memory allocation                                              F
 DBCSR| Use RMA algorithm                                                      F
 DBCSR| Use Communication thread                                               T
 DBCSR| Communication thread load                                             87
 DBCSR| Split modifier for TAS multiplication algorithm                  1.0E+00


  **** **** ******  **  PROGRAM STARTED AT               2020-12-03 11:54:27.637
 ***** ** ***  *** **   PROGRAM STARTED ON                               tcopt10
 **    ****   ******    PROGRAM STARTED BY                                hutter
 ***** **    ** ** **   PROGRAM PROCESS ID                                 28658
  **** **  *******  **  PROGRAM STARTED IN /data/hutter/GITHUB/BASIS/MOLOPT/PBE0
                                           /Li

 CP2K| version string:                    CP2K version 8.0 (Development Version)
 CP2K| source code revision number:                                  git:afc71fa
 CP2K| cp2kflags: omp libint fftw3 libxc elpa parallel mpi3 scalapack xsmm spgli
 CP2K|            b sirius
 CP2K| is freely available from                            https://www.cp2k.org/
 CP2K| Program compiled at                          Tue Nov 17 10:27:14 CET 2020
 CP2K| Program compiled on                                               tcopt10
 CP2K| Program compiled for                                                local
 CP2K| Data directory path                 /data/hutter/GITHUB/CURRENT/cp2k/data
 CP2K| Input file name                                               Li2-ref.inp

 GLOBAL| Force Environment number                                              1
 GLOBAL| Basis set file name                                  ../PBE0_UCSEGBASIS
 GLOBAL| Potential file name                                        ../POTENTIAL
 GLOBAL| MM Potential file name                                     MM_POTENTIAL
 GLOBAL| Coordinate file name                                      __STD_INPUT__
 GLOBAL| Method name                                                        CP2K
 GLOBAL| Project name                                                   refLi2q3
 GLOBAL| Preferred FFT library                                             FFTW3
 GLOBAL| Preferred diagonalization lib.                                     ELPA
 GLOBAL| Run type                                                         ENERGY
 GLOBAL| All-to-all communication in single precision                          F
 GLOBAL| FFTs using library dependent lengths                                  F
 GLOBAL| Global print level                                                  LOW
 GLOBAL| MPI I/O enabled                                                       T
 GLOBAL| Total number of message passing processes                            36
 GLOBAL| Number of threads for this process                                    1
 GLOBAL| This output is from process                                           0
 GLOBAL| CPU model name                          AMD EPYC 7401 24-Core Processor
 GLOBAL| CPUID                                                              1002

 MEMORY| system memory details [Kb]
 MEMORY|                        rank 0           min           max       average
 MEMORY| MemTotal            263987256     263987256     263987256     263987256
 MEMORY| MemFree             229387824     229387824     229387824     229387824
 MEMORY| Buffers                    32            32            32            32
 MEMORY| Cached               30125120      30125120      30125120      30125120
 MEMORY| Slab                  1429312       1429312       1429312       1429312
 MEMORY| SReclaimable           737916        737916        737916        737916
 MEMORY| MemLikelyFree       260250892     260250892     260250892     260250892


 GENERATE|  Preliminary Number of Bonds generated:                             0
 GENERATE|  Achieved consistency in connectivity generation.

 *******************************************************************************
 *******************************************************************************
 **                                                                           **
 **     #####                         ##              ##                      **
 **    ##   ##            ##          ##              ##                      **
 **   ##     ##                       ##            ######                    **
 **   ##     ##  ##   ##  ##   #####  ##  ##   ####   ##    #####    #####    **
 **   ##     ##  ##   ##  ##  ##      ## ##   ##      ##   ##   ##  ##   ##   **
 **   ##  ## ##  ##   ##  ##  ##      ####     ###    ##   ######   ######    **
 **    ##  ###   ##   ##  ##  ##      ## ##      ##   ##   ##       ##        **
 **     #######   #####   ##   #####  ##  ##  ####    ##    #####   ##        **
 **           ##                                                    ##        **
 **                                                                           **
 **                                                ... make the atoms dance   **
 **                                                                           **
 **            Copyright (C) by CP2K developers group (2000 - 2020)           **
 **                      J. Chem. Phys. 152, 194103 (2020)                    **
 **                                                                           **
 *******************************************************************************


 TOTAL NUMBERS AND MAXIMUM NUMBERS

  Total number of            - Atomic kinds:                                   1
                             - Atoms:                                          2
                             - Shell sets:                                    32
                             - Shells:                                        56
                             - Primitive Cartesian functions:                 32
                             - Cartesian basis functions:                    248
                             - Spherical basis functions:                    200

  Maximum angular momentum of- Orbital basis functions:                        3
                             - Local part of the GTH pseudopotential:          6


 SCF PARAMETERS         Density guess:                                    ATOMIC
                        --------------------------------------------------------
                        max_scf:                                              10
                        max_scf_history:                                       0
                        max_diis:                                              4
                        --------------------------------------------------------
                        eps_scf:                                        1.00E-07
                        eps_scf_history:                                0.00E+00
                        eps_diis:                                       1.00E-01
                        eps_eigval:                                     1.00E-05
                        --------------------------------------------------------
                        level_shift [a.u.]:                                 0.00
                        --------------------------------------------------------
                        Outer loop SCF in use 
                        No variables optimised in outer loop
                        eps_scf                                         1.00E-07
                        max_scf                                               10
                        No outer loop optimization
                        step_size                                       5.00E-01

 Number of electrons:                                                          6
 Number of occupied orbitals:                                                  3
 Number of molecular orbitals:                                                 3

 Number of orbital functions:                                                200
 Number of independent orbital functions:                                    200

 Extrapolation method: initial_guess


 SCF WAVEFUNCTION OPTIMIZATION

  ----------------------------------- OT ---------------------------------------
  Minimizer      : DIIS                : direct inversion
                                         in the iterative subspace
                                         using   7 DIIS vectors
                                         safer DIIS on
  Preconditioner : FULL_ALL            : diagonalization, state selective
  Precond_solver : DEFAULT
  stepsize       :    0.15000000                  energy_gap     :    0.08000000
  eps_taylor     :   0.10000E-15                  max_taylor     :             4
  ----------------------------------- OT ---------------------------------------

  Step     Update method      Time    Convergence         Total energy    Change
  ------------------------------------------------------------------------------
     1 OT DIIS     0.15E+00    8.8     0.16042647       -13.6204905597 -1.36E+01
     2 OT DIIS     0.15E+00    1.0     0.02566418       -14.7054888569 -1.08E+00
     3 OT DIIS     0.15E+00    1.0     0.01016603       -14.7406642094 -3.52E-02
     4 OT DIIS     0.15E+00    1.0     0.00774695       -14.7510899511 -1.04E-02
     5 OT SD       0.15E+00    1.0     0.00820631       -14.7558421116 -4.75E-03
     6 OT SD       0.15E+00    1.0     0.00873952       -14.7621015469 -6.26E-03
     7 OT SD       0.15E+00    1.0     0.00910988       -14.7691333152 -7.03E-03
     8 OT SD       0.15E+00    1.0     0.00922689       -14.7766644846 -7.53E-03
     9 OT SD       0.15E+00    1.0     0.00909264       -14.7842814265 -7.62E-03
    10 OT SD       0.15E+00    1.0     0.00877758       -14.7915975401 -7.32E-03

  Leaving inner SCF loop after reaching    10 steps.


  Electronic density on regular grids:         -6.0000000062       -0.0000000062
  Core density on regular grids:                6.0000000000       -0.0000000000
  Total charge density on r-space grids:       -0.0000000062
  Total charge density g-space grids:          -0.0000000062

  Overlap energy of the core charge distribution:               0.00000000000000
  Self energy of the core charge distribution:                -12.69646169078072
  Core Hamiltonian energy:                                      0.57708306884065
  Hartree energy:                                               0.88670343810009
  Exchange-correlation energy:                                 -2.69327370272388
  Hartree-Fock Exchange energy:                                -0.86564865348651

  Total energy:                                               -14.79159754005036

  outer SCF iter =    1 RMS gradient =   0.88E-02 energy =        -14.7915975401

  ----------------------------------- OT ---------------------------------------
  Minimizer      : DIIS                : direct inversion
                                         in the iterative subspace
                                         using   7 DIIS vectors
                                         safer DIIS on
  Preconditioner : FULL_ALL            : diagonalization, state selective
  Precond_solver : DEFAULT
  stepsize       :    0.15000000                  energy_gap     :    0.08000000
  eps_taylor     :   0.10000E-15                  max_taylor     :             4
  ----------------------------------- OT ---------------------------------------

  Step     Update method      Time    Convergence         Total energy    Change
  ------------------------------------------------------------------------------
     1 OT DIIS     0.15E+00    2.0     0.01661941       -14.7983718495 -6.77E-03
     2 OT DIIS     0.15E+00    0.9     0.01436090       -14.8207173297 -2.23E-02
     3 OT DIIS     0.15E+00    1.0     0.01441360       -14.8467609682 -2.60E-02
     4 OT DIIS     0.15E+00    1.0     0.01409493       -14.8555015070 -8.74E-03
     5 OT DIIS     0.15E+00    1.0     0.02486987       -14.8596650488 -4.16E-03
     6 OT DIIS     0.15E+00    1.0     0.00668357       -14.8789995975 -1.93E-02
     7 OT DIIS     0.15E+00    1.0     0.00367437       -14.8815139323 -2.51E-03
     8 OT DIIS     0.15E+00    1.0     0.00402309       -14.8817344988 -2.21E-04
     9 OT DIIS     0.15E+00    1.0     0.00572075       -14.8806613206  1.07E-03
    10 OT DIIS     0.15E+00    1.0     0.00095463       -14.8824089418 -1.75E-03

  Leaving inner SCF loop after reaching    10 steps.


  Electronic density on regular grids:         -6.0000000062       -0.0000000062
  Core density on regular grids:                6.0000000000       -0.0000000000
  Total charge density on r-space grids:       -0.0000000062
  Total charge density g-space grids:          -0.0000000062

  Overlap energy of the core charge distribution:               0.00000000000000
  Self energy of the core charge distribution:                -12.69646169078072
  Core Hamiltonian energy:                                      0.51175501106085
  Hartree energy:                                               0.87824657385287
  Exchange-correlation energy:                                 -2.70289060398797
  Hartree-Fock Exchange energy:                                -0.87305823195378

  Total energy:                                               -14.88240894180876

  outer SCF iter =    2 RMS gradient =   0.95E-03 energy =        -14.8824089418

  ----------------------------------- OT ---------------------------------------
  Minimizer      : DIIS                : direct inversion
                                         in the iterative subspace
                                         using   7 DIIS vectors
                                         safer DIIS on
  Preconditioner : FULL_ALL            : diagonalization, state selective
  Precond_solver : DEFAULT
  stepsize       :    0.15000000                  energy_gap     :    0.08000000
  eps_taylor     :   0.10000E-15                  max_taylor     :             4
  ----------------------------------- OT ---------------------------------------

  Step     Update method      Time    Convergence         Total energy    Change
  ------------------------------------------------------------------------------
     1 OT DIIS     0.15E+00    2.0     0.00006500       -14.8824528405 -4.39E-05
     2 OT DIIS     0.15E+00    0.9     0.00002887       -14.8824531076 -2.67E-07
     3 OT DIIS     0.15E+00    0.9     0.00000899       -14.8824531811 -7.34E-08
     4 OT DIIS     0.15E+00    0.9     0.00000119       -14.8824531892 -8.14E-09
     5 OT DIIS     0.15E+00    1.0     0.00000028       -14.8824531893 -1.24E-10
     6 OT DIIS     0.15E+00    0.9     0.00000004       -14.8824531893 -6.75E-12

  *** SCF run converged in     6 steps ***


  Electronic density on regular grids:         -6.0000000062       -0.0000000062
  Core density on regular grids:                6.0000000000       -0.0000000000
  Total charge density on r-space grids:       -0.0000000062
  Total charge density g-space grids:          -0.0000000062

  Overlap energy of the core charge distribution:               0.00000000000000
  Self energy of the core charge distribution:                -12.69646169078072
  Core Hamiltonian energy:                                      0.51287479428459
  Hartree energy:                                               0.87825707266378
  Exchange-correlation energy:                                 -2.70376537264448
  Hartree-Fock Exchange energy:                                -0.87335799284694

  Total energy:                                               -14.88245318932378

  outer SCF iter =    3 RMS gradient =   0.36E-07 energy =        -14.8824531893
  outer SCF loop converged in   3 iterations or   26 steps


 ENERGY| Total FORCE_EVAL ( QS ) energy [a.u.]:              -14.882453189323783

 -------------------------------------------------------------------------------
 -                                                                             -
 -                                DBCSR STATISTICS                             -
 -                                                                             -
 -------------------------------------------------------------------------------
 COUNTER                                    TOTAL       BLAS       SMM       ACC
 flops     3 x     3 x     3                10260       0.0%    100.0%      0.0%
 flops     3 x     3 x   100               385200       0.0%    100.0%      0.0%
 flops   100 x     3 x     3               478800       0.0%    100.0%      0.0%
 flops   100 x   100 x     3              4860000       0.0%    100.0%      0.0%
 flops   100 x     3 x   100             31200000       0.0%    100.0%      0.0%
 flops inhomo. stacks                           0       0.0%      0.0%      0.0%
 flops total                        36.934260E+06       0.0%    100.0%      0.0%
 flops max/rank                     17.854860E+06       0.0%    100.0%      0.0%
 matmuls inhomo. stacks                         0       0.0%      0.0%      0.0%
 matmuls total                               1271       0.0%    100.0%      0.0%
 number of processed stacks                  1271       0.0%    100.0%      0.0%
 average stack size                                     0.0       1.0       0.0
 marketing flops                    38.565100E+06
 -------------------------------------------------------------------------------
 # multiplications                            590
 max memory usage/rank             706.936832E+06
 # max total images/rank                        1
 # max 3D layers                                1
 # MPI messages exchanged                  212400
 MPI messages size (bytes):
  total size                       220.928672E+06
  min size                           0.000000E+00
  max size                          80.000000E+03
  average size                       1.040154E+03
 MPI breakdown and total messages size (bytes):
             size <=      128              204490                   184680
       128 < size <=     8192                5310                 12744000
      8192 < size <=    32768                   0                        0
     32768 < size <=   131072                2600                208000000
    131072 < size <=  4194304                   0                        0
   4194304 < size <= 16777216                   0                        0
  16777216 < size                               0                        0
 -------------------------------------------------------------------------------
 -                                                                             -
 -                      DBCSR MESSAGE PASSING PERFORMANCE                      -
 -                                                                             -
 -------------------------------------------------------------------------------
 ROUTINE             CALLS      AVE VOLUME [Bytes]
 MP_Bcast                6                     12.
 MP_Allreduce         3134                      8.
 MP_Alltoall          2436                   3233.
 MP_ISend            14148                   1678.
 MP_IRecv            14148                    849.
 -------------------------------------------------------------------------------

 -------------------------------------------------------------------------------
 -                                                                             -
 -                                GRID STATISTICS                              -
 -                                                                             -
 -------------------------------------------------------------------------------
 LP    KERNEL    OPERATION                                     COUNT     PERCENT
 0     general   collocate                                        72       0.18%
 0     ortho     integrate                                      7228      18.35%
 0     ortho     collocate                                      7506      19.05%
 3     ortho     integrate                                      9256      23.49%
 3     ortho     collocate                                      9612      24.40%
 6     ortho     integrate                                      2808       7.13%
 6     ortho     collocate                                      2916       7.40%
 -------------------------------------------------------------------------------

 MEMORY| Estimated peak process memory [MiB]                                 675

 -------------------------------------------------------------------------------
 -                                                                             -
 -                         MESSAGE PASSING PERFORMANCE                         -
 -                                                                             -
 -------------------------------------------------------------------------------

 ROUTINE             CALLS      AVE VOLUME [Bytes]
 MP_Group                5
 MP_Bcast              244                 364168.
 MP_Allreduce          765                   1820.
 MP_Sync               163
 MP_Alltoall           514                6288746.
 MP_ISendRecv         7455                 106108.
 MP_Wait              9777
 MP_comm_split          26
 MP_ISend             2160                 254016.
 MP_IRecv             2160                 254016.
 MP_Recv                 4                   1600.
 -------------------------------------------------------------------------------


 -------------------------------------------------------------------------------
 -                                                                             -
 -                           R E F E R E N C E S                               -
 -                                                                             -
 -------------------------------------------------------------------------------
 
 CP2K version 8.0 (Development Version), the CP2K developers group (2020).
 CP2K is freely available from https://www.cp2k.org/ .

 Kuehne,Thomas D.; Iannuzzi,Marcella; Del Ben,Mauro;
 Rybkin,Vladimir V.; Seewald,Patrick; Stein,Frederick; Laino,Teodoro;
 Khaliullin,Rustam Z.; Schuett,Ole; Schiffmann,Florian; Golze,Dorothea;
 Wilhelm,Jan; Chulkov,Sergey; Bani-Hashemian,Mohammad Hossein;
 Weber,Valery; Borstnik,Urban; Taillefumier,Mathieu;
 Jakobovits,Alice Shoshana; Lazzaro,Alfio; Pabst,Hans; Mueller,Tiziano;
 Schade,Robert; Guidon,Manuel; Andermatt,Samuel; Holmberg,Nico;
 Schenter,Gregory K.; Hehn,Anna; Bussy,Augustin; Belleflamme,Fabian;
 Tabacchi,Gloria; Gloess,Andreas; Lass,Michael; Bethune,Iain;
 Mundy,Christopher J.; Plessl,Christian; Watkins,Matt;
 VandeVondele,Joost; Krack,Matthias; Hutter,Juerg. 
 The Journal of Chemical Physics, 152 (19), (2020). 
 CP2K: An electronic structure and molecular dynamics software package -
 Quickstep: Efficient and accurate electronic structure calculations.
 https://doi.org/10.1063/5.0007045

 Schuett, Ole; Messmer, Peter; Hutter, Juerg; VandeVondele, Joost. 
 Electronic Structure Calculations on Graphics Processing Units, John
 Wiley & Sons, Ltd, 173-190 (2016). 
 GPU-Accelerated Sparse Matrix-Matrix Multiplication for
 Linear Scaling Density Functional Theory.
 https://doi.org/10.1002/9781118670712.ch8

 Borstnik, U; VandeVondele, J; Weber, V; Hutter, J. 
 PARALLEL COMPUTING, 40 (5-6), 47-58 (2014). 
 Sparse matrix multiplication: The distributed block-compressed sparse
 row library.
 https://doi.org/10.1016/j.parco.2014.03.012

 Hutter, J; Iannuzzi, M; Schiffmann, F; VandeVondele, J. 
 WIREs Comput Mol Sci., 4 (1), 15-25 (2014). 
 CP2K: atomistic simulations of condensed matter systems.
 https://doi.org/10.1002/wcms.1159

 Marek, A; Blum, V; Johanni, R; Havu, V; Lang, B; Auckenthaler, T;
 Heinecke, A; Bungartz, H; Lederer, H. 
 Journal of Physics: Condensed Matter, 26 (21), (2014). 
 The ELPA library: scalable parallel eigenvalue solutions for
 electronic structure
 theory and computational science.
 https://doi.org/10.1088/0953-8984/26/21/213201

 Guidon, M; Hutter, J; VandeVondele, J. 
 JOURNAL OF CHEMICAL THEORY AND COMPUTATION, 5 (11), 3010-3021 (2009). 
 Robust Periodic Hartree-Fock Exchange for Large-Scale Simulations Using
 Gaussian Basis Sets.
 https://doi.org/10.1021/ct900494g

 Guidon, M; Schiffmann, F; Hutter, J; VandeVondele, J. 
 JOURNAL OF CHEMICAL PHYSICS, 128 (21), 214104 (2008). 
 Ab initio molecular dynamics using hybrid density functionals.
 https://doi.org/10.1063/1.2931945

 Krack, M. 
 THEORETICAL CHEMISTRY ACCOUNTS, 114 (1-3), 145-152 (2005). 
 Pseudopotentials for H to Kr optimized for gradient-corrected
 exchange-correlation functionals.
 https://doi.org/10.1007/s00214-005-0655-y

 VandeVondele, J; Krack, M; Mohamed, F; Parrinello, M; Chassaing, T;
 Hutter, J. COMPUTER PHYSICS COMMUNICATIONS, 167 (2), 103-128 (2005). 
 QUICKSTEP: Fast and accurate density functional calculations using a
 mixed Gaussian and plane waves approach.
 https://doi.org/10.1016/j.cpc.2004.12.014

 Frigo, M; Johnson, SG. 
 PROCEEDINGS OF THE IEEE, 93 (2), 216-231 (2005). 
 The design and implementation of FFTW3.
 https://doi.org/10.1109/JPROC.2004.840301

 VandeVondele, J; Hutter, J. 
 JOURNAL OF CHEMICAL PHYSICS, 118 (10), 4365-4369 (2003). 
 An efficient orbital transformation method for electronic structure
 calculations.
 https://doi.org/10.1063/1.1543154

 Martyna, GJ; Tuckerman, ME. 
 JOURNAL OF CHEMICAL PHYSICS, 110 (6), 2810-2821 (1999). 
 A reciprocal space based method for treating long range interactions in
 ab initio and force-field-based calculations in clusters.
 https://doi.org/10.1063/1.477923

 Hartwigsen, C; Goedecker, S; Hutter, J. 
 PHYSICAL REVIEW B, 58 (7), 3641-3662 (1998). 
 Relativistic separable dual-space Gaussian pseudopotentials from H to Rn.
 https://doi.org/10.1103/PhysRevB.58.3641

 Lippert, G; Hutter, J; Parrinello, M. 
 MOLECULAR PHYSICS, 92 (3), 477-487 (1997). 
 A hybrid Gaussian and plane wave density functional scheme.
 https://doi.org/10.1080/002689797170220

 Perdew, JP; Burke, K; Ernzerhof, M. 
 PHYSICAL REVIEW LETTERS, 77 (18), 3865-3868 (1996). 
 Generalized gradient approximation made simple.
 https://doi.org/10.1103/PhysRevLett.77.3865

 Goedecker, S; Teter, M; Hutter, J. 
 PHYSICAL REVIEW B, 54 (3), 1703-1710 (1996). 
 Separable dual-space Gaussian pseudopotentials.
 https://doi.org/10.1103/PhysRevB.54.1703


 -------------------------------------------------------------------------------
 -                                                                             -
 -                                T I M I N G                                  -
 -                                                                             -
 -------------------------------------------------------------------------------
 SUBROUTINE                       CALLS  ASD         SELF TIME        TOTAL TIME
                                MAXIMUM       AVERAGE  MAXIMUM  AVERAGE  MAXIMUM
 CP2K                                 1  1.0    0.010    0.035   33.707   33.715
 qs_energies                          1  2.0    0.000    0.000   33.453   33.461
 scf_env_do_scf                       1  3.0    0.000    0.000   33.257   33.264
 qs_ks_update_qs_env                 29  5.0    0.000    0.000   29.695   29.701
 rebuild_ks_matrix                   26  6.0    0.000    0.000   29.692   29.698
 qs_ks_build_kohn_sham_matrix        26  7.0    0.004    0.005   29.692   29.698
 scf_env_do_scf_inner_loop           26  4.0    0.001    0.003   22.747   22.752
 hfx_ks_matrix                       26  8.0    0.001    0.001   20.541   20.545
 integrate_four_center               26  9.0    0.013    0.014   20.540   20.543
 mp_sync                            163 10.8   14.400   17.122   14.400   17.122
 integrate_four_center_main          26 10.0    0.003    0.005    2.714   16.601
 integrate_four_center_bin         3328 11.0    2.710   16.597    2.710   16.597
 init_scf_loop                        3  4.0    0.000    0.000   10.509   10.511
 qs_vxc_create                       26  8.0    0.001    0.001    6.187    6.204
 xc_vxc_pw_create                    26  9.0    0.055    0.071    6.187    6.204
 pw_transfer                        501  9.6    0.045    0.058    6.025    6.134
 fft_wrap_pw1pw2                    449 10.7    0.006    0.008    5.929    6.048
 fft_wrap_pw1pw2_300                289 11.8    0.334    0.404    5.580    5.675
 fft3d_ps                           449 12.7    2.245    2.385    4.698    4.965
 xc_rho_set_and_dset_create          26 10.0    0.025    0.029    3.865    3.890
 qs_rho_update_rho                   27  5.0    0.000    0.000    3.092    3.093
 calculate_rho_elec                  27  6.0    0.020    0.020    3.092    3.093
 calc_screening_functions             1 10.0    2.440    2.454    2.655    2.667
 rs_pw_transfer                     213  9.5    0.004    0.006    2.339    2.429
 density_rs2pw                       27  7.0    0.001    0.002    2.246    2.322
 mp_alltoall_z22v                   449 14.7    1.901    2.297    1.901    2.297
 xc_functional_eval                  26 11.0    0.000    0.000    2.120    2.142
 pbe_lda_eval                        26 12.0    2.120    2.141    2.120    2.141
 sum_up_and_integrate                26  8.0    0.012    0.015    2.067    2.071
 integrate_v_rspace_low              26  9.0    0.073    0.115    2.054    2.059
 potential_pw2rs                     26 10.0    0.002    0.002    1.916    1.921
 x_to_yz                            235 14.2    0.302    0.339    1.258    1.438
 yz_to_x                            214 13.1    0.237    0.288    1.182    1.409
 mp_waitall_1                     45377 13.7    0.965    1.139    0.965    1.139
 rs_pw_transfer_RS2PW_300            28  8.9    0.357    0.472    0.676    0.759
 rs_pw_transfer_PW2RS_300            26 12.0    0.347    0.430    0.605    0.678
 -------------------------------------------------------------------------------

 The number of warnings for this run is : 0
 
 -------------------------------------------------------------------------------
  **** **** ******  **  PROGRAM ENDED AT                 2020-12-03 11:55:02.080
 ***** ** ***  *** **   PROGRAM RAN ON                                   tcopt10
 **    ****   ******    PROGRAM RAN BY                                    hutter
 ***** **    ** ** **   PROGRAM PROCESS ID                                 28658
  **** **  *******  **  PROGRAM STOPPED IN /data/hutter/GITHUB/BASIS/MOLOPT/PBE0
                                           /Li
