 DBCSR| CPU Multiplication driver                                           XSMM
 DBCSR| Multrec recursion limit                                              512
 DBCSR| Multiplication stack size                                           1000
 DBCSR| Maximum elements for images                                    UNLIMITED
 DBCSR| Multiplicative factor virtual images                                   1
 DBCSR| Use multiplication densification                                       T
 DBCSR| Multiplication size stacks                                             3
 DBCSR| Use memory pool for CPU allocation                                     F
 DBCSR| Number of 3D layers                                               SINGLE
 DBCSR| Use MPI memory allocation                                              F
 DBCSR| Use RMA algorithm                                                      F
 DBCSR| Use Communication thread                                               T
 DBCSR| Communication thread load                                             87
 DBCSR| Split modifier for TAS multiplication algorithm                  1.0E+00


  **** **** ******  **  PROGRAM STARTED AT               2020-12-03 11:53:49.613
 ***** ** ***  *** **   PROGRAM STARTED ON                               tcopt10
 **    ****   ******    PROGRAM STARTED BY                                hutter
 ***** **    ** ** **   PROGRAM PROCESS ID                                 28345
  **** **  *******  **  PROGRAM STARTED IN /data/hutter/GITHUB/BASIS/MOLOPT/PBE0
                                           /Li

 CP2K| version string:                    CP2K version 8.0 (Development Version)
 CP2K| source code revision number:                                  git:afc71fa
 CP2K| cp2kflags: omp libint fftw3 libxc elpa parallel mpi3 scalapack xsmm spgli
 CP2K|            b sirius
 CP2K| is freely available from                            https://www.cp2k.org/
 CP2K| Program compiled at                          Tue Nov 17 10:27:14 CET 2020
 CP2K| Program compiled on                                               tcopt10
 CP2K| Program compiled for                                                local
 CP2K| Data directory path                 /data/hutter/GITHUB/CURRENT/cp2k/data
 CP2K| Input file name                                              Li2O-ref.inp

 GLOBAL| Force Environment number                                              1
 GLOBAL| Basis set file name                                  ../PBE0_UCSEGBASIS
 GLOBAL| Potential file name                                        ../POTENTIAL
 GLOBAL| MM Potential file name                                     MM_POTENTIAL
 GLOBAL| Coordinate file name                                      __STD_INPUT__
 GLOBAL| Method name                                                        CP2K
 GLOBAL| Project name                                                  refLi2Oq3
 GLOBAL| Preferred FFT library                                             FFTW3
 GLOBAL| Preferred diagonalization lib.                                     ELPA
 GLOBAL| Run type                                                         ENERGY
 GLOBAL| All-to-all communication in single precision                          F
 GLOBAL| FFTs using library dependent lengths                                  F
 GLOBAL| Global print level                                                  LOW
 GLOBAL| MPI I/O enabled                                                       T
 GLOBAL| Total number of message passing processes                            36
 GLOBAL| Number of threads for this process                                    1
 GLOBAL| This output is from process                                           0
 GLOBAL| CPU model name                          AMD EPYC 7401 24-Core Processor
 GLOBAL| CPUID                                                              1002

 MEMORY| system memory details [Kb]
 MEMORY|                        rank 0           min           max       average
 MEMORY| MemTotal            263987256     263987256     263987256     263987256
 MEMORY| MemFree             229391536     229391536     229391536     229391536
 MEMORY| Buffers                    32            32            32            32
 MEMORY| Cached               30124272      30124272      30124272      30124272
 MEMORY| Slab                  1426388       1426388       1426388       1426388
 MEMORY| SReclaimable           737492        737492        737492        737492
 MEMORY| MemLikelyFree       260253332     260253332     260253332     260253332


 GENERATE|  Preliminary Number of Bonds generated:                             0
 GENERATE|  Achieved consistency in connectivity generation.

 *******************************************************************************
 *******************************************************************************
 **                                                                           **
 **     #####                         ##              ##                      **
 **    ##   ##            ##          ##              ##                      **
 **   ##     ##                       ##            ######                    **
 **   ##     ##  ##   ##  ##   #####  ##  ##   ####   ##    #####    #####    **
 **   ##     ##  ##   ##  ##  ##      ## ##   ##      ##   ##   ##  ##   ##   **
 **   ##  ## ##  ##   ##  ##  ##      ####     ###    ##   ######   ######    **
 **    ##  ###   ##   ##  ##  ##      ## ##      ##   ##   ##       ##        **
 **     #######   #####   ##   #####  ##  ##  ####    ##    #####   ##        **
 **           ##                                                    ##        **
 **                                                                           **
 **                                                ... make the atoms dance   **
 **                                                                           **
 **            Copyright (C) by CP2K developers group (2000 - 2020)           **
 **                      J. Chem. Phys. 152, 194103 (2020)                    **
 **                                                                           **
 *******************************************************************************


 TOTAL NUMBERS AND MAXIMUM NUMBERS

  Total number of            - Atomic kinds:                                   2
                             - Atoms:                                          3
                             - Shell sets:                                    44
                             - Shells:                                        76
                             - Primitive Cartesian functions:                 44
                             - Cartesian basis functions:                    304
                             - Spherical basis functions:                    252

  Maximum angular momentum of- Orbital basis functions:                        3
                             - Local part of the GTH pseudopotential:          6
                             - Non-local part of the GTH pseudopotential:      0


 SCF PARAMETERS         Density guess:                                    ATOMIC
                        --------------------------------------------------------
                        max_scf:                                              10
                        max_scf_history:                                       0
                        max_diis:                                              4
                        --------------------------------------------------------
                        eps_scf:                                        1.00E-07
                        eps_scf_history:                                0.00E+00
                        eps_diis:                                       1.00E-01
                        eps_eigval:                                     1.00E-05
                        --------------------------------------------------------
                        level_shift [a.u.]:                                 0.00
                        --------------------------------------------------------
                        Outer loop SCF in use 
                        No variables optimised in outer loop
                        eps_scf                                         1.00E-07
                        max_scf                                               10
                        No outer loop optimization
                        step_size                                       5.00E-01

 Number of electrons:                                                         12
 Number of occupied orbitals:                                                  6
 Number of molecular orbitals:                                                 6

 Number of orbital functions:                                                252
 Number of independent orbital functions:                                    252

 Extrapolation method: initial_guess


 SCF WAVEFUNCTION OPTIMIZATION

  ----------------------------------- OT ---------------------------------------
  Minimizer      : DIIS                : direct inversion
                                         in the iterative subspace
                                         using   7 DIIS vectors
                                         safer DIIS on
  Preconditioner : FULL_ALL            : diagonalization, state selective
  Precond_solver : DEFAULT
  stepsize       :    0.15000000                  energy_gap     :    0.08000000
  eps_taylor     :   0.10000E-15                  max_taylor     :             4
  ----------------------------------- OT ---------------------------------------

  Step     Update method      Time    Convergence         Total energy    Change
  ------------------------------------------------------------------------------
     1 OT DIIS     0.15E+00   11.5     0.07970877       -29.7078347734 -2.97E+01
     2 OT DIIS     0.15E+00    1.0     0.04080550       -30.6470407236 -9.39E-01
     3 OT DIIS     0.15E+00    1.0     0.03067760       -30.8315256143 -1.84E-01
     4 OT DIIS     0.15E+00    1.0     0.01688022       -30.8919476994 -6.04E-02
     5 OT DIIS     0.15E+00    1.0     0.00861257       -30.9270422692 -3.51E-02
     6 OT DIIS     0.15E+00    1.0     0.00757010       -30.9472276519 -2.02E-02
     7 OT DIIS     0.15E+00    1.0     0.00526295       -30.9590495931 -1.18E-02
     8 OT DIIS     0.15E+00    1.0     0.00436599       -30.9614703032 -2.42E-03
     9 OT DIIS     0.15E+00    0.9     0.00266289       -30.9670424357 -5.57E-03
    10 OT DIIS     0.15E+00    1.0     0.00090015       -30.9683274000 -1.28E-03

  Leaving inner SCF loop after reaching    10 steps.


  Electronic density on regular grids:        -12.0000000022       -0.0000000022
  Core density on regular grids:               12.0000000000       -0.0000000000
  Total charge density on r-space grids:       -0.0000000022
  Total charge density g-space grids:          -0.0000000022

  Overlap energy of the core charge distribution:               0.00000000066331
  Self energy of the core charge distribution:                -53.85980166261285
  Core Hamiltonian energy:                                     12.44551551077055
  Hartree energy:                                              17.68188540529184
  Exchange-correlation energy:                                 -5.52036240019361
  Hartree-Fock Exchange energy:                                -1.71556425388130

  Total energy:                                               -30.96832739996207

  outer SCF iter =    1 RMS gradient =   0.90E-03 energy =        -30.9683274000

  ----------------------------------- OT ---------------------------------------
  Minimizer      : DIIS                : direct inversion
                                         in the iterative subspace
                                         using   7 DIIS vectors
                                         safer DIIS on
  Preconditioner : FULL_ALL            : diagonalization, state selective
  Precond_solver : DEFAULT
  stepsize       :    0.15000000                  energy_gap     :    0.08000000
  eps_taylor     :   0.10000E-15                  max_taylor     :             4
  ----------------------------------- OT ---------------------------------------

  Step     Update method      Time    Convergence         Total energy    Change
  ------------------------------------------------------------------------------
     1 OT DIIS     0.15E+00    2.0     0.00076264       -30.9687841821 -4.57E-04
     2 OT DIIS     0.15E+00    1.0     0.00050187       -30.9688657320 -8.15E-05
     3 OT DIIS     0.15E+00    0.9     0.00033489       -30.9688877015 -2.20E-05
     4 OT DIIS     0.15E+00    1.0     0.00004201       -30.9689030384 -1.53E-05
     5 OT DIIS     0.15E+00    1.0     0.00001063       -30.9689034646 -4.26E-07
     6 OT DIIS     0.15E+00    0.9     0.00000323       -30.9689034786 -1.41E-08
     7 OT DIIS     0.15E+00    0.9     0.00000054       -30.9689034798 -1.13E-09
     8 OT DIIS     0.15E+00    1.0     0.00000009       -30.9689034798 -2.67E-11

  *** SCF run converged in     8 steps ***


  Electronic density on regular grids:        -12.0000000022       -0.0000000022
  Core density on regular grids:               12.0000000000       -0.0000000000
  Total charge density on r-space grids:       -0.0000000022
  Total charge density g-space grids:          -0.0000000022

  Overlap energy of the core charge distribution:               0.00000000066331
  Self energy of the core charge distribution:                -53.85980166261285
  Core Hamiltonian energy:                                     12.44304970207253
  Hartree energy:                                              17.68578482534319
  Exchange-correlation energy:                                 -5.52173590258027
  Hartree-Fock Exchange energy:                                -1.71620044269116

  Total energy:                                               -30.96890347980525

  outer SCF iter =    2 RMS gradient =   0.89E-07 energy =        -30.9689034798
  outer SCF loop converged in   2 iterations or   18 steps


 ENERGY| Total FORCE_EVAL ( QS ) energy [a.u.]:              -30.968903479805245

 -------------------------------------------------------------------------------
 -                                                                             -
 -                                DBCSR STATISTICS                             -
 -                                                                             -
 -------------------------------------------------------------------------------
 COUNTER                                    TOTAL       BLAS       SMM       ACC
 flops     6 x     6 x     6                55296       0.0%    100.0%      0.0%
 flops     6 x     6 x    52               277056       0.0%    100.0%      0.0%
 flops    52 x     6 x     6               344448       0.0%    100.0%      0.0%
 flops    52 x    52 x     6               616512       0.0%    100.0%      0.0%
 flops     6 x     6 x   100              1065600       0.0%    100.0%      0.0%
 flops    52 x   100 x     6              1185600       0.0%    100.0%      0.0%
 flops   100 x    52 x     6              1185600       0.0%    100.0%      0.0%
 flops   100 x     6 x     6              1324800       0.0%    100.0%      0.0%
 flops    52 x     6 x    52              2920320       0.0%    100.0%      0.0%
 flops   100 x   100 x     6              6840000       0.0%    100.0%      0.0%
 flops   100 x     6 x    52             11232000       0.0%    100.0%      0.0%
 flops    52 x     6 x   100             11232000       0.0%    100.0%      0.0%
 flops   100 x     6 x   100             43200000       0.0%    100.0%      0.0%
 flops inhomo. stacks                           0       0.0%      0.0%      0.0%
 flops total                        81.479232E+06       0.0%    100.0%      0.0%
 flops max/rank                     31.556352E+06       0.0%    100.0%      0.0%
 matmuls inhomo. stacks                         0       0.0%      0.0%      0.0%
 matmuls total                               1550       0.0%    100.0%      0.0%
 number of processed stacks                  1550       0.0%    100.0%      0.0%
 average stack size                                     0.0       1.0       0.0
 marketing flops                    86.166720E+06
 -------------------------------------------------------------------------------
 # multiplications                            405
 max memory usage/rank             710.479872E+06
 # max total images/rank                        1
 # max 3D layers                                1
 # MPI messages exchanged                  145800
 MPI messages size (bytes):
  total size                       251.372160E+06
  min size                           0.000000E+00
  max size                          80.000000E+03
  average size                       1.724089E+03
 MPI breakdown and total messages size (bytes):
             size <=      128              134490                        0
       128 < size <=     8192                7260                 22757760
      8192 < size <=    32768                 450                  9734400
     32768 < size <=   131072                3600                218880000
    131072 < size <=  4194304                   0                        0
   4194304 < size <= 16777216                   0                        0
  16777216 < size                               0                        0
 -------------------------------------------------------------------------------
 -                                                                             -
 -                      DBCSR MESSAGE PASSING PERFORMANCE                      -
 -                                                                             -
 -------------------------------------------------------------------------------
 ROUTINE             CALLS      AVE VOLUME [Bytes]
 MP_Bcast               14                     12.
 MP_Allreduce         2179                      8.
 MP_Alltoall          1634                   3504.
 MP_ISend             9712                   2296.
 MP_IRecv             9712                   1361.
 -------------------------------------------------------------------------------

 -------------------------------------------------------------------------------
 -                                                                             -
 -                                GRID STATISTICS                              -
 -                                                                             -
 -------------------------------------------------------------------------------
 LP    KERNEL    OPERATION                                     COUNT     PERCENT
 0     general   collocate                                       108       0.23%
 0     ortho     integrate                                      4896      10.63%
 0     ortho     collocate                                      5168      11.22%
 1     ortho     integrate                                      2556       5.55%
 1     ortho     collocate                                      2698       5.86%
 2     ortho     integrate                                      2592       5.63%
 2     ortho     collocate                                      2736       5.94%
 3     ortho     integrate                                      7488      16.26%
 3     ortho     collocate                                      7904      17.16%
 4     ortho     integrate                                      2016       4.38%
 4     ortho     collocate                                      2128       4.62%
 5     ortho     integrate                                       864       1.88%
 5     ortho     collocate                                       912       1.98%
 6     ortho     integrate                                      1944       4.22%
 6     ortho     collocate                                      2052       4.45%
 -------------------------------------------------------------------------------

 MEMORY| Estimated peak process memory [MiB]                                 678

 -------------------------------------------------------------------------------
 -                                                                             -
 -                         MESSAGE PASSING PERFORMANCE                         -
 -                                                                             -
 -------------------------------------------------------------------------------

 ROUTINE             CALLS      AVE VOLUME [Bytes]
 MP_Group                5
 MP_Bcast              224                 791921.
 MP_Allreduce          664                   2102.
 MP_Sync                97
 MP_Alltoall           362                6212215.
 MP_ISendRecv         5215                 105735.
 MP_Wait              6849
 MP_ISend             1520                 254016.
 MP_IRecv             1520                 254016.
 MP_Recv                 5                   2016.
 -------------------------------------------------------------------------------


 -------------------------------------------------------------------------------
 -                                                                             -
 -                           R E F E R E N C E S                               -
 -                                                                             -
 -------------------------------------------------------------------------------
 
 CP2K version 8.0 (Development Version), the CP2K developers group (2020).
 CP2K is freely available from https://www.cp2k.org/ .

 Kuehne,Thomas D.; Iannuzzi,Marcella; Del Ben,Mauro;
 Rybkin,Vladimir V.; Seewald,Patrick; Stein,Frederick; Laino,Teodoro;
 Khaliullin,Rustam Z.; Schuett,Ole; Schiffmann,Florian; Golze,Dorothea;
 Wilhelm,Jan; Chulkov,Sergey; Bani-Hashemian,Mohammad Hossein;
 Weber,Valery; Borstnik,Urban; Taillefumier,Mathieu;
 Jakobovits,Alice Shoshana; Lazzaro,Alfio; Pabst,Hans; Mueller,Tiziano;
 Schade,Robert; Guidon,Manuel; Andermatt,Samuel; Holmberg,Nico;
 Schenter,Gregory K.; Hehn,Anna; Bussy,Augustin; Belleflamme,Fabian;
 Tabacchi,Gloria; Gloess,Andreas; Lass,Michael; Bethune,Iain;
 Mundy,Christopher J.; Plessl,Christian; Watkins,Matt;
 VandeVondele,Joost; Krack,Matthias; Hutter,Juerg. 
 The Journal of Chemical Physics, 152 (19), (2020). 
 CP2K: An electronic structure and molecular dynamics software package -
 Quickstep: Efficient and accurate electronic structure calculations.
 https://doi.org/10.1063/5.0007045

 Schuett, Ole; Messmer, Peter; Hutter, Juerg; VandeVondele, Joost. 
 Electronic Structure Calculations on Graphics Processing Units, John
 Wiley & Sons, Ltd, 173-190 (2016). 
 GPU-Accelerated Sparse Matrix-Matrix Multiplication for
 Linear Scaling Density Functional Theory.
 https://doi.org/10.1002/9781118670712.ch8

 Borstnik, U; VandeVondele, J; Weber, V; Hutter, J. 
 PARALLEL COMPUTING, 40 (5-6), 47-58 (2014). 
 Sparse matrix multiplication: The distributed block-compressed sparse
 row library.
 https://doi.org/10.1016/j.parco.2014.03.012

 Hutter, J; Iannuzzi, M; Schiffmann, F; VandeVondele, J. 
 WIREs Comput Mol Sci., 4 (1), 15-25 (2014). 
 CP2K: atomistic simulations of condensed matter systems.
 https://doi.org/10.1002/wcms.1159

 Marek, A; Blum, V; Johanni, R; Havu, V; Lang, B; Auckenthaler, T;
 Heinecke, A; Bungartz, H; Lederer, H. 
 Journal of Physics: Condensed Matter, 26 (21), (2014). 
 The ELPA library: scalable parallel eigenvalue solutions for
 electronic structure
 theory and computational science.
 https://doi.org/10.1088/0953-8984/26/21/213201

 Guidon, M; Hutter, J; VandeVondele, J. 
 JOURNAL OF CHEMICAL THEORY AND COMPUTATION, 5 (11), 3010-3021 (2009). 
 Robust Periodic Hartree-Fock Exchange for Large-Scale Simulations Using
 Gaussian Basis Sets.
 https://doi.org/10.1021/ct900494g

 Guidon, M; Schiffmann, F; Hutter, J; VandeVondele, J. 
 JOURNAL OF CHEMICAL PHYSICS, 128 (21), 214104 (2008). 
 Ab initio molecular dynamics using hybrid density functionals.
 https://doi.org/10.1063/1.2931945

 Krack, M. 
 THEORETICAL CHEMISTRY ACCOUNTS, 114 (1-3), 145-152 (2005). 
 Pseudopotentials for H to Kr optimized for gradient-corrected
 exchange-correlation functionals.
 https://doi.org/10.1007/s00214-005-0655-y

 VandeVondele, J; Krack, M; Mohamed, F; Parrinello, M; Chassaing, T;
 Hutter, J. COMPUTER PHYSICS COMMUNICATIONS, 167 (2), 103-128 (2005). 
 QUICKSTEP: Fast and accurate density functional calculations using a
 mixed Gaussian and plane waves approach.
 https://doi.org/10.1016/j.cpc.2004.12.014

 Frigo, M; Johnson, SG. 
 PROCEEDINGS OF THE IEEE, 93 (2), 216-231 (2005). 
 The design and implementation of FFTW3.
 https://doi.org/10.1109/JPROC.2004.840301

 VandeVondele, J; Hutter, J. 
 JOURNAL OF CHEMICAL PHYSICS, 118 (10), 4365-4369 (2003). 
 An efficient orbital transformation method for electronic structure
 calculations.
 https://doi.org/10.1063/1.1543154

 Martyna, GJ; Tuckerman, ME. 
 JOURNAL OF CHEMICAL PHYSICS, 110 (6), 2810-2821 (1999). 
 A reciprocal space based method for treating long range interactions in
 ab initio and force-field-based calculations in clusters.
 https://doi.org/10.1063/1.477923

 Hartwigsen, C; Goedecker, S; Hutter, J. 
 PHYSICAL REVIEW B, 58 (7), 3641-3662 (1998). 
 Relativistic separable dual-space Gaussian pseudopotentials from H to Rn.
 https://doi.org/10.1103/PhysRevB.58.3641

 Lippert, G; Hutter, J; Parrinello, M. 
 MOLECULAR PHYSICS, 92 (3), 477-487 (1997). 
 A hybrid Gaussian and plane wave density functional scheme.
 https://doi.org/10.1080/002689797170220

 Perdew, JP; Burke, K; Ernzerhof, M. 
 PHYSICAL REVIEW LETTERS, 77 (18), 3865-3868 (1996). 
 Generalized gradient approximation made simple.
 https://doi.org/10.1103/PhysRevLett.77.3865

 Goedecker, S; Teter, M; Hutter, J. 
 PHYSICAL REVIEW B, 54 (3), 1703-1710 (1996). 
 Separable dual-space Gaussian pseudopotentials.
 https://doi.org/10.1103/PhysRevB.54.1703


 -------------------------------------------------------------------------------
 -                                                                             -
 -                                T I M I N G                                  -
 -                                                                             -
 -------------------------------------------------------------------------------
 SUBROUTINE                       CALLS  ASD         SELF TIME        TOTAL TIME
                                MAXIMUM       AVERAGE  MAXIMUM  AVERAGE  MAXIMUM
 CP2K                                 1  1.0    0.013    0.037   28.551   28.551
 qs_energies                          1  2.0    0.000    0.000   28.279   28.280
 scf_env_do_scf                       1  3.0    0.000    0.000   28.077   28.078
 qs_ks_update_qs_env                 20  5.0    0.000    0.000   25.624   25.625
 rebuild_ks_matrix                   18  6.0    0.000    0.000   25.621   25.623
 qs_ks_build_kohn_sham_matrix        18  7.0    0.003    0.004   25.621   25.623
 hfx_ks_matrix                       18  8.0    0.001    0.001   19.173   19.175
 integrate_four_center               18  9.0    0.010    0.011   19.172   19.173
 scf_env_do_scf_inner_loop           18  4.0    0.001    0.002   15.710   15.710
 mp_sync                             97 10.7    9.264   13.195    9.264   13.195
 integrate_four_center_main          18 10.0    0.002    0.004    3.928   12.945
 integrate_four_center_bin         2286 11.0    3.925   12.942    3.925   12.942
 init_scf_loop                        2  4.0    0.000    0.000   12.366   12.367
 calc_screening_functions             1 10.0    3.687    3.716    4.489    4.522
 pw_transfer                        349  9.6    0.031    0.041    4.254    4.400
 fft_wrap_pw1pw2                    313 10.7    0.004    0.005    4.187    4.339
 qs_vxc_create                       18  8.0    0.000    0.001    4.290    4.301
 xc_vxc_pw_create                    18  9.0    0.036    0.046    4.289    4.300
 fft_wrap_pw1pw2_300                201 11.8    0.229    0.275    3.909    4.049
 fft3d_ps                           313 12.7    1.567    1.685    3.332    3.590
 xc_rho_set_and_dset_create          18 10.0    0.017    0.021    2.657    2.693
 qs_rho_update_rho                   19  5.0    0.000    0.000    2.163    2.163
 calculate_rho_elec                  19  6.0    0.014    0.014    2.163    2.163
 mp_alltoall_z22v                   313 14.7    1.382    1.745    1.382    1.745
 rs_pw_transfer                     149  9.4    0.003    0.004    1.634    1.716
 density_rs2pw                       19  7.0    0.001    0.001    1.578    1.666
 sum_up_and_integrate                18  8.0    0.008    0.009    1.492    1.494
 integrate_v_rspace_low              18  9.0    0.070    0.140    1.484    1.487
 xc_functional_eval                  18 11.0    0.000    0.000    1.446    1.482
 pbe_lda_eval                        18 12.0    1.446    1.482    1.446    1.482
 potential_pw2rs                     18 10.0    0.001    0.002    1.327    1.329
 calc_pair_dist_radii                 1 10.0    0.945    0.952    1.211    1.219
 powell_optimize                 397811 11.0    1.068    1.109    1.068    1.109
 yz_to_x                            150 13.1    0.164    0.204    0.880    1.105
 x_to_yz                            163 14.2    0.209    0.233    0.875    0.985
 mp_waitall_1                     31249 13.7    0.668    0.854    0.668    0.854
 -------------------------------------------------------------------------------

 The number of warnings for this run is : 0
 
 -------------------------------------------------------------------------------
  **** **** ******  **  PROGRAM ENDED AT                 2020-12-03 11:54:18.891
 ***** ** ***  *** **   PROGRAM RAN ON                                   tcopt10
 **    ****   ******    PROGRAM RAN BY                                    hutter
 ***** **    ** ** **   PROGRAM PROCESS ID                                 28345
  **** **  *******  **  PROGRAM STOPPED IN /data/hutter/GITHUB/BASIS/MOLOPT/PBE0
                                           /Li
