 DBCSR| CPU Multiplication driver                                           XSMM
 DBCSR| Multrec recursion limit                                              512
 DBCSR| Multiplication stack size                                           1000
 DBCSR| Maximum elements for images                                    UNLIMITED
 DBCSR| Multiplicative factor virtual images                                   1
 DBCSR| Use multiplication densification                                       T
 DBCSR| Multiplication size stacks                                             3
 DBCSR| Use memory pool for CPU allocation                                     F
 DBCSR| Number of 3D layers                                               SINGLE
 DBCSR| Use MPI memory allocation                                              F
 DBCSR| Use RMA algorithm                                                      F
 DBCSR| Use Communication thread                                               T
 DBCSR| Communication thread load                                             87
 DBCSR| Split modifier for TAS multiplication algorithm                  1.0E+00


  **** **** ******  **  PROGRAM STARTED AT               2020-12-03 14:55:33.535
 ***** ** ***  *** **   PROGRAM STARTED ON                               tcopt10
 **    ****   ******    PROGRAM STARTED BY                                hutter
 ***** **    ** ** **   PROGRAM PROCESS ID                                 92748
  **** **  *******  **  PROGRAM STARTED IN /data/hutter/GITHUB/BASIS/MOLOPT/PBE0
                                           /Li

 CP2K| version string:                    CP2K version 8.0 (Development Version)
 CP2K| source code revision number:                                  git:afc71fa
 CP2K| cp2kflags: omp libint fftw3 libxc elpa parallel mpi3 scalapack xsmm spgli
 CP2K|            b sirius
 CP2K| is freely available from                            https://www.cp2k.org/
 CP2K| Program compiled at                          Tue Nov 17 10:27:14 CET 2020
 CP2K| Program compiled on                                               tcopt10
 CP2K| Program compiled for                                                local
 CP2K| Data directory path                 /data/hutter/GITHUB/CURRENT/cp2k/data
 CP2K| Input file name                                             Li4H4-ref.inp

 GLOBAL| Force Environment number                                              1
 GLOBAL| Basis set file name                                  ../PBE0_UCSEGBASIS
 GLOBAL| Potential file name                                        ../POTENTIAL
 GLOBAL| MM Potential file name                                     MM_POTENTIAL
 GLOBAL| Coordinate file name                                      __STD_INPUT__
 GLOBAL| Method name                                                        CP2K
 GLOBAL| Project name                                                 refLi4H4q3
 GLOBAL| Preferred FFT library                                             FFTW3
 GLOBAL| Preferred diagonalization lib.                                     ELPA
 GLOBAL| Run type                                                         ENERGY
 GLOBAL| All-to-all communication in single precision                          F
 GLOBAL| FFTs using library dependent lengths                                  F
 GLOBAL| Global print level                                                  LOW
 GLOBAL| MPI I/O enabled                                                       T
 GLOBAL| Total number of message passing processes                            36
 GLOBAL| Number of threads for this process                                    1
 GLOBAL| This output is from process                                           0
 GLOBAL| CPU model name                          AMD EPYC 7401 24-Core Processor
 GLOBAL| CPUID                                                              1002

 MEMORY| system memory details [Kb]
 MEMORY|                        rank 0           min           max       average
 MEMORY| MemTotal            263987256     263987256     263987256     263987256
 MEMORY| MemFree             237333848     237333848     237333848     237333848
 MEMORY| Buffers                    32            32            32            32
 MEMORY| Cached               21436832      21436832      21436832      21436832
 MEMORY| Slab                  1402548       1402548       1402548       1402548
 MEMORY| SReclaimable           726768        726768        726768        726768
 MEMORY| MemLikelyFree       259497480     259497480     259497480     259497480


 GENERATE|  Preliminary Number of Bonds generated:                             9
 GENERATE|  Achieved consistency in connectivity generation.
 GENERATE|  Number of Bonds generated:                                         9
 GENERATE|  Preliminary Number of Bends generated:                            15
 GENERATE|  Number of Bends generated:                                        15
 GENERATE|  Number of UB generated:                                           15
 GENERATE|  Preliminary Number of Torsions generated:                         12
 GENERATE|  Number of Torsions generated:                                     12
 GENERATE|  Number of Impropers generated:                                     5

 *******************************************************************************
 *******************************************************************************
 **                                                                           **
 **     #####                         ##              ##                      **
 **    ##   ##            ##          ##              ##                      **
 **   ##     ##                       ##            ######                    **
 **   ##     ##  ##   ##  ##   #####  ##  ##   ####   ##    #####    #####    **
 **   ##     ##  ##   ##  ##  ##      ## ##   ##      ##   ##   ##  ##   ##   **
 **   ##  ## ##  ##   ##  ##  ##      ####     ###    ##   ######   ######    **
 **    ##  ###   ##   ##  ##  ##      ## ##      ##   ##   ##       ##        **
 **     #######   #####   ##   #####  ##  ##  ####    ##    #####   ##        **
 **           ##                                                    ##        **
 **                                                                           **
 **                                                ... make the atoms dance   **
 **                                                                           **
 **            Copyright (C) by CP2K developers group (2000 - 2020)           **
 **                      J. Chem. Phys. 152, 194103 (2020)                    **
 **                                                                           **
 *******************************************************************************


 TOTAL NUMBERS AND MAXIMUM NUMBERS

  Total number of            - Atomic kinds:                                   2
                             - Atoms:                                          8
                             - Shell sets:                                   112
                             - Shells:                                       192
                             - Primitive Cartesian functions:                112
                             - Cartesian basis functions:                    832
                             - Spherical basis functions:                    672

  Maximum angular momentum of- Orbital basis functions:                        3
                             - Local part of the GTH pseudopotential:          6


 SCF PARAMETERS         Density guess:                                    ATOMIC
                        --------------------------------------------------------
                        max_scf:                                              10
                        max_scf_history:                                       0
                        max_diis:                                              4
                        --------------------------------------------------------
                        eps_scf:                                        1.00E-07
                        eps_scf_history:                                0.00E+00
                        eps_diis:                                       1.00E-01
                        eps_eigval:                                     1.00E-05
                        --------------------------------------------------------
                        level_shift [a.u.]:                                 0.00
                        --------------------------------------------------------
                        Outer loop SCF in use 
                        No variables optimised in outer loop
                        eps_scf                                         1.00E-07
                        max_scf                                               10
                        No outer loop optimization
                        step_size                                       5.00E-01

 Number of electrons:                                                         16
 Number of occupied orbitals:                                                  8
 Number of molecular orbitals:                                                 8

 Number of orbital functions:                                                672
 Number of independent orbital functions:                                    672

 Extrapolation method: initial_guess


 SCF WAVEFUNCTION OPTIMIZATION

  ----------------------------------- OT ---------------------------------------
  Minimizer      : DIIS                : direct inversion
                                         in the iterative subspace
                                         using   7 DIIS vectors
                                         safer DIIS on
  Preconditioner : FULL_ALL            : diagonalization, state selective
  Precond_solver : DEFAULT
  stepsize       :    0.15000000                  energy_gap     :    0.08000000
  eps_taylor     :   0.10000E-15                  max_taylor     :             4
  ----------------------------------- OT ---------------------------------------

  Step     Update method      Time    Convergence         Total energy    Change
  ------------------------------------------------------------------------------
     1 OT DIIS     0.15E+00   59.2     0.06303291       -30.4282669245 -3.04E+01
     2 OT DIIS     0.15E+00   41.8     0.01503247       -32.1429003349 -1.71E+00
     3 OT DIIS     0.15E+00   41.8     0.00642433       -32.2485195396 -1.06E-01
     4 OT DIIS     0.15E+00   41.8     0.00314472       -32.2730757156 -2.46E-02
     5 OT DIIS     0.15E+00   41.7     0.00143521       -32.2803561080 -7.28E-03
     6 OT DIIS     0.15E+00   41.8     0.00069903       -32.2820433888 -1.69E-03
     7 OT DIIS     0.15E+00   41.8     0.00031902       -32.2825067852 -4.63E-04
     8 OT DIIS     0.15E+00   41.8     0.00010131       -32.2825876436 -8.09E-05
     9 OT DIIS     0.15E+00   41.8     0.00003227       -32.2825947078 -7.06E-06
    10 OT DIIS     0.15E+00   41.8     0.00001243       -32.2825956722 -9.64E-07

  Leaving inner SCF loop after reaching    10 steps.


  Electronic density on regular grids:        -16.0000000127       -0.0000000127
  Core density on regular grids:               16.0000000000       -0.0000000000
  Total charge density on r-space grids:       -0.0000000127
  Total charge density g-space grids:          -0.0000000127

  Overlap energy of the core charge distribution:               0.00000000000002
  Self energy of the core charge distribution:                -31.02087883916039
  Core Hamiltonian energy:                                      3.18601499524881
  Hartree energy:                                               4.35921641667422
  Exchange-correlation energy:                                 -6.67159266864415
  Hartree-Fock Exchange energy:                                -2.13535557636764

  Total energy:                                               -32.28259567224914

  outer SCF iter =    1 RMS gradient =   0.12E-04 energy =        -32.2825956722

  ----------------------------------- OT ---------------------------------------
  Minimizer      : DIIS                : direct inversion
                                         in the iterative subspace
                                         using   7 DIIS vectors
                                         safer DIIS on
  Preconditioner : FULL_ALL            : diagonalization, state selective
  Precond_solver : DEFAULT
  stepsize       :    0.15000000                  energy_gap     :    0.08000000
  eps_taylor     :   0.10000E-15                  max_taylor     :             4
  ----------------------------------- OT ---------------------------------------

  Step     Update method      Time    Convergence         Total energy    Change
  ------------------------------------------------------------------------------
     1 OT DIIS     0.15E+00   83.7     0.00000548       -32.2825958244 -1.52E-07
     2 OT DIIS     0.15E+00   41.9     0.00000260       -32.2825958422 -1.78E-08
     3 OT DIIS     0.15E+00   41.9     0.00000021       -32.2825958474 -5.23E-09
     4 OT DIIS     0.15E+00   42.0     0.00000006       -32.2825958475 -3.19E-11

  *** SCF run converged in     4 steps ***


  Electronic density on regular grids:        -16.0000000127       -0.0000000127
  Core density on regular grids:               16.0000000000       -0.0000000000
  Total charge density on r-space grids:       -0.0000000127
  Total charge density g-space grids:          -0.0000000127

  Overlap energy of the core charge distribution:               0.00000000000002
  Self energy of the core charge distribution:                -31.02087883916039
  Core Hamiltonian energy:                                      3.18601384325117
  Hartree energy:                                               4.35924148109517
  Exchange-correlation energy:                                 -6.67160950207748
  Hartree-Fock Exchange energy:                                -2.13536283058913

  Total energy:                                               -32.28259584748064

  outer SCF iter =    2 RMS gradient =   0.62E-07 energy =        -32.2825958475
  outer SCF loop converged in   2 iterations or   14 steps


 ENERGY| Total FORCE_EVAL ( QS ) energy [a.u.]:              -32.282595847480643

 -------------------------------------------------------------------------------
 -                                                                             -
 -                                DBCSR STATISTICS                             -
 -                                                                             -
 -------------------------------------------------------------------------------
 COUNTER                                    TOTAL       BLAS       SMM       ACC
 flops     8 x     8 x     8                90112       0.0%    100.0%      0.0%
 flops     8 x     8 x   136              2019328       0.0%    100.0%      0.0%
 flops   136 x     8 x     8              2506752       0.0%    100.0%      0.0%
 flops     8 x     8 x   100              2969600       0.0%    100.0%      0.0%
 flops   100 x     8 x     8              3686400       0.0%    100.0%      0.0%
 flops    68 x    68 x     8             11097600       0.0%    100.0%      0.0%
 flops    68 x   100 x     8             13056000       0.0%    100.0%      0.0%
 flops   100 x    68 x     8             13056000       0.0%    100.0%      0.0%
 flops   100 x   100 x     8             24000000       0.0%    100.0%      0.0%
 flops   136 x     8 x   136             37879808       0.0%    100.0%      0.0%
 flops    68 x     8 x    68             49717248       0.0%    100.0%      0.0%
 flops   100 x     8 x   136             55705600       0.0%    100.0%      0.0%
 flops   136 x     8 x   100             55705600       0.0%    100.0%      0.0%
 flops   100 x     8 x    68             73113600       0.0%    100.0%      0.0%
 flops    68 x     8 x   100             73113600       0.0%    100.0%      0.0%
 flops   100 x     8 x   100            189440000       0.0%    100.0%      0.0%
 flops inhomo. stacks                           0       0.0%      0.0%      0.0%
 flops total                       607.157248E+06       0.0%    100.0%      0.0%
 flops max/rank                    111.093504E+06       0.0%    100.0%      0.0%
 matmuls inhomo. stacks                         0       0.0%      0.0%      0.0%
 matmuls total                               5248       0.0%    100.0%      0.0%
 number of processed stacks                  3982       0.0%    100.0%      0.0%
 average stack size                                     0.0       1.3       0.0
 marketing flops                   654.499008E+06
 -------------------------------------------------------------------------------
 # multiplications                            309
 max memory usage/rank               1.207615E+09
 # max total images/rank                        1
 # max 3D layers                                1
 # MPI messages exchanged                  111240
 MPI messages size (bytes):
  total size                         1.400115E+09
  min size                           0.000000E+00
  max size                         147.968000E+03
  average size                      12.586437E+03
 MPI breakdown and total messages size (bytes):
             size <=      128               87920                        0
       128 < size <=     8192                7080                 38010880
      8192 < size <=    32768                2920                 25415680
     32768 < size <=   131072               11840               1117696000
    131072 < size <=  4194304                1480                218992640
   4194304 < size <= 16777216                   0                        0
  16777216 < size                               0                        0
 -------------------------------------------------------------------------------
 -                                                                             -
 -                      DBCSR MESSAGE PASSING PERFORMANCE                      -
 -                                                                             -
 -------------------------------------------------------------------------------
 ROUTINE             CALLS      AVE VOLUME [Bytes]
 MP_Bcast               17                     12.
 MP_Allreduce         1668                      8.
 MP_Alltoall          1386                   4441.
 MP_ISend             7408                   5326.
 MP_IRecv             7408                   5567.
 -------------------------------------------------------------------------------

 -------------------------------------------------------------------------------
 -                                                                             -
 -                                GRID STATISTICS                              -
 -                                                                             -
 -------------------------------------------------------------------------------
 LP    KERNEL    OPERATION                                     COUNT     PERCENT
 0     general   collocate                                       288       0.15%
 0     ortho     integrate                                     35252      18.30%
 0     ortho     collocate                                     37770      19.60%
 3     ortho     integrate                                     44968      23.34%
 3     ortho     collocate                                     48180      25.01%
 6     ortho     integrate                                     12656       6.57%
 6     ortho     collocate                                     13560       7.04%
 -------------------------------------------------------------------------------

 MEMORY| Estimated peak process memory [MiB]                                1152

 -------------------------------------------------------------------------------
 -                                                                             -
 -                         MESSAGE PASSING PERFORMANCE                         -
 -                                                                             -
 -------------------------------------------------------------------------------

 ROUTINE             CALLS      AVE VOLUME [Bytes]
 MP_Group                5
 MP_Bcast              256                 692810.
 MP_Allreduce          751                   1867.
 MP_Sync                91
 MP_Alltoall           286                6133263.
 MP_ISendRecv         4095                 112808.
 MP_Wait              5385
 MP_comm_split          14
 MP_ISend             1200                 254016.
 MP_IRecv             1200                 254016.
 MP_Recv                 3                  10752.
 -------------------------------------------------------------------------------


 -------------------------------------------------------------------------------
 -                                                                             -
 -                           R E F E R E N C E S                               -
 -                                                                             -
 -------------------------------------------------------------------------------
 
 CP2K version 8.0 (Development Version), the CP2K developers group (2020).
 CP2K is freely available from https://www.cp2k.org/ .

 Kuehne,Thomas D.; Iannuzzi,Marcella; Del Ben,Mauro;
 Rybkin,Vladimir V.; Seewald,Patrick; Stein,Frederick; Laino,Teodoro;
 Khaliullin,Rustam Z.; Schuett,Ole; Schiffmann,Florian; Golze,Dorothea;
 Wilhelm,Jan; Chulkov,Sergey; Bani-Hashemian,Mohammad Hossein;
 Weber,Valery; Borstnik,Urban; Taillefumier,Mathieu;
 Jakobovits,Alice Shoshana; Lazzaro,Alfio; Pabst,Hans; Mueller,Tiziano;
 Schade,Robert; Guidon,Manuel; Andermatt,Samuel; Holmberg,Nico;
 Schenter,Gregory K.; Hehn,Anna; Bussy,Augustin; Belleflamme,Fabian;
 Tabacchi,Gloria; Gloess,Andreas; Lass,Michael; Bethune,Iain;
 Mundy,Christopher J.; Plessl,Christian; Watkins,Matt;
 VandeVondele,Joost; Krack,Matthias; Hutter,Juerg. 
 The Journal of Chemical Physics, 152 (19), (2020). 
 CP2K: An electronic structure and molecular dynamics software package -
 Quickstep: Efficient and accurate electronic structure calculations.
 https://doi.org/10.1063/5.0007045

 Schuett, Ole; Messmer, Peter; Hutter, Juerg; VandeVondele, Joost. 
 Electronic Structure Calculations on Graphics Processing Units, John
 Wiley & Sons, Ltd, 173-190 (2016). 
 GPU-Accelerated Sparse Matrix-Matrix Multiplication for
 Linear Scaling Density Functional Theory.
 https://doi.org/10.1002/9781118670712.ch8

 Borstnik, U; VandeVondele, J; Weber, V; Hutter, J. 
 PARALLEL COMPUTING, 40 (5-6), 47-58 (2014). 
 Sparse matrix multiplication: The distributed block-compressed sparse
 row library.
 https://doi.org/10.1016/j.parco.2014.03.012

 Hutter, J; Iannuzzi, M; Schiffmann, F; VandeVondele, J. 
 WIREs Comput Mol Sci., 4 (1), 15-25 (2014). 
 CP2K: atomistic simulations of condensed matter systems.
 https://doi.org/10.1002/wcms.1159

 Marek, A; Blum, V; Johanni, R; Havu, V; Lang, B; Auckenthaler, T;
 Heinecke, A; Bungartz, H; Lederer, H. 
 Journal of Physics: Condensed Matter, 26 (21), (2014). 
 The ELPA library: scalable parallel eigenvalue solutions for
 electronic structure
 theory and computational science.
 https://doi.org/10.1088/0953-8984/26/21/213201

 Guidon, M; Hutter, J; VandeVondele, J. 
 JOURNAL OF CHEMICAL THEORY AND COMPUTATION, 5 (11), 3010-3021 (2009). 
 Robust Periodic Hartree-Fock Exchange for Large-Scale Simulations Using
 Gaussian Basis Sets.
 https://doi.org/10.1021/ct900494g

 Guidon, M; Schiffmann, F; Hutter, J; VandeVondele, J. 
 JOURNAL OF CHEMICAL PHYSICS, 128 (21), 214104 (2008). 
 Ab initio molecular dynamics using hybrid density functionals.
 https://doi.org/10.1063/1.2931945

 Krack, M. 
 THEORETICAL CHEMISTRY ACCOUNTS, 114 (1-3), 145-152 (2005). 
 Pseudopotentials for H to Kr optimized for gradient-corrected
 exchange-correlation functionals.
 https://doi.org/10.1007/s00214-005-0655-y

 VandeVondele, J; Krack, M; Mohamed, F; Parrinello, M; Chassaing, T;
 Hutter, J. COMPUTER PHYSICS COMMUNICATIONS, 167 (2), 103-128 (2005). 
 QUICKSTEP: Fast and accurate density functional calculations using a
 mixed Gaussian and plane waves approach.
 https://doi.org/10.1016/j.cpc.2004.12.014

 Frigo, M; Johnson, SG. 
 PROCEEDINGS OF THE IEEE, 93 (2), 216-231 (2005). 
 The design and implementation of FFTW3.
 https://doi.org/10.1109/JPROC.2004.840301

 VandeVondele, J; Hutter, J. 
 JOURNAL OF CHEMICAL PHYSICS, 118 (10), 4365-4369 (2003). 
 An efficient orbital transformation method for electronic structure
 calculations.
 https://doi.org/10.1063/1.1543154

 Martyna, GJ; Tuckerman, ME. 
 JOURNAL OF CHEMICAL PHYSICS, 110 (6), 2810-2821 (1999). 
 A reciprocal space based method for treating long range interactions in
 ab initio and force-field-based calculations in clusters.
 https://doi.org/10.1063/1.477923

 Hartwigsen, C; Goedecker, S; Hutter, J. 
 PHYSICAL REVIEW B, 58 (7), 3641-3662 (1998). 
 Relativistic separable dual-space Gaussian pseudopotentials from H to Rn.
 https://doi.org/10.1103/PhysRevB.58.3641

 Lippert, G; Hutter, J; Parrinello, M. 
 MOLECULAR PHYSICS, 92 (3), 477-487 (1997). 
 A hybrid Gaussian and plane wave density functional scheme.
 https://doi.org/10.1080/002689797170220

 Perdew, JP; Burke, K; Ernzerhof, M. 
 PHYSICAL REVIEW LETTERS, 77 (18), 3865-3868 (1996). 
 Generalized gradient approximation made simple.
 https://doi.org/10.1103/PhysRevLett.77.3865

 Goedecker, S; Teter, M; Hutter, J. 
 PHYSICAL REVIEW B, 54 (3), 1703-1710 (1996). 
 Separable dual-space Gaussian pseudopotentials.
 https://doi.org/10.1103/PhysRevB.54.1703


 -------------------------------------------------------------------------------
 -                                                                             -
 -                                T I M I N G                                  -
 -                                                                             -
 -------------------------------------------------------------------------------
 SUBROUTINE                       CALLS  ASD         SELF TIME        TOTAL TIME
                                MAXIMUM       AVERAGE  MAXIMUM  AVERAGE  MAXIMUM
 CP2K                                 1  1.0    0.096    0.125  603.759  603.768
 qs_energies                          1  2.0    0.000    0.000  603.405  603.414
 scf_env_do_scf                       1  3.0    0.000    0.000  603.175  603.184
 qs_ks_update_qs_env                 16  5.0    0.000    0.000  600.787  600.796
 rebuild_ks_matrix                   14  6.0    0.000    0.000  600.785  600.794
 qs_ks_build_kohn_sham_matrix        14  7.0    0.003    0.003  600.785  600.794
 hfx_ks_matrix                       14  8.0    0.001    0.001  595.463  595.472
 integrate_four_center               14  9.0    0.018    0.020  595.461  595.470
 integrate_four_center_main          14 10.0    0.003    0.004  560.883  585.880
 integrate_four_center_bin         1526 11.0  560.880  585.878  560.880  585.878
 scf_env_do_scf_inner_loop           14  4.0    0.001    0.002  502.223  502.230
 init_scf_loop                        2  4.0    0.000    0.000  100.952  100.953
 mp_sync                             91 10.8   25.143   61.048   25.143   61.048
 -------------------------------------------------------------------------------

 The number of warnings for this run is : 0
 
 -------------------------------------------------------------------------------
  **** **** ******  **  PROGRAM ENDED AT                 2020-12-03 15:05:38.021
 ***** ** ***  *** **   PROGRAM RAN ON                                   tcopt10
 **    ****   ******    PROGRAM RAN BY                                    hutter
 ***** **    ** ** **   PROGRAM PROCESS ID                                 92748
  **** **  *******  **  PROGRAM STOPPED IN /data/hutter/GITHUB/BASIS/MOLOPT/PBE0
                                           /Li
