 DBCSR| CPU Multiplication driver                                           XSMM
 DBCSR| Multrec recursion limit                                              512
 DBCSR| Multiplication stack size                                           1000
 DBCSR| Maximum elements for images                                    UNLIMITED
 DBCSR| Multiplicative factor virtual images                                   1
 DBCSR| Use multiplication densification                                       T
 DBCSR| Multiplication size stacks                                             3
 DBCSR| Use memory pool for CPU allocation                                     F
 DBCSR| Number of 3D layers                                               SINGLE
 DBCSR| Use MPI memory allocation                                              F
 DBCSR| Use RMA algorithm                                                      F
 DBCSR| Use Communication thread                                               T
 DBCSR| Communication thread load                                             87
 DBCSR| Split modifier for TAS multiplication algorithm                  1.0E+00


  **** **** ******  **  PROGRAM STARTED AT               2020-12-03 15:29:54.615
 ***** ** ***  *** **   PROGRAM STARTED ON                               tcopt10
 **    ****   ******    PROGRAM STARTED BY                                hutter
 ***** **    ** ** **   PROGRAM PROCESS ID                                  9678
  **** **  *******  **  PROGRAM STARTED IN /data/hutter/GITHUB/BASIS/MOLOPT/PBE0
                                           /Li

 CP2K| version string:                    CP2K version 8.0 (Development Version)
 CP2K| source code revision number:                                  git:afc71fa
 CP2K| cp2kflags: omp libint fftw3 libxc elpa parallel mpi3 scalapack xsmm spgli
 CP2K|            b sirius
 CP2K| is freely available from                            https://www.cp2k.org/
 CP2K| Program compiled at                          Tue Nov 17 10:27:14 CET 2020
 CP2K| Program compiled on                                               tcopt10
 CP2K| Program compiled for                                                local
 CP2K| Data directory path                 /data/hutter/GITHUB/CURRENT/cp2k/data
 CP2K| Input file name                                               Li8-ref.inp

 GLOBAL| Force Environment number                                              1
 GLOBAL| Basis set file name                                  ../PBE0_UCSEGBASIS
 GLOBAL| Potential file name                                        ../POTENTIAL
 GLOBAL| MM Potential file name                                     MM_POTENTIAL
 GLOBAL| Coordinate file name                                      __STD_INPUT__
 GLOBAL| Method name                                                        CP2K
 GLOBAL| Project name                                                   refLi8q3
 GLOBAL| Preferred FFT library                                             FFTW3
 GLOBAL| Preferred diagonalization lib.                                     ELPA
 GLOBAL| Run type                                                         ENERGY
 GLOBAL| All-to-all communication in single precision                          F
 GLOBAL| FFTs using library dependent lengths                                  F
 GLOBAL| Global print level                                                  LOW
 GLOBAL| MPI I/O enabled                                                       T
 GLOBAL| Total number of message passing processes                            36
 GLOBAL| Number of threads for this process                                    1
 GLOBAL| This output is from process                                           0
 GLOBAL| CPU model name                          AMD EPYC 7401 24-Core Processor
 GLOBAL| CPUID                                                              1002

 MEMORY| system memory details [Kb]
 MEMORY|                        rank 0           min           max       average
 MEMORY| MemTotal            263987256     263987256     263987256     263987256
 MEMORY| MemFree             238172948     238172948     238172948     238172948
 MEMORY| Buffers                    32            32            32            32
 MEMORY| Cached               21343228      21343228      21343228      21343228
 MEMORY| Slab                  1404852       1404852       1404852       1404852
 MEMORY| SReclaimable           727560        727560        727560        727560
 MEMORY| MemLikelyFree       260243768     260243768     260243768     260243768


 GENERATE|  Preliminary Number of Bonds generated:                             0
 GENERATE|  Achieved consistency in connectivity generation.

 *******************************************************************************
 *******************************************************************************
 **                                                                           **
 **     #####                         ##              ##                      **
 **    ##   ##            ##          ##              ##                      **
 **   ##     ##                       ##            ######                    **
 **   ##     ##  ##   ##  ##   #####  ##  ##   ####   ##    #####    #####    **
 **   ##     ##  ##   ##  ##  ##      ## ##   ##      ##   ##   ##  ##   ##   **
 **   ##  ## ##  ##   ##  ##  ##      ####     ###    ##   ######   ######    **
 **    ##  ###   ##   ##  ##  ##      ## ##      ##   ##   ##       ##        **
 **     #######   #####   ##   #####  ##  ##  ####    ##    #####   ##        **
 **           ##                                                    ##        **
 **                                                                           **
 **                                                ... make the atoms dance   **
 **                                                                           **
 **            Copyright (C) by CP2K developers group (2000 - 2020)           **
 **                      J. Chem. Phys. 152, 194103 (2020)                    **
 **                                                                           **
 *******************************************************************************


 TOTAL NUMBERS AND MAXIMUM NUMBERS

  Total number of            - Atomic kinds:                                   1
                             - Atoms:                                          8
                             - Shell sets:                                   128
                             - Shells:                                       224
                             - Primitive Cartesian functions:                128
                             - Cartesian basis functions:                    992
                             - Spherical basis functions:                    800

  Maximum angular momentum of- Orbital basis functions:                        3
                             - Local part of the GTH pseudopotential:          6


 SCF PARAMETERS         Density guess:                                    ATOMIC
                        --------------------------------------------------------
                        max_scf:                                              10
                        max_scf_history:                                       0
                        max_diis:                                              4
                        --------------------------------------------------------
                        eps_scf:                                        1.00E-07
                        eps_scf_history:                                0.00E+00
                        eps_diis:                                       1.00E-01
                        eps_eigval:                                     1.00E-05
                        --------------------------------------------------------
                        level_shift [a.u.]:                                 0.00
                        --------------------------------------------------------
                        Outer loop SCF in use 
                        No variables optimised in outer loop
                        eps_scf                                         1.00E-07
                        max_scf                                               10
                        No outer loop optimization
                        step_size                                       5.00E-01

 Number of electrons:                                                         24
 Number of occupied orbitals:                                                 12
 Number of molecular orbitals:                                                12

 Number of orbital functions:                                                800
 Number of independent orbital functions:                                    800

 Extrapolation method: initial_guess


 SCF WAVEFUNCTION OPTIMIZATION

  ----------------------------------- OT ---------------------------------------
  Minimizer      : DIIS                : direct inversion
                                         in the iterative subspace
                                         using   7 DIIS vectors
                                         safer DIIS on
  Preconditioner : FULL_ALL            : diagonalization, state selective
  Precond_solver : DEFAULT
  stepsize       :    0.15000000                  energy_gap     :    0.08000000
  eps_taylor     :   0.10000E-15                  max_taylor     :             4
  ----------------------------------- OT ---------------------------------------

  Step     Update method      Time    Convergence         Total energy    Change
  ------------------------------------------------------------------------------
     1 OT DIIS     0.15E+00   97.9     0.09237680       -55.8550508459 -5.59E+01
     2 OT DIIS     0.15E+00    9.8     0.01378619       -55.2379284258  6.17E-01
     3 OT DIIS     0.15E+00    8.7     0.03811138       -55.5882423223 -3.50E-01
     4 OT SD       0.15E+00    8.7     0.07393792       -56.5873621458 -9.99E-01
     5 OT DIIS     0.15E+00    8.8     0.07044237       -56.3562320014  2.31E-01
     6 OT SD       0.15E+00    8.8     0.06663885       -58.3322849304 -1.98E+00
     7 OT DIIS     0.15E+00    8.8     0.04336751       -55.6794916458  2.65E+00
     8 OT DIIS     0.15E+00    8.9     0.07838973       -57.1483610098 -1.47E+00
     9 OT DIIS     0.15E+00    8.9     0.07919710       -57.3092658489 -1.61E-01
    10 OT DIIS     0.15E+00    8.8     0.06328354       -58.5511489251 -1.24E+00

  Leaving inner SCF loop after reaching    10 steps.


  Electronic density on regular grids:        -24.0000000016       -0.0000000016
  Core density on regular grids:               24.0000000000        0.0000000000
  Total charge density on r-space grids:       -0.0000000016
  Total charge density g-space grids:          -0.0000000016

  Overlap energy of the core charge distribution:               0.00000000000000
  Self energy of the core charge distribution:                -50.78584676312289
  Core Hamiltonian energy:                                      2.92182693038655
  Hartree energy:                                               3.60666237712732
  Exchange-correlation energy:                                -10.86994588697139
  Hartree-Fock Exchange energy:                                -3.42384558255794

  Total energy:                                               -58.55114892513837

  outer SCF iter =    1 RMS gradient =   0.63E-01 energy =        -58.5511489251

  ----------------------------------- OT ---------------------------------------
  Minimizer      : DIIS                : direct inversion
                                         in the iterative subspace
                                         using   7 DIIS vectors
                                         safer DIIS on
  Preconditioner : FULL_ALL            : diagonalization, state selective
  Precond_solver : DEFAULT
  stepsize       :    0.15000000                  energy_gap     :    0.08000000
  eps_taylor     :   0.10000E-15                  max_taylor     :             4
  ----------------------------------- OT ---------------------------------------

  Step     Update method      Time    Convergence         Total energy    Change
  ------------------------------------------------------------------------------
     1 OT DIIS     0.15E+00   17.7     0.02909531       -58.7265638960 -1.75E-01
     2 OT DIIS     0.15E+00    8.9     0.00585060       -59.4795733888 -7.53E-01
     3 OT DIIS     0.15E+00    8.8     0.00187834       -59.5090642768 -2.95E-02
     4 OT DIIS     0.15E+00    8.8     0.00174913       -59.5139777652 -4.91E-03
     5 OT SD       0.15E+00    8.9     0.00177033       -59.5152335552 -1.26E-03
     6 OT SD       0.15E+00    8.9     0.00202787       -59.5198562642 -4.62E-03
     7 OT SD       0.15E+00    8.8     0.68897135       -59.7319705114 -2.12E-01
     8 OT DIIS     0.15E+00    8.8  7547.64021608   -546434.5575195362 -5.46E+05
     9 OT SD       0.15E+00    8.8     0.00214245       -59.5091540667  5.46E+05
    10 OT DIIS     0.15E+00    8.9     8.26124672       -55.8229961044  3.69E+00

  Leaving inner SCF loop after reaching    10 steps.


  Electronic density on regular grids:        -24.0000000012       -0.0000000012
  Core density on regular grids:               24.0000000000        0.0000000000
  Total charge density on r-space grids:       -0.0000000012
  Total charge density g-space grids:          -0.0000000012

  Overlap energy of the core charge distribution:               0.00000000000000
  Self energy of the core charge distribution:                -50.78584676312289
  Core Hamiltonian energy:                                      2.27523802187716
  Hartree energy:                                               3.41878617823708
  Exchange-correlation energy:                                -10.92241460271926
  Hartree-Fock Exchange energy:                                 0.19124106130766

  Total energy:                                               -55.82299610442025

  outer SCF iter =    2 RMS gradient =   0.83E+01 energy =        -55.8229961044

  ----------------------------------- OT ---------------------------------------
  Minimizer      : DIIS                : direct inversion
                                         in the iterative subspace
                                         using   7 DIIS vectors
                                         safer DIIS on
  Preconditioner : FULL_ALL            : diagonalization, state selective
  Precond_solver : DEFAULT
  stepsize       :    0.15000000                  energy_gap     :    0.08000000
  eps_taylor     :   0.10000E-15                  max_taylor     :             4
  ----------------------------------- OT ---------------------------------------

  Step     Update method      Time    Convergence         Total energy    Change
  ------------------------------------------------------------------------------
     1 OT DIIS     0.15E+00   17.9     0.00490593       -59.4996053018 -3.68E+00
     2 OT DIIS     0.15E+00    8.9     0.18939977       -59.4463229207  5.33E-02
     3 OT SD       0.15E+00    8.9     0.07747713       -59.5694477564 -1.23E-01
     4 OT DIIS     0.15E+00    8.7   257.26494982     -2798.5886264687 -2.74E+03
     5 OT DIIS     0.15E+00    8.8     0.01877075       -59.5141642260  2.74E+03
     6 OT SD       0.15E+00    8.9     0.05849301       -59.5467176219 -3.26E-02
     7 OT DIIS     0.15E+00    8.8   248.15083407     -3210.8692948412 -3.15E+03
     8 OT DIIS     0.15E+00    8.9     0.03850948       -59.5262382388  3.15E+03
     9 OT SD       0.15E+00    8.9     2.41986890       -65.4425180902 -5.92E+00
    10 OT DIIS     0.15E+00    8.8   168.45111675     -8487.4795805696 -8.42E+03

  Leaving inner SCF loop after reaching    10 steps.


  Electronic density on regular grids:        -24.0000007511       -0.0000007511
  Core density on regular grids:               24.0000000000        0.0000000000
  Total charge density on r-space grids:       -0.0000007511
  Total charge density g-space grids:          -0.0000007511

  Overlap energy of the core charge distribution:               0.00000000000000
  Self energy of the core charge distribution:                -50.78584676312289
  Core Hamiltonian energy:                                      5.11338473681826
  Hartree energy:                                              11.42637314998384
  Exchange-correlation energy:                                 -8.21922805529008
  Hartree-Fock Exchange energy:                             -8445.01426363794599

  Total energy:                                             -8487.47958056955758

  outer SCF iter =    3 RMS gradient =   0.17E+03 energy =      -8487.4795805696

  ----------------------------------- OT ---------------------------------------
  Minimizer      : DIIS                : direct inversion
                                         in the iterative subspace
                                         using   7 DIIS vectors
                                         safer DIIS on
  Preconditioner : FULL_ALL            : diagonalization, state selective
  Precond_solver : DEFAULT
  stepsize       :    0.15000000                  energy_gap     :    0.08000000
  eps_taylor     :   0.10000E-15                  max_taylor     :             4
  ----------------------------------- OT ---------------------------------------

  Step     Update method      Time    Convergence         Total energy    Change
  ------------------------------------------------------------------------------
     1 OT DIIS     0.15E+00   17.8     0.07147984       -58.2511233147  8.43E+03
     2 OT DIIS     0.15E+00    8.9     0.23912898       -60.8585941415 -2.61E+00
     3 OT SD       0.15E+00    8.9     0.44604332       -68.4896271401 -7.63E+00
     4 OT DIIS     0.15E+00    8.9    49.08533028     -7024.9169063900 -6.96E+03
     5 OT DIIS     0.15E+00    8.9     0.19393685       -62.3902435748  6.96E+03
     6 OT SD       0.15E+00    8.9     0.45223895       -67.4654516237 -5.08E+00
     7 OT DIIS     0.15E+00    8.8    57.30401937     -5732.3854669162 -5.66E+03
     8 OT DIIS     0.15E+00    8.7     0.16088477       -61.8364944370  5.67E+03
     9 OT SD       0.15E+00    8.9     3.21532088      -149.0403418302 -8.72E+01
    10 OT DIIS     0.15E+00    8.9    50.11920579    -12601.7529455172 -1.25E+04

  Leaving inner SCF loop after reaching    10 steps.


  Electronic density on regular grids:        -23.9999997206        0.0000002794
  Core density on regular grids:               24.0000000000        0.0000000000
  Total charge density on r-space grids:        0.0000002794
  Total charge density g-space grids:           0.0000002794

  Overlap energy of the core charge distribution:               0.00000000000000
  Self energy of the core charge distribution:                -50.78584676312289
  Core Hamiltonian energy:                                      5.25390370900277
  Hartree energy:                                               6.98474269656821
  Exchange-correlation energy:                                 -9.46571221384972
  Hartree-Fock Exchange energy:                            -12553.74003294581780

  Total energy:                                            -12601.75294551721890

  outer SCF iter =    4 RMS gradient =   0.50E+02 energy =     -12601.7529455172

  ----------------------------------- OT ---------------------------------------
  Minimizer      : DIIS                : direct inversion
                                         in the iterative subspace
                                         using   7 DIIS vectors
                                         safer DIIS on
  Preconditioner : FULL_ALL            : diagonalization, state selective
  Precond_solver : DEFAULT
  stepsize       :    0.15000000                  energy_gap     :    0.08000000
  eps_taylor     :   0.10000E-15                  max_taylor     :             4
  ----------------------------------- OT ---------------------------------------

  Step     Update method      Time    Convergence         Total energy    Change
  ------------------------------------------------------------------------------
     1 OT DIIS     0.15E+00   17.9     0.36950255      -109.2928585394  1.25E+04
 DBCSR| CPU Multiplication driver                                           XSMM
 DBCSR| Multrec recursion limit                                              512
 DBCSR| Multiplication stack size                                           1000
 DBCSR| Maximum elements for images                                    UNLIMITED
 DBCSR| Multiplicative factor virtual images                                   1
 DBCSR| Use multiplication densification                                       T
 DBCSR| Multiplication size stacks                                             3
 DBCSR| Use memory pool for CPU allocation                                     F
 DBCSR| Number of 3D layers                                               SINGLE
 DBCSR| Use MPI memory allocation                                              F
 DBCSR| Use RMA algorithm                                                      F
 DBCSR| Use Communication thread                                               T
 DBCSR| Communication thread load                                             87
 DBCSR| Split modifier for TAS multiplication algorithm                  1.0E+00


  **** **** ******  **  PROGRAM STARTED AT               2020-12-03 15:38:10.380
 ***** ** ***  *** **   PROGRAM STARTED ON                               tcopt10
 **    ****   ******    PROGRAM STARTED BY                                hutter
 ***** **    ** ** **   PROGRAM PROCESS ID                                 10507
  **** **  *******  **  PROGRAM STARTED IN /data/hutter/GITHUB/BASIS/MOLOPT/PBE0
                                           /Li

 CP2K| version string:                    CP2K version 8.0 (Development Version)
 CP2K| source code revision number:                                  git:afc71fa
 CP2K| cp2kflags: omp libint fftw3 libxc elpa parallel mpi3 scalapack xsmm spgli
 CP2K|            b sirius
 CP2K| is freely available from                            https://www.cp2k.org/
 CP2K| Program compiled at                          Tue Nov 17 10:27:14 CET 2020
 CP2K| Program compiled on                                               tcopt10
 CP2K| Program compiled for                                                local
 CP2K| Data directory path                 /data/hutter/GITHUB/CURRENT/cp2k/data
 CP2K| Input file name                                               Li8-ref.inp

 GLOBAL| Force Environment number                                              1
 GLOBAL| Basis set file name                                  ../PBE0_UCSEGBASIS
 GLOBAL| Potential file name                                        ../POTENTIAL
 GLOBAL| MM Potential file name                                     MM_POTENTIAL
 GLOBAL| Coordinate file name                                      __STD_INPUT__
 GLOBAL| Method name                                                        CP2K
 GLOBAL| Project name                                                   refLi8q3
 GLOBAL| Preferred FFT library                                             FFTW3
 GLOBAL| Preferred diagonalization lib.                                     ELPA
 GLOBAL| Run type                                                         ENERGY
 GLOBAL| All-to-all communication in single precision                          F
 GLOBAL| FFTs using library dependent lengths                                  F
 GLOBAL| Global print level                                                  LOW
 GLOBAL| MPI I/O enabled                                                       T
 GLOBAL| Total number of message passing processes                            36
 GLOBAL| Number of threads for this process                                    1
 GLOBAL| This output is from process                                           0
 GLOBAL| CPU model name                          AMD EPYC 7401 24-Core Processor
 GLOBAL| CPUID                                                              1002

 MEMORY| system memory details [Kb]
 MEMORY|                        rank 0           min           max       average
 MEMORY| MemTotal            263987256     263987256     263987256     263987256
 MEMORY| MemFree             238149580     238149580     238149580     238149580
 MEMORY| Buffers                    32            32            32            32
 MEMORY| Cached               21312424      21312424      21312424      21312424
 MEMORY| Slab                  1404276       1404276       1404276       1404276
 MEMORY| SReclaimable           727320        727320        727320        727320
 MEMORY| MemLikelyFree       260189356     260189356     260189356     260189356


 GENERATE|  Preliminary Number of Bonds generated:                             0
 GENERATE|  Achieved consistency in connectivity generation.

 *******************************************************************************
 *******************************************************************************
 **                                                                           **
 **     #####                         ##              ##                      **
 **    ##   ##            ##          ##              ##                      **
 **   ##     ##                       ##            ######                    **
 **   ##     ##  ##   ##  ##   #####  ##  ##   ####   ##    #####    #####    **
 **   ##     ##  ##   ##  ##  ##      ## ##   ##      ##   ##   ##  ##   ##   **
 **   ##  ## ##  ##   ##  ##  ##      ####     ###    ##   ######   ######    **
 **    ##  ###   ##   ##  ##  ##      ## ##      ##   ##   ##       ##        **
 **     #######   #####   ##   #####  ##  ##  ####    ##    #####   ##        **
 **           ##                                                    ##        **
 **                                                                           **
 **                                                ... make the atoms dance   **
 **                                                                           **
 **            Copyright (C) by CP2K developers group (2000 - 2020)           **
 **                      J. Chem. Phys. 152, 194103 (2020)                    **
 **                                                                           **
 *******************************************************************************


 TOTAL NUMBERS AND MAXIMUM NUMBERS

  Total number of            - Atomic kinds:                                   1
                             - Atoms:                                          8
                             - Shell sets:                                   128
                             - Shells:                                       224
                             - Primitive Cartesian functions:                128
                             - Cartesian basis functions:                    992
                             - Spherical basis functions:                    800

  Maximum angular momentum of- Orbital basis functions:                        3
                             - Local part of the GTH pseudopotential:          6


 SCF PARAMETERS         Density guess:                                    ATOMIC
                        --------------------------------------------------------
                        max_scf:                                              10
                        max_scf_history:                                       0
                        max_diis:                                              4
                        --------------------------------------------------------
                        eps_scf:                                        1.00E-07
                        eps_scf_history:                                0.00E+00
                        eps_diis:                                       1.00E-01
                        eps_eigval:                                     1.00E-05
                        --------------------------------------------------------
                        level_shift [a.u.]:                                 0.00
                        --------------------------------------------------------
                        Outer loop SCF in use 
                        No variables optimised in outer loop
                        eps_scf                                         1.00E-07
                        max_scf                                               10
                        No outer loop optimization
                        step_size                                       5.00E-01

 Number of electrons:                                                         24
 Number of occupied orbitals:                                                 12
 Number of molecular orbitals:                                                12

 Number of orbital functions:                                                800
 Number of independent orbital functions:                                    800

 Extrapolation method: initial_guess


 SCF WAVEFUNCTION OPTIMIZATION

  ----------------------------------- OT ---------------------------------------
  Minimizer      : DIIS                : direct inversion
                                         in the iterative subspace
                                         using   7 DIIS vectors
                                         safer DIIS on
  Preconditioner : FULL_ALL            : diagonalization, state selective
  Precond_solver : DEFAULT
  stepsize       :    0.15000000                  energy_gap     :    0.08000000
  eps_taylor     :   0.10000E-15                  max_taylor     :             4
  ----------------------------------- OT ---------------------------------------

  Step     Update method      Time    Convergence         Total energy    Change
  ------------------------------------------------------------------------------
     1 OT DIIS     0.15E+00  102.4     0.09237680       -55.8550508457 -5.59E+01
     2 OT DIIS     0.15E+00   28.6     0.01378619       -55.2379285187  6.17E-01
     3 OT DIIS     0.15E+00   27.8     0.03811138       -55.5882423641 -3.50E-01
     4 OT SD       0.15E+00   28.1     0.07393789       -56.5873598488 -9.99E-01
     5 OT DIIS     0.15E+00   27.8     0.07044251       -56.3562375971  2.31E-01
     6 OT SD       0.15E+00   28.1     0.06663904       -58.3322758711 -1.98E+00
     7 OT DIIS     0.15E+00   27.8     0.04336707       -55.6794851943  2.65E+00
     8 OT DIIS     0.15E+00   28.0     0.07838964       -57.1483354689 -1.47E+00
     9 OT DIIS     0.15E+00   27.8     0.07919708       -57.3092314235 -1.61E-01
    10 OT DIIS     0.15E+00   28.0     0.06328442       -58.5511158271 -1.24E+00

  Leaving inner SCF loop after reaching    10 steps.


  Electronic density on regular grids:        -24.0000000016       -0.0000000016
  Core density on regular grids:               24.0000000000        0.0000000000
  Total charge density on r-space grids:       -0.0000000016
  Total charge density g-space grids:          -0.0000000016

  Overlap energy of the core charge distribution:               0.00000000000000
  Self energy of the core charge distribution:                -50.78584676312289
  Core Hamiltonian energy:                                      2.92183434036699
  Hartree energy:                                               3.60667445925287
  Exchange-correlation energy:                                -10.86993718344475
  Hartree-Fock Exchange energy:                                -3.42384068016479

  Total energy:                                               -58.55111582711258

  outer SCF iter =    1 RMS gradient =   0.63E-01 energy =        -58.5511158271

  ----------------------------------- OT ---------------------------------------
  Minimizer      : DIIS                : direct inversion
                                         in the iterative subspace
                                         using   7 DIIS vectors
                                         safer DIIS on
  Preconditioner : FULL_ALL            : diagonalization, state selective
  Precond_solver : DEFAULT
  stepsize       :    0.15000000                  energy_gap     :    0.08000000
  eps_taylor     :   0.10000E-15                  max_taylor     :             4
  ----------------------------------- OT ---------------------------------------

  Step     Update method      Time    Convergence         Total energy    Change
  ------------------------------------------------------------------------------
     1 OT DIIS     0.15E+00   56.1     0.02909583       -58.7265442720 -1.75E-01
     2 OT DIIS     0.15E+00   28.0     0.00585044       -59.4795750019 -7.53E-01
     3 OT DIIS     0.15E+00   27.7     0.00187829       -59.5090641739 -2.95E-02
     4 OT DIIS     0.15E+00   28.0     0.00174890       -59.5139774151 -4.91E-03
     5 OT SD       0.15E+00   27.7     0.00176959       -59.5152356933 -1.26E-03
     6 OT SD       0.15E+00   28.0     0.00187782       -59.5198348250 -4.60E-03
     7 OT SD       0.15E+00   27.7     0.00203673       -59.5251218289 -5.29E-03
     8 OT SD       0.15E+00   27.9     0.00220425       -59.5313405326 -6.22E-03
     9 OT SD       0.15E+00   27.8     0.00236397       -59.5385944654 -7.25E-03
    10 OT SD       0.15E+00   27.9     0.00249748       -59.5468773985 -8.28E-03

  Leaving inner SCF loop after reaching    10 steps.


  Electronic density on regular grids:        -24.0000000015       -0.0000000015
  Core density on regular grids:               24.0000000000        0.0000000000
  Total charge density on r-space grids:       -0.0000000015
  Total charge density g-space grids:          -0.0000000015

  Overlap energy of the core charge distribution:               0.00000000000000
  Self energy of the core charge distribution:                -50.78584676312289
  Core Hamiltonian energy:                                      2.24695870757025
  Hartree energy:                                               3.42242854308995
  Exchange-correlation energy:                                -10.92813577352339
  Hartree-Fock Exchange energy:                                -3.50228211251432

  Total energy:                                               -59.54687739850040

  outer SCF iter =    2 RMS gradient =   0.25E-02 energy =        -59.5468773985

  ----------------------------------- OT ---------------------------------------
  Minimizer      : DIIS                : direct inversion
                                         in the iterative subspace
                                         using   7 DIIS vectors
                                         safer DIIS on
  Preconditioner : FULL_ALL            : diagonalization, state selective
  Precond_solver : DEFAULT
  stepsize       :    0.15000000                  energy_gap     :    0.08000000
  eps_taylor     :   0.10000E-15                  max_taylor     :             4
  ----------------------------------- OT ---------------------------------------

  Step     Update method      Time    Convergence         Total energy    Change
  ------------------------------------------------------------------------------
     1 OT DIIS     0.15E+00   55.9     0.00444947       -59.5560294997 -9.15E-03
     2 OT DIIS     0.15E+00   28.1     0.00447176       -59.5849016798 -2.89E-02
     3 OT DIIS     0.15E+00   27.9     0.00421466       -59.5959176021 -1.10E-02
     4 OT DIIS     0.15E+00   28.0     0.00217890       -59.6307720195 -3.49E-02
     5 OT DIIS     0.15E+00   28.0     0.00478305       -59.6147955395  1.60E-02
     6 OT DIIS     0.15E+00   28.0     0.00269679       -59.6295325467 -1.47E-02
     7 OT DIIS     0.15E+00   28.0     0.00106916       -59.6322525709 -2.72E-03
     8 OT DIIS     0.15E+00   27.9     0.00103418       -59.6324193167 -1.67E-04
     9 OT DIIS     0.15E+00   28.1     0.00044343       -59.6330055891 -5.86E-04
    10 OT DIIS     0.15E+00   27.9     0.00009382       -59.6331199823 -1.14E-04

  Leaving inner SCF loop after reaching    10 steps.


  Electronic density on regular grids:        -24.0000000015       -0.0000000015
  Core density on regular grids:               24.0000000000        0.0000000000
  Total charge density on r-space grids:       -0.0000000015
  Total charge density g-space grids:          -0.0000000015

  Overlap energy of the core charge distribution:               0.00000000000000
  Self energy of the core charge distribution:                -50.78584676312289
  Core Hamiltonian energy:                                      2.18833931023856
  Hartree energy:                                               3.40783398710391
  Exchange-correlation energy:                                -10.93538240168403
  Hartree-Fock Exchange energy:                                -3.50806411485324

  Total energy:                                               -59.63311998231768

  outer SCF iter =    3 RMS gradient =   0.94E-04 energy =        -59.6331199823

  ----------------------------------- OT ---------------------------------------
  Minimizer      : DIIS                : direct inversion
                                         in the iterative subspace
                                         using   7 DIIS vectors
                                         safer DIIS on
  Preconditioner : FULL_ALL            : diagonalization, state selective
  Precond_solver : DEFAULT
  stepsize       :    0.15000000                  energy_gap     :    0.08000000
  eps_taylor     :   0.10000E-15                  max_taylor     :             4
  ----------------------------------- OT ---------------------------------------

  Step     Update method      Time    Convergence         Total energy    Change
  ------------------------------------------------------------------------------
     1 OT DIIS     0.15E+00   56.2     0.00002054       -59.6331268074 -6.83E-06
     2 OT DIIS     0.15E+00   27.8     0.00001210       -59.6331272465 -4.39E-07
     3 OT DIIS     0.15E+00   28.1     0.00000821       -59.6331274128 -1.66E-07
     4 OT DIIS     0.15E+00   27.8     0.00000287       -59.6331274835 -7.06E-08
     5 OT DIIS     0.15E+00   28.1     0.00000073       -59.6331274899 -6.46E-09
     6 OT DIIS     0.15E+00   27.9     0.00000020       -59.6331274908 -8.45E-10
     7 OT DIIS     0.15E+00   28.0     0.00000005       -59.6331274908 -6.76E-11

  *** SCF run converged in     7 steps ***


  Electronic density on regular grids:        -24.0000000015       -0.0000000015
  Core density on regular grids:               24.0000000000        0.0000000000
  Total charge density on r-space grids:       -0.0000000015
  Total charge density g-space grids:          -0.0000000015

  Overlap energy of the core charge distribution:               0.00000000000000
  Self energy of the core charge distribution:                -50.78584676312289
  Core Hamiltonian energy:                                      2.18774721146413
  Hartree energy:                                               3.40795599814345
  Exchange-correlation energy:                                -10.93502857566685
  Hartree-Fock Exchange energy:                                -3.50795536165709

  Total energy:                                               -59.63312749083925

  outer SCF iter =    4 RMS gradient =   0.51E-07 energy =        -59.6331274908
  outer SCF loop converged in   4 iterations or   37 steps


 ENERGY| Total FORCE_EVAL ( QS ) energy [a.u.]:              -59.633127490839250

 -------------------------------------------------------------------------------
 -                                                                             -
 -                                DBCSR STATISTICS                             -
 -                                                                             -
 -------------------------------------------------------------------------------
 COUNTER                                    TOTAL       BLAS       SMM       ACC
 flops    12 x    12 x    12              1002240       0.0%    100.0%      0.0%
 flops    12 x    12 x   100             17510400       0.0%    100.0%      0.0%
 flops    12 x    12 x   200             17510400       0.0%    100.0%      0.0%
 flops   100 x    12 x    12             21772800       0.0%    100.0%      0.0%
 flops   200 x    12 x    12             21772800       0.0%    100.0%      0.0%
 flops   100 x    12 x   200            314880000       0.0%    100.0%      0.0%
 flops   200 x    12 x   200            314880000       0.0%    100.0%      0.0%
 flops   200 x    12 x   100            314880000       0.0%    100.0%      0.0%
 flops   100 x   100 x    12            328320000       0.0%    100.0%      0.0%
 flops   100 x    12 x   100           1850880000       0.0%    100.0%      0.0%
 flops inhomo. stacks                           0       0.0%      0.0%      0.0%
 flops total                         3.203409E+09       0.0%    100.0%      0.0%
 flops max/rank                    718.886400E+06       0.0%    100.0%      0.0%
 matmuls inhomo. stacks                         0       0.0%      0.0%      0.0%
 matmuls total                              13056       0.0%    100.0%      0.0%
 number of processed stacks                  9952       0.0%    100.0%      0.0%
 average stack size                                     0.0       1.3       0.0
 marketing flops                     3.459687E+09
 -------------------------------------------------------------------------------
 # multiplications                            855
 max memory usage/rank               6.922416E+09
 # max total images/rank                        1
 # max 3D layers                                1
 # MPI messages exchanged                  307800
 MPI messages size (bytes):
  total size                         4.952013E+09
  min size                           0.000000E+00
  max size                         320.000000E+03
  average size                      16.088412E+03
 MPI breakdown and total messages size (bytes):
             size <=      128              248665                        0
       128 < size <=     8192                3845                  4429440
      8192 < size <=    32768               22530                288384000
     32768 < size <=   131072               14560               1164800000
    131072 < size <=  4194304               18200               3494400000
   4194304 < size <= 16777216                   0                        0
  16777216 < size                               0                        0
 -------------------------------------------------------------------------------
 -                                                                             -
 -                      DBCSR MESSAGE PASSING PERFORMANCE                      -
 -                                                                             -
 -------------------------------------------------------------------------------
 ROUTINE             CALLS      AVE VOLUME [Bytes]
 MP_Bcast               11                     12.
 MP_Allreduce         4545                      8.
 MP_Alltoall          3428                   4365.
 MP_ISend            20504                   5851.
 MP_IRecv            20504                   6621.
 -------------------------------------------------------------------------------

 -------------------------------------------------------------------------------
 -                                                                             -
 -                                GRID STATISTICS                              -
 -                                                                             -
 -------------------------------------------------------------------------------
 LP    KERNEL    OPERATION                                     COUNT     PERCENT
 0     general   collocate                                       288       0.05%
 0     ortho     integrate                                    102712      16.99%
 0     ortho     collocate                                    105488      17.45%
 3     ortho     integrate                                    148000      24.48%
 3     ortho     collocate                                    152000      25.15%
 6     ortho     integrate                                     47360       7.83%
 6     ortho     collocate                                     48640       8.05%
 -------------------------------------------------------------------------------

 MEMORY| Estimated peak process memory [MiB]                                6602

 -------------------------------------------------------------------------------
 -                                                                             -
 -                         MESSAGE PASSING PERFORMANCE                         -
 -                                                                             -
 -------------------------------------------------------------------------------

 ROUTINE             CALLS      AVE VOLUME [Bytes]
 MP_Group                5
 MP_Bcast              566                 157204.
 MP_Allreduce         1560                    927.
 MP_Sync               192
 MP_Alltoall           723                6249885.
 MP_ISendRecv        10535                 145697.
 MP_Wait             13803
 MP_ISend             3040                 278784.
 MP_IRecv             3040                 278784.
 MP_Recv                10                  12800.
 -------------------------------------------------------------------------------


 -------------------------------------------------------------------------------
 -                                                                             -
 -                           R E F E R E N C E S                               -
 -                                                                             -
 -------------------------------------------------------------------------------
 
 CP2K version 8.0 (Development Version), the CP2K developers group (2020).
 CP2K is freely available from https://www.cp2k.org/ .

 Kuehne,Thomas D.; Iannuzzi,Marcella; Del Ben,Mauro;
 Rybkin,Vladimir V.; Seewald,Patrick; Stein,Frederick; Laino,Teodoro;
 Khaliullin,Rustam Z.; Schuett,Ole; Schiffmann,Florian; Golze,Dorothea;
 Wilhelm,Jan; Chulkov,Sergey; Bani-Hashemian,Mohammad Hossein;
 Weber,Valery; Borstnik,Urban; Taillefumier,Mathieu;
 Jakobovits,Alice Shoshana; Lazzaro,Alfio; Pabst,Hans; Mueller,Tiziano;
 Schade,Robert; Guidon,Manuel; Andermatt,Samuel; Holmberg,Nico;
 Schenter,Gregory K.; Hehn,Anna; Bussy,Augustin; Belleflamme,Fabian;
 Tabacchi,Gloria; Gloess,Andreas; Lass,Michael; Bethune,Iain;
 Mundy,Christopher J.; Plessl,Christian; Watkins,Matt;
 VandeVondele,Joost; Krack,Matthias; Hutter,Juerg. 
 The Journal of Chemical Physics, 152 (19), (2020). 
 CP2K: An electronic structure and molecular dynamics software package -
 Quickstep: Efficient and accurate electronic structure calculations.
 https://doi.org/10.1063/5.0007045

 Schuett, Ole; Messmer, Peter; Hutter, Juerg; VandeVondele, Joost. 
 Electronic Structure Calculations on Graphics Processing Units, John
 Wiley & Sons, Ltd, 173-190 (2016). 
 GPU-Accelerated Sparse Matrix-Matrix Multiplication for
 Linear Scaling Density Functional Theory.
 https://doi.org/10.1002/9781118670712.ch8

 Borstnik, U; VandeVondele, J; Weber, V; Hutter, J. 
 PARALLEL COMPUTING, 40 (5-6), 47-58 (2014). 
 Sparse matrix multiplication: The distributed block-compressed sparse
 row library.
 https://doi.org/10.1016/j.parco.2014.03.012

 Hutter, J; Iannuzzi, M; Schiffmann, F; VandeVondele, J. 
 WIREs Comput Mol Sci., 4 (1), 15-25 (2014). 
 CP2K: atomistic simulations of condensed matter systems.
 https://doi.org/10.1002/wcms.1159

 Marek, A; Blum, V; Johanni, R; Havu, V; Lang, B; Auckenthaler, T;
 Heinecke, A; Bungartz, H; Lederer, H. 
 Journal of Physics: Condensed Matter, 26 (21), (2014). 
 The ELPA library: scalable parallel eigenvalue solutions for
 electronic structure
 theory and computational science.
 https://doi.org/10.1088/0953-8984/26/21/213201

 Guidon, M; Hutter, J; VandeVondele, J. 
 JOURNAL OF CHEMICAL THEORY AND COMPUTATION, 5 (11), 3010-3021 (2009). 
 Robust Periodic Hartree-Fock Exchange for Large-Scale Simulations Using
 Gaussian Basis Sets.
 https://doi.org/10.1021/ct900494g

 Guidon, M; Schiffmann, F; Hutter, J; VandeVondele, J. 
 JOURNAL OF CHEMICAL PHYSICS, 128 (21), 214104 (2008). 
 Ab initio molecular dynamics using hybrid density functionals.
 https://doi.org/10.1063/1.2931945

 Krack, M. 
 THEORETICAL CHEMISTRY ACCOUNTS, 114 (1-3), 145-152 (2005). 
 Pseudopotentials for H to Kr optimized for gradient-corrected
 exchange-correlation functionals.
 https://doi.org/10.1007/s00214-005-0655-y

 VandeVondele, J; Krack, M; Mohamed, F; Parrinello, M; Chassaing, T;
 Hutter, J. COMPUTER PHYSICS COMMUNICATIONS, 167 (2), 103-128 (2005). 
 QUICKSTEP: Fast and accurate density functional calculations using a
 mixed Gaussian and plane waves approach.
 https://doi.org/10.1016/j.cpc.2004.12.014

 Frigo, M; Johnson, SG. 
 PROCEEDINGS OF THE IEEE, 93 (2), 216-231 (2005). 
 The design and implementation of FFTW3.
 https://doi.org/10.1109/JPROC.2004.840301

 VandeVondele, J; Hutter, J. 
 JOURNAL OF CHEMICAL PHYSICS, 118 (10), 4365-4369 (2003). 
 An efficient orbital transformation method for electronic structure
 calculations.
 https://doi.org/10.1063/1.1543154

 Martyna, GJ; Tuckerman, ME. 
 JOURNAL OF CHEMICAL PHYSICS, 110 (6), 2810-2821 (1999). 
 A reciprocal space based method for treating long range interactions in
 ab initio and force-field-based calculations in clusters.
 https://doi.org/10.1063/1.477923

 Hartwigsen, C; Goedecker, S; Hutter, J. 
 PHYSICAL REVIEW B, 58 (7), 3641-3662 (1998). 
 Relativistic separable dual-space Gaussian pseudopotentials from H to Rn.
 https://doi.org/10.1103/PhysRevB.58.3641

 Lippert, G; Hutter, J; Parrinello, M. 
 MOLECULAR PHYSICS, 92 (3), 477-487 (1997). 
 A hybrid Gaussian and plane wave density functional scheme.
 https://doi.org/10.1080/002689797170220

 Perdew, JP; Burke, K; Ernzerhof, M. 
 PHYSICAL REVIEW LETTERS, 77 (18), 3865-3868 (1996). 
 Generalized gradient approximation made simple.
 https://doi.org/10.1103/PhysRevLett.77.3865

 Goedecker, S; Teter, M; Hutter, J. 
 PHYSICAL REVIEW B, 54 (3), 1703-1710 (1996). 
 Separable dual-space Gaussian pseudopotentials.
 https://doi.org/10.1103/PhysRevB.54.1703


 -------------------------------------------------------------------------------
 -                                                                             -
 -                                T I M I N G                                  -
 -                                                                             -
 -------------------------------------------------------------------------------
 SUBROUTINE                       CALLS  ASD         SELF TIME        TOTAL TIME
                                MAXIMUM       AVERAGE  MAXIMUM  AVERAGE  MAXIMUM
 CP2K                                 1  1.0    0.990    1.235 1111.010 1111.024
 qs_energies                          1  2.0    0.000    0.000 1109.551 1109.565
 scf_env_do_scf                       1  3.0    0.000    0.000 1109.291 1109.305
 qs_ks_update_qs_env                 41  5.0    0.000    0.001 1101.374 1101.396
 rebuild_ks_matrix                   37  6.0    0.000    0.000 1101.366 1101.388
 qs_ks_build_kohn_sham_matrix        37  7.0    0.006    0.007 1101.366 1101.388
 hfx_ks_matrix                       37  8.0    0.001    0.002 1086.502 1086.513
 integrate_four_center               37  9.0    0.058    0.074 1086.497 1086.511
 integrate_four_center_main          37 10.0    0.009    0.011  974.817 1079.770
 integrate_four_center_bin         4033 11.0  974.808 1079.763  974.808 1079.763
 scf_env_do_scf_inner_loop           37  4.0    0.001    0.004  923.119  923.131
 mp_sync                            192 10.8  107.231  215.898  107.231  215.898
 init_scf_loop                        4  4.0    0.000    0.000  186.171  186.173
 -------------------------------------------------------------------------------

 The number of warnings for this run is : 0
 
 -------------------------------------------------------------------------------
  **** **** ******  **  PROGRAM ENDED AT                 2020-12-03 15:56:42.130
 ***** ** ***  *** **   PROGRAM RAN ON                                   tcopt10
 **    ****   ******    PROGRAM RAN BY                                    hutter
 ***** **    ** ** **   PROGRAM PROCESS ID                                 10507
  **** **  *******  **  PROGRAM STOPPED IN /data/hutter/GITHUB/BASIS/MOLOPT/PBE0
                                           /Li
