 DBCSR| CPU Multiplication driver                                           XSMM
 DBCSR| Multrec recursion limit                                              512
 DBCSR| Multiplication stack size                                           1000
 DBCSR| Maximum elements for images                                    UNLIMITED
 DBCSR| Multiplicative factor virtual images                                   1
 DBCSR| Use multiplication densification                                       T
 DBCSR| Multiplication size stacks                                             3
 DBCSR| Use memory pool for CPU allocation                                     F
 DBCSR| Number of 3D layers                                               SINGLE
 DBCSR| Use MPI memory allocation                                              F
 DBCSR| Use RMA algorithm                                                      F
 DBCSR| Use Communication thread                                               T
 DBCSR| Communication thread load                                             87
 DBCSR| Split modifier for TAS multiplication algorithm                  1.0E+00


  **** **** ******  **  PROGRAM STARTED AT               2020-12-03 15:22:05.069
 ***** ** ***  *** **   PROGRAM STARTED ON                               tcopt10
 **    ****   ******    PROGRAM STARTED BY                                hutter
 ***** **    ** ** **   PROGRAM PROCESS ID                                  8687
  **** **  *******  **  PROGRAM STARTED IN /data/hutter/GITHUB/BASIS/MOLOPT/PBE0
                                           /Li

 CP2K| version string:                    CP2K version 8.0 (Development Version)
 CP2K| source code revision number:                                  git:afc71fa
 CP2K| cp2kflags: omp libint fftw3 libxc elpa parallel mpi3 scalapack xsmm spgli
 CP2K|            b sirius
 CP2K| is freely available from                            https://www.cp2k.org/
 CP2K| Program compiled at                          Tue Nov 17 10:27:14 CET 2020
 CP2K| Program compiled on                                               tcopt10
 CP2K| Program compiled for                                                local
 CP2K| Data directory path                 /data/hutter/GITHUB/CURRENT/cp2k/data
 CP2K| Input file name                                             LiBH4-ref.inp

 GLOBAL| Force Environment number                                              1
 GLOBAL| Basis set file name                                  ../PBE0_UCSEGBASIS
 GLOBAL| Potential file name                                        ../POTENTIAL
 GLOBAL| MM Potential file name                                     MM_POTENTIAL
 GLOBAL| Coordinate file name                                      __STD_INPUT__
 GLOBAL| Method name                                                        CP2K
 GLOBAL| Project name                                                 refLiBH4q3
 GLOBAL| Preferred FFT library                                             FFTW3
 GLOBAL| Preferred diagonalization lib.                                     ELPA
 GLOBAL| Run type                                                         ENERGY
 GLOBAL| All-to-all communication in single precision                          F
 GLOBAL| FFTs using library dependent lengths                                  F
 GLOBAL| Global print level                                                  LOW
 GLOBAL| MPI I/O enabled                                                       T
 GLOBAL| Total number of message passing processes                            36
 GLOBAL| Number of threads for this process                                    1
 GLOBAL| This output is from process                                           0
 GLOBAL| CPU model name                          AMD EPYC 7401 24-Core Processor
 GLOBAL| CPUID                                                              1002

 MEMORY| system memory details [Kb]
 MEMORY|                        rank 0           min           max       average
 MEMORY| MemTotal            263987256     263987256     263987256     263987256
 MEMORY| MemFree             238160872     238160872     238160872     238160872
 MEMORY| Buffers                    32            32            32            32
 MEMORY| Cached               21342732      21342732      21342732      21342732
 MEMORY| Slab                  1406724       1406724       1406724       1406724
 MEMORY| SReclaimable           728920        728920        728920        728920
 MEMORY| MemLikelyFree       260232556     260232556     260232556     260232556


 GENERATE|  Preliminary Number of Bonds generated:                             3
 GENERATE|  Achieved consistency in connectivity generation.
 GENERATE|  Number of Bonds generated:                                         3
 GENERATE|  Preliminary Number of Bends generated:                             3
 GENERATE|  Number of Bends generated:                                         3
 GENERATE|  Number of UB generated:                                            3
 GENERATE|  Preliminary Number of Torsions generated:                          0
 GENERATE|  Number of Impropers generated:                                     1

 *******************************************************************************
 *******************************************************************************
 **                                                                           **
 **     #####                         ##              ##                      **
 **    ##   ##            ##          ##              ##                      **
 **   ##     ##                       ##            ######                    **
 **   ##     ##  ##   ##  ##   #####  ##  ##   ####   ##    #####    #####    **
 **   ##     ##  ##   ##  ##  ##      ## ##   ##      ##   ##   ##  ##   ##   **
 **   ##  ## ##  ##   ##  ##  ##      ####     ###    ##   ######   ######    **
 **    ##  ###   ##   ##  ##  ##      ## ##      ##   ##   ##       ##        **
 **     #######   #####   ##   #####  ##  ##  ####    ##    #####   ##        **
 **           ##                                                    ##        **
 **                                                                           **
 **                                                ... make the atoms dance   **
 **                                                                           **
 **            Copyright (C) by CP2K developers group (2000 - 2020)           **
 **                      J. Chem. Phys. 152, 194103 (2020)                    **
 **                                                                           **
 *******************************************************************************


 TOTAL NUMBERS AND MAXIMUM NUMBERS

  Total number of            - Atomic kinds:                                   3
                             - Atoms:                                          6
                             - Shell sets:                                    76
                             - Shells:                                       128
                             - Primitive Cartesian functions:                 76
                             - Cartesian basis functions:                    516
                             - Spherical basis functions:                    424

  Maximum angular momentum of- Orbital basis functions:                        3
                             - Local part of the GTH pseudopotential:          6
                             - Non-local part of the GTH pseudopotential:      0


 SCF PARAMETERS         Density guess:                                    ATOMIC
                        --------------------------------------------------------
                        max_scf:                                              10
                        max_scf_history:                                       0
                        max_diis:                                              4
                        --------------------------------------------------------
                        eps_scf:                                        1.00E-07
                        eps_scf_history:                                0.00E+00
                        eps_diis:                                       1.00E-01
                        eps_eigval:                                     1.00E-05
                        --------------------------------------------------------
                        level_shift [a.u.]:                                 0.00
                        --------------------------------------------------------
                        Outer loop SCF in use 
                        No variables optimised in outer loop
                        eps_scf                                         1.00E-07
                        max_scf                                               10
                        No outer loop optimization
                        step_size                                       5.00E-01

 Number of electrons:                                                         10
 Number of occupied orbitals:                                                  5
 Number of molecular orbitals:                                                 5

 Number of orbital functions:                                                424
 Number of independent orbital functions:                                    424

 Extrapolation method: initial_guess


 SCF WAVEFUNCTION OPTIMIZATION

  ----------------------------------- OT ---------------------------------------
  Minimizer      : DIIS                : direct inversion
                                         in the iterative subspace
                                         using   7 DIIS vectors
                                         safer DIIS on
  Preconditioner : FULL_ALL            : diagonalization, state selective
  Precond_solver : DEFAULT
  stepsize       :    0.15000000                  energy_gap     :    0.08000000
  eps_taylor     :   0.10000E-15                  max_taylor     :             4
  ----------------------------------- OT ---------------------------------------

  Step     Update method      Time    Convergence         Total energy    Change
  ------------------------------------------------------------------------------
     1 OT DIIS     0.15E+00   24.3     0.07676510       -11.7208298552 -1.17E+01
     2 OT DIIS     0.15E+00    3.0     0.05066627       -12.3905110495 -6.70E-01
     3 OT DIIS     0.15E+00    2.9     0.02278042       -12.6340529257 -2.44E-01
     4 OT DIIS     0.15E+00    2.9     0.01412004       -12.6626440261 -2.86E-02
     5 OT DIIS     0.15E+00    2.9     0.00373864       -12.6761791344 -1.35E-02
     6 OT DIIS     0.15E+00    3.0     0.00200741       -12.6780212767 -1.84E-03
     7 OT DIIS     0.15E+00    2.9     0.00071943       -12.6785817787 -5.61E-04
     8 OT DIIS     0.15E+00    2.9     0.00032652       -12.6786915925 -1.10E-04
     9 OT DIIS     0.15E+00    2.9     0.00012374       -12.6787237817 -3.22E-05
    10 OT DIIS     0.15E+00    2.9     0.00006046       -12.6787264575 -2.68E-06

  Leaving inner SCF loop after reaching    10 steps.


  Electronic density on regular grids:        -10.0000000009       -0.0000000009
  Core density on regular grids:               10.0000000000       -0.0000000000
  Total charge density on r-space grids:       -0.0000000009
  Total charge density g-space grids:          -0.0000000009

  Overlap energy of the core charge distribution:               0.00000076016660
  Self energy of the core charge distribution:                -18.30616257520523
  Core Hamiltonian energy:                                      4.31470289511090
  Hartree energy:                                               5.66053244230744
  Exchange-correlation energy:                                 -3.31901839805557
  Hartree-Fock Exchange energy:                                -1.02878158182597

  Total energy:                                               -12.67872645750183

  outer SCF iter =    1 RMS gradient =   0.60E-04 energy =        -12.6787264575

  ----------------------------------- OT ---------------------------------------
  Minimizer      : DIIS                : direct inversion
                                         in the iterative subspace
                                         using   7 DIIS vectors
                                         safer DIIS on
  Preconditioner : FULL_ALL            : diagonalization, state selective
  Precond_solver : DEFAULT
  stepsize       :    0.15000000                  energy_gap     :    0.08000000
  eps_taylor     :   0.10000E-15                  max_taylor     :             4
  ----------------------------------- OT ---------------------------------------

  Step     Update method      Time    Convergence         Total energy    Change
  ------------------------------------------------------------------------------
     1 OT DIIS     0.15E+00    5.9     0.00002982       -12.6787274001 -9.43E-07
     2 OT DIIS     0.15E+00    2.9     0.00001357       -12.6787276051 -2.05E-07
     3 OT DIIS     0.15E+00    2.9     0.00000084       -12.6787276595 -5.44E-08
     4 OT DIIS     0.15E+00    2.9     0.00000024       -12.6787276596 -1.85E-10
     5 OT DIIS     0.15E+00    2.9     0.00000007       -12.6787276597 -1.61E-11

  *** SCF run converged in     5 steps ***


  Electronic density on regular grids:        -10.0000000009       -0.0000000009
  Core density on regular grids:               10.0000000000       -0.0000000000
  Total charge density on r-space grids:       -0.0000000009
  Total charge density g-space grids:          -0.0000000009

  Overlap energy of the core charge distribution:               0.00000076016660
  Self energy of the core charge distribution:                -18.30616257520523
  Core Hamiltonian energy:                                      4.31437097121960
  Hartree energy:                                               5.66074923458587
  Exchange-correlation energy:                                 -3.31893540489665
  Hartree-Fock Exchange energy:                                -1.02875064552822

  Total energy:                                               -12.67872765965803

  outer SCF iter =    2 RMS gradient =   0.68E-07 energy =        -12.6787276597
  outer SCF loop converged in   2 iterations or   15 steps


 ENERGY| Total FORCE_EVAL ( QS ) energy [a.u.]:              -12.678727659658028

 -------------------------------------------------------------------------------
 -                                                                             -
 -                                DBCSR STATISTICS                             -
 -                                                                             -
 -------------------------------------------------------------------------------
 COUNTER                                    TOTAL       BLAS       SMM       ACC
 flops     5 x     5 x     5                22250       0.0%    100.0%      0.0%
 flops     5 x     5 x    52               161200       0.0%    100.0%      0.0%
 flops    52 x     5 x     5               200200       0.0%    100.0%      0.0%
 flops     5 x     5 x   100               310000       0.0%    100.0%      0.0%
 flops   100 x     5 x     5               385000       0.0%    100.0%      0.0%
 flops    52 x    52 x     5               432640       0.0%    100.0%      0.0%
 flops   100 x    52 x     5               832000       0.0%    100.0%      0.0%
 flops     5 x     5 x    68               843200       0.0%    100.0%      0.0%
 flops    68 x     5 x     5              1047200       0.0%    100.0%      0.0%
 flops    52 x    68 x     5              1131520       0.0%    100.0%      0.0%
 flops    68 x    52 x     5              1131520       0.0%    100.0%      0.0%
 flops   100 x   100 x     5              1600000       0.0%    100.0%      0.0%
 flops    52 x     5 x    52              2109120       0.0%    100.0%      0.0%
 flops    68 x   100 x     5              2176000       0.0%    100.0%      0.0%
 flops   100 x    68 x     5              2176000       0.0%    100.0%      0.0%
 flops   100 x     5 x    52              4056000       0.0%    100.0%      0.0%
 flops    52 x     5 x   100              4056000       0.0%    100.0%      0.0%
 flops    68 x    68 x     5              7398400       0.0%    100.0%      0.0%
 flops   100 x     5 x   100              7800000       0.0%    100.0%      0.0%
 flops    52 x     5 x    68             11032320       0.0%    100.0%      0.0%
 flops    68 x     5 x    52             11032320       0.0%    100.0%      0.0%
 flops   100 x     5 x    68             21216000       0.0%    100.0%      0.0%
 flops    68 x     5 x   100             21216000       0.0%    100.0%      0.0%
 flops    68 x     5 x    68             57707520       0.0%    100.0%      0.0%
 flops inhomo. stacks                           0       0.0%      0.0%      0.0%
 flops total                       160.072410E+06       0.0%    100.0%      0.0%
 flops max/rank                     36.393650E+06       0.0%    100.0%      0.0%
 matmuls inhomo. stacks                         0       0.0%      0.0%      0.0%
 matmuls total                               4067       0.0%    100.0%      0.0%
 number of processed stacks                  4067       0.0%    100.0%      0.0%
 average stack size                                     0.0       1.0       0.0
 marketing flops                   172.001376E+06
 -------------------------------------------------------------------------------
 # multiplications                            324
 max memory usage/rank               1.040708E+09
 # max total images/rank                        1
 # max 3D layers                                1
 # MPI messages exchanged                  116640
 MPI messages size (bytes):
  total size                       587.528960E+06
  min size                           0.000000E+00
  max size                          80.000000E+03
  average size                       5.037114E+03
 MPI breakdown and total messages size (bytes):
             size <=      128               91995                        0
       128 < size <=     8192               10605                 26627800
      8192 < size <=    32768                3510                 96695040
     32768 < size <=   131072               10530                464206080
    131072 < size <=  4194304                   0                        0
   4194304 < size <= 16777216                   0                        0
  16777216 < size                               0                        0
 -------------------------------------------------------------------------------
 -                                                                             -
 -                      DBCSR MESSAGE PASSING PERFORMANCE                      -
 -                                                                             -
 -------------------------------------------------------------------------------
 ROUTINE             CALLS      AVE VOLUME [Bytes]
 MP_Bcast               25                     12.
 MP_Allreduce         1767                      9.
 MP_Alltoall          1430                   3958.
 MP_ISend             7768                   3496.
 MP_IRecv             7768                   2997.
 -------------------------------------------------------------------------------

 -------------------------------------------------------------------------------
 -                                                                             -
 -                                GRID STATISTICS                              -
 -                                                                             -
 -------------------------------------------------------------------------------
 LP    KERNEL    OPERATION                                     COUNT     PERCENT
 0     general   collocate                                       216       0.21%
 0     ortho     integrate                                     14640      14.36%
 0     ortho     collocate                                     15616      15.32%
 1     ortho     integrate                                      4965       4.87%
 1     ortho     collocate                                      5296       5.19%
 2     ortho     integrate                                      3480       3.41%
 2     ortho     collocate                                      3712       3.64%
 3     ortho     integrate                                     17565      17.23%
 3     ortho     collocate                                     18736      18.38%
 4     ortho     integrate                                      2880       2.82%
 4     ortho     collocate                                      3072       3.01%
 5     ortho     integrate                                      1320       1.29%
 5     ortho     collocate                                      1408       1.38%
 6     ortho     integrate                                      4380       4.30%
 6     ortho     collocate                                      4672       4.58%
 -------------------------------------------------------------------------------

 MEMORY| Estimated peak process memory [MiB]                                 993

 -------------------------------------------------------------------------------
 -                                                                             -
 -                         MESSAGE PASSING PERFORMANCE                         -
 -                                                                             -
 -------------------------------------------------------------------------------

 ROUTINE             CALLS      AVE VOLUME [Bytes]
 MP_Group                5
 MP_Bcast              220                1208965.
 MP_Allreduce          626                   2226.
 MP_Sync                96
 MP_Alltoall           305                6146969.
 MP_ISendRecv         4375                 105497.
 MP_Wait              5751
 MP_comm_split          14
 MP_ISend             1280                 254016.
 MP_IRecv             1280                 254016.
 MP_Recv                 4                   3392.
 -------------------------------------------------------------------------------


 -------------------------------------------------------------------------------
 -                                                                             -
 -                           R E F E R E N C E S                               -
 -                                                                             -
 -------------------------------------------------------------------------------
 
 CP2K version 8.0 (Development Version), the CP2K developers group (2020).
 CP2K is freely available from https://www.cp2k.org/ .

 Kuehne,Thomas D.; Iannuzzi,Marcella; Del Ben,Mauro;
 Rybkin,Vladimir V.; Seewald,Patrick; Stein,Frederick; Laino,Teodoro;
 Khaliullin,Rustam Z.; Schuett,Ole; Schiffmann,Florian; Golze,Dorothea;
 Wilhelm,Jan; Chulkov,Sergey; Bani-Hashemian,Mohammad Hossein;
 Weber,Valery; Borstnik,Urban; Taillefumier,Mathieu;
 Jakobovits,Alice Shoshana; Lazzaro,Alfio; Pabst,Hans; Mueller,Tiziano;
 Schade,Robert; Guidon,Manuel; Andermatt,Samuel; Holmberg,Nico;
 Schenter,Gregory K.; Hehn,Anna; Bussy,Augustin; Belleflamme,Fabian;
 Tabacchi,Gloria; Gloess,Andreas; Lass,Michael; Bethune,Iain;
 Mundy,Christopher J.; Plessl,Christian; Watkins,Matt;
 VandeVondele,Joost; Krack,Matthias; Hutter,Juerg. 
 The Journal of Chemical Physics, 152 (19), (2020). 
 CP2K: An electronic structure and molecular dynamics software package -
 Quickstep: Efficient and accurate electronic structure calculations.
 https://doi.org/10.1063/5.0007045

 Schuett, Ole; Messmer, Peter; Hutter, Juerg; VandeVondele, Joost. 
 Electronic Structure Calculations on Graphics Processing Units, John
 Wiley & Sons, Ltd, 173-190 (2016). 
 GPU-Accelerated Sparse Matrix-Matrix Multiplication for
 Linear Scaling Density Functional Theory.
 https://doi.org/10.1002/9781118670712.ch8

 Borstnik, U; VandeVondele, J; Weber, V; Hutter, J. 
 PARALLEL COMPUTING, 40 (5-6), 47-58 (2014). 
 Sparse matrix multiplication: The distributed block-compressed sparse
 row library.
 https://doi.org/10.1016/j.parco.2014.03.012

 Hutter, J; Iannuzzi, M; Schiffmann, F; VandeVondele, J. 
 WIREs Comput Mol Sci., 4 (1), 15-25 (2014). 
 CP2K: atomistic simulations of condensed matter systems.
 https://doi.org/10.1002/wcms.1159

 Marek, A; Blum, V; Johanni, R; Havu, V; Lang, B; Auckenthaler, T;
 Heinecke, A; Bungartz, H; Lederer, H. 
 Journal of Physics: Condensed Matter, 26 (21), (2014). 
 The ELPA library: scalable parallel eigenvalue solutions for
 electronic structure
 theory and computational science.
 https://doi.org/10.1088/0953-8984/26/21/213201

 Guidon, M; Hutter, J; VandeVondele, J. 
 JOURNAL OF CHEMICAL THEORY AND COMPUTATION, 5 (11), 3010-3021 (2009). 
 Robust Periodic Hartree-Fock Exchange for Large-Scale Simulations Using
 Gaussian Basis Sets.
 https://doi.org/10.1021/ct900494g

 Guidon, M; Schiffmann, F; Hutter, J; VandeVondele, J. 
 JOURNAL OF CHEMICAL PHYSICS, 128 (21), 214104 (2008). 
 Ab initio molecular dynamics using hybrid density functionals.
 https://doi.org/10.1063/1.2931945

 Krack, M. 
 THEORETICAL CHEMISTRY ACCOUNTS, 114 (1-3), 145-152 (2005). 
 Pseudopotentials for H to Kr optimized for gradient-corrected
 exchange-correlation functionals.
 https://doi.org/10.1007/s00214-005-0655-y

 VandeVondele, J; Krack, M; Mohamed, F; Parrinello, M; Chassaing, T;
 Hutter, J. COMPUTER PHYSICS COMMUNICATIONS, 167 (2), 103-128 (2005). 
 QUICKSTEP: Fast and accurate density functional calculations using a
 mixed Gaussian and plane waves approach.
 https://doi.org/10.1016/j.cpc.2004.12.014

 Frigo, M; Johnson, SG. 
 PROCEEDINGS OF THE IEEE, 93 (2), 216-231 (2005). 
 The design and implementation of FFTW3.
 https://doi.org/10.1109/JPROC.2004.840301

 VandeVondele, J; Hutter, J. 
 JOURNAL OF CHEMICAL PHYSICS, 118 (10), 4365-4369 (2003). 
 An efficient orbital transformation method for electronic structure
 calculations.
 https://doi.org/10.1063/1.1543154

 Martyna, GJ; Tuckerman, ME. 
 JOURNAL OF CHEMICAL PHYSICS, 110 (6), 2810-2821 (1999). 
 A reciprocal space based method for treating long range interactions in
 ab initio and force-field-based calculations in clusters.
 https://doi.org/10.1063/1.477923

 Hartwigsen, C; Goedecker, S; Hutter, J. 
 PHYSICAL REVIEW B, 58 (7), 3641-3662 (1998). 
 Relativistic separable dual-space Gaussian pseudopotentials from H to Rn.
 https://doi.org/10.1103/PhysRevB.58.3641

 Lippert, G; Hutter, J; Parrinello, M. 
 MOLECULAR PHYSICS, 92 (3), 477-487 (1997). 
 A hybrid Gaussian and plane wave density functional scheme.
 https://doi.org/10.1080/002689797170220

 Perdew, JP; Burke, K; Ernzerhof, M. 
 PHYSICAL REVIEW LETTERS, 77 (18), 3865-3868 (1996). 
 Generalized gradient approximation made simple.
 https://doi.org/10.1103/PhysRevLett.77.3865

 Goedecker, S; Teter, M; Hutter, J. 
 PHYSICAL REVIEW B, 54 (3), 1703-1710 (1996). 
 Separable dual-space Gaussian pseudopotentials.
 https://doi.org/10.1103/PhysRevB.54.1703


 -------------------------------------------------------------------------------
 -                                                                             -
 -                                T I M I N G                                  -
 -                                                                             -
 -------------------------------------------------------------------------------
 SUBROUTINE                       CALLS  ASD         SELF TIME        TOTAL TIME
                                MAXIMUM       AVERAGE  MAXIMUM  AVERAGE  MAXIMUM
 CP2K                                 1  1.0    0.065    0.089   66.078   66.079
 qs_energies                          1  2.0    0.000    0.000   65.748   65.749
 scf_env_do_scf                       1  3.0    0.000    0.000   65.537   65.538
 qs_ks_update_qs_env                 17  5.0    0.000    0.000   63.364   63.365
 rebuild_ks_matrix                   15  6.0    0.000    0.000   63.362   63.363
 qs_ks_build_kohn_sham_matrix        15  7.0    0.002    0.003   63.362   63.363
 hfx_ks_matrix                       15  8.0    0.001    0.001   57.805   57.806
 integrate_four_center               15  9.0    0.011    0.012   57.803   57.804
 integrate_four_center_main          15 10.0    0.003    0.004   20.768   43.857
 integrate_four_center_bin         1830 11.0   20.766   43.854   20.766   43.854
 scf_env_do_scf_inner_loop           15  4.0    0.001    0.002   38.362   38.362
 mp_sync                             96 10.8   23.751   29.946   23.751   29.946
 init_scf_loop                        2  4.0    0.000    0.000   27.175   27.175
 calc_screening_functions             1 10.0    8.793    8.876   10.320   10.404
 pw_transfer                        292  9.6    0.026    0.033    3.612    3.945
 fft_wrap_pw1pw2                    262 10.7    0.003    0.004    3.557    3.894
 fft_wrap_pw1pw2_300                168 11.8    0.186    0.223    3.316    3.647
 qs_vxc_create                       15  8.0    0.000    0.000    3.537    3.545
 xc_vxc_pw_create                    15  9.0    0.027    0.031    3.537    3.545
 fft3d_ps                           262 12.7    1.306    1.384    2.834    3.197
 calc_pair_dist_radii                 1 10.0    2.024    2.035    2.530    2.546
 xc_rho_set_and_dset_create          15 10.0    0.014    0.016    2.126    2.244
 powell_optimize                 767914 11.0    2.032    2.069    2.032    2.069
 qs_rho_update_rho                   16  5.0    0.000    0.000    1.877    1.877
 calculate_rho_elec                  16  6.0    0.012    0.012    1.877    1.877
 mp_alltoall_z22v                   262 14.7    1.211    1.668    1.211    1.668
 rs_pw_transfer                     125  9.4    0.002    0.003    1.349    1.468
 sum_up_and_integrate                15  8.0    0.006    0.008    1.438    1.439
 integrate_v_rspace_low              15  9.0    0.140    0.327    1.432    1.434
 density_rs2pw                       16  7.0    0.001    0.001    1.301    1.415
 -------------------------------------------------------------------------------

 The number of warnings for this run is : 0
 
 -------------------------------------------------------------------------------
  **** **** ******  **  PROGRAM ENDED AT                 2020-12-03 15:23:11.881
 ***** ** ***  *** **   PROGRAM RAN ON                                   tcopt10
 **    ****   ******    PROGRAM RAN BY                                    hutter
 ***** **    ** ** **   PROGRAM PROCESS ID                                  8687
  **** **  *******  **  PROGRAM STOPPED IN /data/hutter/GITHUB/BASIS/MOLOPT/PBE0
                                           /Li
