 DBCSR| CPU Multiplication driver                                           XSMM
 DBCSR| Multrec recursion limit                                              512
 DBCSR| Multiplication stack size                                           1000
 DBCSR| Maximum elements for images                                    UNLIMITED
 DBCSR| Multiplicative factor virtual images                                   1
 DBCSR| Use multiplication densification                                       T
 DBCSR| Multiplication size stacks                                             3
 DBCSR| Use memory pool for CPU allocation                                     F
 DBCSR| Number of 3D layers                                               SINGLE
 DBCSR| Use MPI memory allocation                                              F
 DBCSR| Use RMA algorithm                                                      F
 DBCSR| Use Communication thread                                               T
 DBCSR| Communication thread load                                             87
 DBCSR| MPI: My node id                                                        0
 DBCSR| MPI: Number of nodes                                                  36
 DBCSR| OMP: Current number of threads                                         1
 DBCSR| OMP: Max number of threads                                             1
 DBCSR| Split modifier for TAS multiplication algorithm                  1.0E+00


  **** **** ******  **  PROGRAM STARTED AT               2022-05-31 14:45:43.921
 ***** ** ***  *** **   PROGRAM STARTED ON                               tcopt10
 **    ****   ******    PROGRAM STARTED BY                                hutter
 ***** **    ** ** **   PROGRAM PROCESS ID                                  1603
  **** **  *******  **  PROGRAM STARTED IN /data/hutter/GITHUB/BASIS/scMOLOPT/PB
                                           E/Sn

 CP2K| version string:                   CP2K version 10.0 (Development Version)
 CP2K| source code revision number:                                  git:d19b00a
 CP2K| cp2kflags: omp libint fftw3 libxc elpa parallel mpi3 scalapack cosma xsmm
 CP2K|             spglib sirius libvori libbqb
 CP2K| is freely available from                            https://www.cp2k.org/
 CP2K| Program compiled at                      Wed 18 May 2022 12:15:59 PM CEST
 CP2K| Program compiled on                                               tcopt10
 CP2K| Program compiled for                                                local
 CP2K| Data directory path                   /data/hutter/GITHUB/TDLRI/cp2k/data
 CP2K| Input file name                                              SnO2-ref.inp

 GLOBAL| Force Environment number                                              1
 GLOBAL| Basis set file name                                        ../def2QZVPP
 GLOBAL| Potential file name                                        ../POTENTIAL
 GLOBAL| MM Potential file name                                     MM_POTENTIAL
 GLOBAL| Coordinate file name                                      __STD_INPUT__
 GLOBAL| Method name                                                        CP2K
 GLOBAL| Project name                                                    refSnO2
 GLOBAL| Run type                                                         ENERGY
 GLOBAL| FFT library                                                       FFTW3
 GLOBAL| Diagonalization library                                            ELPA
 GLOBAL| Minimum number of eigenvectors for ELPA usage                        16
 GLOBAL| Orthonormality check for eigenvectors                          DISABLED
 GLOBAL| Matrix multiplication library                                     COSMA
 GLOBAL| All-to-all communication in single precision                          F
 GLOBAL| FFTs using library dependent lengths                                  F
 GLOBAL| Grid backend                                                       AUTO
 GLOBAL| Global print level                                                  LOW
 GLOBAL| MPI I/O enabled                                                       T
 GLOBAL| Total number of message passing processes                            36
 GLOBAL| Number of threads for this process                                    1
 GLOBAL| This output is from process                                           0
 GLOBAL| Stack size for threads created by OpenMP (OMP_STACKSIZE)        default
 GLOBAL| CPU model name                          AMD EPYC 7401 24-Core Processor
 GLOBAL| CPUID                                                              1002

 MEMORY| system memory details [Kb]
 MEMORY|                        rank 0           min           max       average
 MEMORY| MemTotal            263969132     263969132     263969132     263969132
 MEMORY| MemFree             237176648     237176648     237176648     237176648
 MEMORY| Buffers                  2836          2836          2836          2836
 MEMORY| Cached               20265388      20265384      20265388      20265384
 MEMORY| Slab                  1470424       1470424       1470424       1470424
 MEMORY| SReclaimable           876460        876460        876460        876460
 MEMORY| MemLikelyFree       258321332     258321328     258321332     258321328


 GENERATE|  Preliminary Number of Bonds generated:                             0
 GENERATE|  Achieved consistency in connectivity generation.

 *******************************************************************************
 *******************************************************************************
 **                                                                           **
 **     #####                         ##              ##                      **
 **    ##   ##            ##          ##              ##                      **
 **   ##     ##                       ##            ######                    **
 **   ##     ##  ##   ##  ##   #####  ##  ##   ####   ##    #####    #####    **
 **   ##     ##  ##   ##  ##  ##      ## ##   ##      ##   ##   ##  ##   ##   **
 **   ##  ## ##  ##   ##  ##  ##      ####     ###    ##   ######   ######    **
 **    ##  ###   ##   ##  ##  ##      ## ##      ##   ##   ##       ##        **
 **     #######   #####   ##   #####  ##  ##  ####    ##    #####   ##        **
 **           ##                                                    ##        **
 **                                                                           **
 **                                                ... make the atoms dance   **
 **                                                                           **
 **            Copyright (C) by CP2K developers group (2000-2022)             **
 **                      J. Chem. Phys. 152, 194103 (2020)                    **
 **                                                                           **
 *******************************************************************************


 TOTAL NUMBERS AND MAXIMUM NUMBERS

  Total number of            - Atomic kinds:                                   2
                             - Atoms:                                          3
                             - Shell sets:                                    56
                             - Shells:                                        56
                             - Primitive Cartesian functions:                105
                             - Cartesian basis functions:                    248
                             - Spherical basis functions:                    196

  Maximum angular momentum of- Orbital basis functions:                        4
                             - Local part of the GTH pseudopotential:          4
                             - Non-local part of the GTH pseudopotential:      4


 SCF PARAMETERS         Density guess:                                    ATOMIC
                        --------------------------------------------------------
                        max_scf:                                              20
                        max_scf_history:                                       0
                        max_diis:                                              4
                        --------------------------------------------------------
                        eps_scf:                                        1.00E-07
                        eps_scf_history:                                0.00E+00
                        eps_diis:                                       1.00E-01
                        eps_eigval:                                     1.00E-05
                        --------------------------------------------------------
                        level_shift [a.u.]:                             0.000000
                        --------------------------------------------------------
                        Outer loop SCF in use 
                        No variables optimised in outer loop
                        eps_scf                                         1.00E-07
                        max_scf                                                5
                        No outer loop optimization
                        step_size                                       5.00E-01

 Number of electrons:                                                         38
 Number of occupied orbitals:                                                 19
 Number of molecular orbitals:                                                19

 Number of orbital functions:                                                196
 Number of independent orbital functions:                                    196

 Extrapolation method: initial_guess


 SCF WAVEFUNCTION OPTIMIZATION

  ----------------------------------- OT ---------------------------------------
  Minimizer      : DIIS                : direct inversion
                                         in the iterative subspace
                                         using   7 DIIS vectors
                                         safer DIIS on
  Preconditioner : FULL_ALL            : diagonalization, state selective
  Precond_solver : DEFAULT
  stepsize       :    0.10000000                  energy_gap     :    0.08000000
  eps_taylor     :   0.10000E-15                  max_taylor     :             4
  ----------------------------------- OT ---------------------------------------

  Step     Update method      Time    Convergence         Total energy    Change
  ------------------------------------------------------------------------------
     1 OT DIIS     0.10E+00    0.9     0.18139894      -346.6517533600 -3.47E+02
     2 OT DIIS     0.10E+00    1.0     0.06081000      -353.7834927002 -7.13E+00
     3 OT DIIS     0.10E+00    1.0     0.03444243      -354.8503806042 -1.07E+00
     4 OT DIIS     0.10E+00    1.0     0.01749732      -355.3830046480 -5.33E-01
     5 OT DIIS     0.10E+00    1.0     0.01241725      -355.5594086444 -1.76E-01
     6 OT DIIS     0.10E+00    1.0     0.01041132      -355.6508883013 -9.15E-02
     7 OT DIIS     0.10E+00    1.0     0.00713777      -355.7921792067 -1.41E-01
     8 OT DIIS     0.10E+00    1.0     0.00517890      -355.8469066112 -5.47E-02
     9 OT DIIS     0.10E+00    1.0     0.00399249      -355.8782436158 -3.13E-02
    10 OT DIIS     0.10E+00    1.0     0.00340015      -355.8920952698 -1.39E-02
    11 OT DIIS     0.10E+00    1.0     0.00246024      -355.9024097750 -1.03E-02
    12 OT DIIS     0.10E+00    1.0     0.00292590      -355.9091528778 -6.74E-03
    13 OT DIIS     0.10E+00    1.0     0.00192381      -355.9142616073 -5.11E-03
    14 OT DIIS     0.10E+00    1.0     0.00131963      -355.9195653817 -5.30E-03
    15 OT DIIS     0.10E+00    1.0     0.00102088      -355.9236866895 -4.12E-03
    16 OT DIIS     0.10E+00    1.0     0.00073516      -355.9249280055 -1.24E-03
    17 OT DIIS     0.10E+00    1.0     0.00051807      -355.9262251267 -1.30E-03
    18 OT DIIS     0.10E+00    1.0     0.00038455      -355.9266892978 -4.64E-04
    19 OT DIIS     0.10E+00    1.0     0.00029198      -355.9269104636 -2.21E-04
    20 OT DIIS     0.10E+00    1.0     0.00017320      -355.9270077425 -9.73E-05

  Leaving inner SCF loop after reaching    20 steps.


  Electronic density on regular grids:        -35.4845952824        2.5154047176
  Core density on regular grids:               38.0000000000        0.0000000000
  Hard and soft densities (Lebedev):          -53.7388259850      -51.2234200649
  Total Rho_soft + Rho1_hard - Rho1_soft      -38.0000012025
  Total charge density (r-space):              -0.0000012025
  Total Rho_soft + Rho0_soft (g-space):        -0.0000015388

  Overlap energy of the core charge distribution:               0.00000000000328
  Self energy of the core charge distribution:               -494.56824520496338
  Core Hamiltonian energy:                                     70.68178017075093
  Hartree energy:                                             224.90308627476480
  Exchange-correlation energy:                                -26.18180428918068

  GAPW| Exc from hard and soft atomic rho1:                    -7.61278893521530
  GAPW| local Eh = 1 center integrals:                       -123.14903575862009

  Total energy:                                              -355.92700774246038

  outer SCF iter =    1 RMS gradient =   0.17E-03 energy =       -355.9270077425

  ----------------------------------- OT ---------------------------------------
  Minimizer      : DIIS                : direct inversion
                                         in the iterative subspace
                                         using   7 DIIS vectors
                                         safer DIIS on
  Preconditioner : FULL_ALL            : diagonalization, state selective
  Precond_solver : DEFAULT
  stepsize       :    0.10000000                  energy_gap     :    0.08000000
  eps_taylor     :   0.10000E-15                  max_taylor     :             4
  ----------------------------------- OT ---------------------------------------

  Step     Update method      Time    Convergence         Total energy    Change
  ------------------------------------------------------------------------------
     1 OT DIIS     0.10E+00    2.0     0.00036471      -355.9270480213 -4.03E-05
     2 OT DIIS     0.10E+00    1.0     0.00021883      -355.9270858039 -3.78E-05
     3 OT DIIS     0.10E+00    1.0     0.00034365      -355.9270955509 -9.75E-06
     4 OT DIIS     0.10E+00    1.0     0.00002471      -355.9271039836 -8.43E-06
     5 OT DIIS     0.10E+00    1.0     0.00001214      -355.9271041807 -1.97E-07
     6 OT DIIS     0.10E+00    1.0     0.00000472      -355.9271042068 -2.60E-08
     7 OT DIIS     0.10E+00    1.0     0.00000073      -355.9271042113 -4.53E-09
     8 OT DIIS     0.10E+00    1.0     0.00000014      -355.9271042115 -1.83E-10
     9 OT DIIS     0.10E+00    1.0     0.00000005      -355.9271042115  2.50E-12

  *** SCF run converged in     9 steps ***


  Electronic density on regular grids:        -35.4843015547        2.5156984453
  Core density on regular grids:               38.0000000000        0.0000000000
  Hard and soft densities (Lebedev):          -53.7360384403      -51.2203387909
  Total Rho_soft + Rho1_hard - Rho1_soft      -38.0000012041
  Total charge density (r-space):              -0.0000012041
  Total Rho_soft + Rho0_soft (g-space):        -0.0000015404

  Overlap energy of the core charge distribution:               0.00000000000328
  Self energy of the core charge distribution:               -494.56824520496338
  Core Hamiltonian energy:                                     70.68032194898220
  Hartree energy:                                             224.90479633007391
  Exchange-correlation energy:                                -26.18094134997235

  GAPW| Exc from hard and soft atomic rho1:                    -7.61323805794419
  GAPW| local Eh = 1 center integrals:                       -123.14979787764236

  Total energy:                                              -355.92710421146285

  outer SCF iter =    2 RMS gradient =   0.50E-07 energy =       -355.9271042115
  outer SCF loop converged in   2 iterations or   29 steps


 ENERGY| Total FORCE_EVAL ( QS ) energy [a.u.]:             -355.927104211462847

 -------------------------------------------------------------------------------
 -                                                                             -
 -                                DBCSR STATISTICS                             -
 -                                                                             -
 -------------------------------------------------------------------------------
 COUNTER                                    TOTAL       BLAS       SMM       ACC
 flops    19 x    19 x    19              3072832       0.0%    100.0%      0.0%
 flops    57 x    82 x    19              5328360       0.0%    100.0%      0.0%
 flops    82 x    57 x    19              5328360       0.0%    100.0%      0.0%
 flops    19 x    19 x    82              6986072       0.0%    100.0%      0.0%
 flops    82 x    82 x    19              7665360       0.0%    100.0%      0.0%
 flops    82 x    19 x    19              8702988       0.0%    100.0%      0.0%
 flops    19 x    19 x    57              9712344       0.0%    100.0%      0.0%
 flops    57 x    57 x    19             11111580       0.0%    100.0%      0.0%
 flops    57 x    19 x    19             12099276       0.0%    100.0%      0.0%
 flops    82 x    19 x    82             34238608       0.0%    100.0%      0.0%
 flops    82 x    19 x    57             47600016       0.0%    100.0%      0.0%
 flops    57 x    19 x    82             47600016       0.0%    100.0%      0.0%
 flops    57 x    19 x    57             66175632       0.0%    100.0%      0.0%
 flops inhomo. stacks                           0       0.0%      0.0%      0.0%
 flops total                       265.621444E+06       0.0%    100.0%      0.0%
 flops max/rank                    117.978220E+06       0.0%    100.0%      0.0%
 matmuls inhomo. stacks                         0       0.0%      0.0%      0.0%
 matmuls total                               2405       0.0%    100.0%      0.0%
 number of processed stacks                  2405       0.0%    100.0%      0.0%
 average stack size                                     0.0       1.0       0.0
 marketing flops                   280.264896E+06
 -------------------------------------------------------------------------------
 # multiplications                            655
 max memory usage/rank             580.567040E+06
 # max total images/rank                        1
 # max 3D layers                                1
 # MPI messages exchanged                  235800
 MPI messages size (bytes):
  total size                       300.451488E+06
  min size                           0.000000E+00
  max size                          53.792000E+03
  average size                       1.274179E+03
 MPI breakdown and total messages size (bytes):
             size <=      128              218140                        0
       128 < size <=     8192                2975                  8591800
      8192 < size <=    32768               11335                155608480
     32768 < size <=   131072                3350                136251200
    131072 < size <=  4194304                   0                        0
   4194304 < size <= 16777216                   0                        0
  16777216 < size                               0                        0
 -------------------------------------------------------------------------------
 -                                                                             -
 -                      DBCSR MESSAGE PASSING PERFORMANCE                      -
 -                                                                             -
 -------------------------------------------------------------------------------
 ROUTINE             CALLS      AVE VOLUME [Bytes]
 MP_Bcast               14                     12.
 MP_Allreduce         3510                      8.
 MP_Alltoall          2420                   3234.
 MP_ISend            15712                   2128.
 MP_IRecv            15712                   1102.
 -------------------------------------------------------------------------------

 -------------------------------------------------------------------------------
 -                                                                             -
 -                                GRID STATISTICS                              -
 -                                                                             -
 -------------------------------------------------------------------------------
 LP    KERNEL             BACKEND                              COUNT     PERCENT
 2     collocate ortho    REF                                  21630      12.53%
 2     integrate ortho    REF                                  20909      12.12%
 3     collocate ortho    REF                                  18780      10.88%
 3     integrate ortho    REF                                  18154      10.52%
 1     collocate ortho    REF                                  15840       9.18%
 1     integrate ortho    REF                                  15312       8.87%
 4     collocate ortho    REF                                  12930       7.49%
 4     integrate ortho    REF                                  12499       7.24%
 5     collocate ortho    REF                                   6720       3.89%
 5     integrate ortho    REF                                   6496       3.76%
 0     collocate ortho    REF                                   5280       3.06%
 0     integrate ortho    REF                                   5104       2.96%
 2     collocate general  REF                                   3132       1.81%
 2     integrate general  REF                                   3132       1.81%
 6     collocate ortho    REF                                   2460       1.43%
 6     integrate ortho    REF                                   2378       1.38%
 7     collocate ortho    REF                                    780       0.45%
 7     integrate ortho    REF                                    754       0.44%
 8     collocate ortho    REF                                    150       0.09%
 8     integrate ortho    REF                                    145       0.08%
 -------------------------------------------------------------------------------

 MEMORY| Estimated peak process memory [MiB]                                 554

 -------------------------------------------------------------------------------
 -                                                                             -
 -                         MESSAGE PASSING PERFORMANCE                         -
 -                                                                             -
 -------------------------------------------------------------------------------

 ROUTINE             CALLS      AVE VOLUME [Bytes]
 MP_Group                4
 MP_Bcast              819                 312466.
 MP_Allreduce         2307                 296163.
 MP_Sync                56
 MP_Alltoall           598                6425864.
 MP_ISendRecv         6195                 115968.
 MP_Wait             11226
 MP_comm_split          26
 MP_ISend             4680                 291600.
 MP_IRecv             4680                 291600.
 MP_Recv                 8                   6272.
 -------------------------------------------------------------------------------


 -------------------------------------------------------------------------------
 -                                                                             -
 -                           R E F E R E N C E S                               -
 -                                                                             -
 -------------------------------------------------------------------------------
 
 CP2K version 10.0 (Development Version), the CP2K developers group (2022).
 CP2K is freely available from https://www.cp2k.org/ .

 Kuehne,Thomas D.; Iannuzzi,Marcella; Del Ben,Mauro;
 Rybkin,Vladimir V.; Seewald,Patrick; Stein,Frederick; Laino,Teodoro;
 Khaliullin,Rustam Z.; Schuett,Ole; Schiffmann,Florian; Golze,Dorothea;
 Wilhelm,Jan; Chulkov,Sergey; Bani-Hashemian,Mohammad Hossein;
 Weber,Valery; Borstnik,Urban; Taillefumier,Mathieu;
 Jakobovits,Alice Shoshana; Lazzaro,Alfio; Pabst,Hans; Mueller,Tiziano;
 Schade,Robert; Guidon,Manuel; Andermatt,Samuel; Holmberg,Nico;
 Schenter,Gregory K.; Hehn,Anna; Bussy,Augustin; Belleflamme,Fabian;
 Tabacchi,Gloria; Gloess,Andreas; Lass,Michael; Bethune,Iain;
 Mundy,Christopher J.; Plessl,Christian; Watkins,Matt;
 VandeVondele,Joost; Krack,Matthias; Hutter,Juerg. 
 The Journal of Chemical Physics, 152 (19), (2020). 
 CP2K: An electronic structure and molecular dynamics software package -
 Quickstep: Efficient and accurate electronic structure calculations.
 https://doi.org/10.1063/5.0007045

 Schuett, Ole; Messmer, Peter; Hutter, Juerg; VandeVondele, Joost. 
 Electronic Structure Calculations on Graphics Processing Units, John
 Wiley & Sons, Ltd, 173-190 (2016). 
 GPU-Accelerated Sparse Matrix-Matrix Multiplication for
 Linear Scaling Density Functional Theory.
 https://doi.org/10.1002/9781118670712.ch8

 Heinecke, A; Henry, G; Hutchinson, M; Pabst, H. 
 Proceedings of Intl. Supercomputing Conference, 981-991 (2016). 
 LIBXSMM: Accelerating Small Matrix Multiplications
 by Runtime Code Generation.
 https://doi.org/10.1109/SC.2016.83

 Borstnik, U; VandeVondele, J; Weber, V; Hutter, J. 
 PARALLEL COMPUTING, 40 (5-6), 47-58 (2014). 
 Sparse matrix multiplication: The distributed block-compressed sparse
 row library.
 https://doi.org/10.1016/j.parco.2014.03.012

 Hutter, J; Iannuzzi, M; Schiffmann, F; VandeVondele, J. 
 WIREs Comput Mol Sci., 4 (1), 15-25 (2014). 
 CP2K: atomistic simulations of condensed matter systems.
 https://doi.org/10.1002/wcms.1159

 Marek, A; Blum, V; Johanni, R; Havu, V; Lang, B; Auckenthaler, T;
 Heinecke, A; Bungartz, H; Lederer, H. 
 Journal of Physics: Condensed Matter, 26 (21), (2014). 
 The ELPA library: scalable parallel eigenvalue solutions for
 electronic structure
 theory and computational science.
 https://doi.org/10.1088/0953-8984/26/21/213201

 Krack, M. 
 THEORETICAL CHEMISTRY ACCOUNTS, 114 (1-3), 145-152 (2005). 
 Pseudopotentials for H to Kr optimized for gradient-corrected
 exchange-correlation functionals.
 https://doi.org/10.1007/s00214-005-0655-y

 Frigo, M; Johnson, SG. 
 PROCEEDINGS OF THE IEEE, 93 (2), 216-231 (2005). 
 The design and implementation of FFTW3.
 https://doi.org/10.1109/JPROC.2004.840301

 VandeVondele, J; Hutter, J. 
 JOURNAL OF CHEMICAL PHYSICS, 118 (10), 4365-4369 (2003). 
 An efficient orbital transformation method for electronic structure
 calculations.
 https://doi.org/10.1063/1.1543154

 Lippert, G; Hutter, J; Parrinello, M. 
 THEORETICAL CHEMISTRY ACCOUNTS, 103 (2), 124-140 (1999). 
 The Gaussian and augmented-plane-wave density functional method for ab
 initio molecular dynamics simulations.
 https://doi.org/10.1007/s002140050523

 Krack, M; Parrinello, M. 
 PHYSICAL CHEMISTRY CHEMICAL PHYSICS, 2 (10), 2105-2112 (2000). 
 All-electron ab-initio molecular dynamics.
 https://doi.org/10.1039/b001167n

 Hartwigsen, C; Goedecker, S; Hutter, J. 
 PHYSICAL REVIEW B, 58 (7), 3641-3662 (1998). 
 Relativistic separable dual-space Gaussian pseudopotentials from H to Rn.
 https://doi.org/10.1103/PhysRevB.58.3641

 Perdew, JP; Burke, K; Ernzerhof, M. 
 PHYSICAL REVIEW LETTERS, 77 (18), 3865-3868 (1996). 
 Generalized gradient approximation made simple.
 https://doi.org/10.1103/PhysRevLett.77.3865

 Goedecker, S; Teter, M; Hutter, J. 
 PHYSICAL REVIEW B, 54 (3), 1703-1710 (1996). 
 Separable dual-space Gaussian pseudopotentials.
 https://doi.org/10.1103/PhysRevB.54.1703


 -------------------------------------------------------------------------------
 -                                                                             -
 -                                T I M I N G                                  -
 -                                                                             -
 -------------------------------------------------------------------------------
 SUBROUTINE                       CALLS  ASD         SELF TIME        TOTAL TIME
                                MAXIMUM       AVERAGE  MAXIMUM  AVERAGE  MAXIMUM
 CP2K                                 1  1.0    0.014    0.037   30.133   30.133
 qs_energies                          1  2.0    0.000    0.000   29.822   29.822
 scf_env_do_scf                       1  3.0    0.000    0.000   29.423   29.424
 scf_env_do_scf_inner_loop           29  4.0    0.001    0.001   27.692   27.692
 qs_ks_update_qs_env                 31  5.0    0.000    0.000   24.904   24.906
 rebuild_ks_matrix                   29  6.0    0.000    0.000   24.899   24.902
 qs_ks_build_kohn_sham_matrix        29  7.0    0.006    0.007   24.899   24.901
 pw_transfer                        614 10.1    0.063    0.082    7.507    8.058
 fft_wrap_pw1pw2                    527 11.3    0.007    0.009    7.376    7.925
 fft_wrap_pw1pw2_300                350 12.7    0.463    0.524    6.900    7.424
 prepare_gapw_den                    29  8.0    0.001    0.001    7.146    7.193
 fft3d_ps                           527 13.3    2.896    3.301    5.728    6.422
 qs_vxc_create                       29  8.0    0.001    0.001    6.400    6.400
 xc_vxc_pw_create                    29  9.0    0.041    0.045    6.399    6.400
 rs_pw_transfer                     294  9.5    0.007    0.010    4.849    5.057
 xc_pw_derive                       174 11.0    0.002    0.002    3.955    4.560
 calculate_rho0_atom                 58  9.0    3.499    4.206    3.499    4.206
 qs_rho_update_rho                   30  5.0    0.001    0.001    3.969    3.972
 sum_up_and_integrate                29  8.0    0.015    0.020    3.878    3.884
 integrate_v_rspace                  29  9.0    0.001    0.001    3.863    3.870
 mp_sum_d                          1338  7.4    3.520    3.793    3.520    3.793
 calculate_rho_elec                  30  6.0    0.021    0.022    3.729    3.729
 xc_rho_set_and_dset_create          29 10.0    0.043    0.050    3.404    3.649
 xc_pw_divergence                    29 10.0    0.001    0.001    2.805    3.405
 mp_alltoall_z22v                   527 15.3    2.207    3.326    2.207    3.326
 density_rs2pw                       30  7.0    0.002    0.002    2.962    3.192
 calculate_rho_atom                  58  9.0    1.048    3.154    1.048    3.154
 integrate_vhg0_rspace               29  8.0    0.338    0.758    3.139    3.154
 calculate_vxc_atom                  29  8.0    0.018    0.119    2.464    2.464
 yz_to_x                            265 13.9    0.280    0.378    1.590    2.436
 potential_pw2rs                     29 10.0    0.002    0.003    2.376    2.379
 gaVxcgb_GC                          29  9.0    0.108    2.286    0.108    2.286
 rs_pw_transfer_RS2PW_300            59 10.0    0.917    1.151    1.961    2.210
 mp_sum_dm                          267  7.7    2.046    2.197    2.046    2.197
 rs_pw_transfer_PW2RS_300            58 11.0    1.057    1.238    1.684    1.920
 mp_waitany                        4680 11.5    1.366    1.757    1.366    1.757
 xc_functional_eval                  87 10.9    0.000    0.001    1.491    1.736
 pbe_lda_eval                        87 11.9    1.491    1.735    1.491    1.735
 init_scf_loop                        2  4.0    0.000    0.000    1.730    1.730
 put_rho0_on_grid                    29  9.0    0.024    0.035    1.547    1.593
 mp_alltoall_d11v                   575 11.7    1.320    1.504    1.320    1.504
 rs_gather_matrices                  29 10.0    0.001    0.005    1.303    1.487
 grid_integrate_task_list            29 10.0    0.184    1.485    0.184    1.485
 mp_sum_dv                          962 13.0    1.057    1.438    1.057    1.438
 x_to_yz                            262 14.7    0.325    0.385    1.221    1.414
 grid_collocate_task_list            30  7.0    0.581    1.400    0.581    1.400
 mp_waitall_1                     48466 13.9    0.857    1.102    0.857    1.102
 Vh_1c_gg_integrals                  29  8.0    0.108    0.831    0.846    0.869
 pw_gather_p                        265 12.9    0.588    0.719    0.588    0.719
 rs_pw_transfer_PW2RS_100            29 12.0    0.117    0.141    0.596    0.710
 pw_scatter_p                       262 13.7    0.569    0.660    0.569    0.660
 qs_scf_new_mos                      29  5.0    0.000    0.000    0.602    0.604
 qs_scf_loop_do_ot                   29  6.0    0.000    0.000    0.602    0.604
 -------------------------------------------------------------------------------

 The number of warnings for this run is : 0
 
 -------------------------------------------------------------------------------
  **** **** ******  **  PROGRAM ENDED AT                 2022-05-31 14:46:14.452
 ***** ** ***  *** **   PROGRAM RAN ON                                   tcopt10
 **    ****   ******    PROGRAM RAN BY                                    hutter
 ***** **    ** ** **   PROGRAM PROCESS ID                                  1603
  **** **  *******  **  PROGRAM STOPPED IN /data/hutter/GITHUB/BASIS/scMOLOPT/PB
                                           E/Sn
