 DBCSR| CPU Multiplication driver                                           XSMM
 DBCSR| Multrec recursion limit                                              512
 DBCSR| Multiplication stack size                                           1000
 DBCSR| Maximum elements for images                                    UNLIMITED
 DBCSR| Multiplicative factor virtual images                                   1
 DBCSR| Use multiplication densification                                       T
 DBCSR| Multiplication size stacks                                             3
 DBCSR| Use memory pool for CPU allocation                                     F
 DBCSR| Number of 3D layers                                               SINGLE
 DBCSR| Use MPI memory allocation                                              F
 DBCSR| Use RMA algorithm                                                      F
 DBCSR| Use Communication thread                                               T
 DBCSR| Communication thread load                                             87
 DBCSR| Split modifier for TAS multiplication algorithm                  1.0E+00


  **** **** ******  **  PROGRAM STARTED AT               2020-12-02 17:43:45.412
 ***** ** ***  *** **   PROGRAM STARTED ON                               tcopt10
 **    ****   ******    PROGRAM STARTED BY                                hutter
 ***** **    ** ** **   PROGRAM PROCESS ID                                 89421
  **** **  *******  **  PROGRAM STARTED IN /data/hutter/GITHUB/BASIS/MOLOPT/PBE0
                                           /noble/q8

 CP2K| version string:                    CP2K version 8.0 (Development Version)
 CP2K| source code revision number:                                  git:afc71fa
 CP2K| cp2kflags: omp libint fftw3 libxc elpa parallel mpi3 scalapack xsmm spgli
 CP2K|            b sirius
 CP2K| is freely available from                            https://www.cp2k.org/
 CP2K| Program compiled at                          Tue Nov 17 10:27:14 CET 2020
 CP2K| Program compiled on                                               tcopt10
 CP2K| Program compiled for                                                local
 CP2K| Data directory path                 /data/hutter/GITHUB/CURRENT/cp2k/data
 CP2K| Input file name                                             Kr2q8-ref.inp

 GLOBAL| Force Environment number                                              1
 GLOBAL| Basis set file name                               ../../PBE0_UCSEGBASIS
 GLOBAL| Potential file name                                     ../../POTENTIAL
 GLOBAL| MM Potential file name                                     MM_POTENTIAL
 GLOBAL| Coordinate file name                                      __STD_INPUT__
 GLOBAL| Method name                                                        CP2K
 GLOBAL| Project name                                                   refKr2q8
 GLOBAL| Preferred FFT library                                             FFTW3
 GLOBAL| Preferred diagonalization lib.                                     ELPA
 GLOBAL| Run type                                                         ENERGY
 GLOBAL| All-to-all communication in single precision                          F
 GLOBAL| FFTs using library dependent lengths                                  F
 GLOBAL| Global print level                                                  LOW
 GLOBAL| MPI I/O enabled                                                       T
 GLOBAL| Total number of message passing processes                            24
 GLOBAL| Number of threads for this process                                    1
 GLOBAL| This output is from process                                           0
 GLOBAL| CPU model name                          AMD EPYC 7401 24-Core Processor
 GLOBAL| CPUID                                                              1002

 MEMORY| system memory details [Kb]
 MEMORY|                        rank 0           min           max       average
 MEMORY| MemTotal            263987256     263987256     263987256     263987256
 MEMORY| MemFree             258474712     258474712     258474712     258474712
 MEMORY| Buffers                    32            32            32            32
 MEMORY| Cached                2470868       2470868       2470868       2470868
 MEMORY| Slab                   797264        797264        797264        797264
 MEMORY| SReclaimable           299812        299812        299812        299812
 MEMORY| MemLikelyFree       261245424     261245424     261245424     261245424


 GENERATE|  Preliminary Number of Bonds generated:                             0
 GENERATE|  Achieved consistency in connectivity generation.

 *******************************************************************************
 *******************************************************************************
 **                                                                           **
 **     #####                         ##              ##                      **
 **    ##   ##            ##          ##              ##                      **
 **   ##     ##                       ##            ######                    **
 **   ##     ##  ##   ##  ##   #####  ##  ##   ####   ##    #####    #####    **
 **   ##     ##  ##   ##  ##  ##      ## ##   ##      ##   ##   ##  ##   ##   **
 **   ##  ## ##  ##   ##  ##  ##      ####     ###    ##   ######   ######    **
 **    ##  ###   ##   ##  ##  ##      ## ##      ##   ##   ##       ##        **
 **     #######   #####   ##   #####  ##  ##  ####    ##    #####   ##        **
 **           ##                                                    ##        **
 **                                                                           **
 **                                                ... make the atoms dance   **
 **                                                                           **
 **            Copyright (C) by CP2K developers group (2000 - 2020)           **
 **                      J. Chem. Phys. 152, 194103 (2020)                    **
 **                                                                           **
 *******************************************************************************


 TOTAL NUMBERS AND MAXIMUM NUMBERS

  Total number of            - Atomic kinds:                                   1
                             - Atoms:                                          2
                             - Shell sets:                                    24
                             - Shells:                                        56
                             - Primitive Cartesian functions:                 24
                             - Cartesian basis functions:                    312
                             - Spherical basis functions:                    232

  Maximum angular momentum of the orbital basis functions:                     4


 SCF PARAMETERS         Density guess:                                    ATOMIC
                        --------------------------------------------------------
                        max_scf:                                              10
                        max_scf_history:                                       0
                        max_diis:                                              4
                        --------------------------------------------------------
                        eps_scf:                                        1.00E-07
                        eps_scf_history:                                0.00E+00
                        eps_diis:                                       1.00E-01
                        eps_eigval:                                     1.00E-05
                        --------------------------------------------------------
                        level_shift [a.u.]:                                 0.00
                        --------------------------------------------------------
                        Outer loop SCF in use 
                        No variables optimised in outer loop
                        eps_scf                                         1.00E-07
                        max_scf                                               10
                        No outer loop optimization
                        step_size                                       5.00E-01

 *** WARNING in hfx_types.F:1958 :: Periodic Hartree Fock calculation     ***
 *** requested without use of a truncated or shortrange potential. This   ***
 *** may lead to unphysical total energies. Use a truncated  potential to ***
 *** avoid possible problems.                                             ***


 Number of electrons:                                                         16
 Number of occupied orbitals:                                                  8
 Number of molecular orbitals:                                                 8

 Number of orbital functions:                                                232
 Number of independent orbital functions:                                    232

 Extrapolation method: initial_guess


 SCF WAVEFUNCTION OPTIMIZATION

  ----------------------------------- OT ---------------------------------------
  Minimizer      : DIIS                : direct inversion
                                         in the iterative subspace
                                         using   7 DIIS vectors
                                         safer DIIS on
  Preconditioner : FULL_ALL            : diagonalization, state selective
  Precond_solver : DEFAULT
  stepsize       :    0.15000000                  energy_gap     :    0.08000000
  eps_taylor     :   0.10000E-15                  max_taylor     :             4
  ----------------------------------- OT ---------------------------------------

  Step     Update method      Time    Convergence         Total energy    Change
  ------------------------------------------------------------------------------
     1 OT DIIS     0.15E+00   25.0     0.00190868       -36.9244788241 -3.69E+01
     2 OT DIIS     0.15E+00    1.4     0.00079575       -36.9251887004 -7.10E-04
     3 OT DIIS     0.15E+00    1.3     0.00008691       -36.9253444747 -1.56E-04
     4 OT DIIS     0.15E+00    1.3     0.00001003       -36.9253463096 -1.83E-06
     5 OT DIIS     0.15E+00    1.3     0.00000364       -36.9253463310 -2.14E-08
     6 OT DIIS     0.15E+00    1.3     0.00000022       -36.9253463343 -3.31E-09
     7 OT DIIS     0.15E+00    1.3     0.00000002       -36.9253463343 -1.23E-11

  *** SCF run converged in     7 steps ***


  Electronic density on regular grids:        -16.0000000000        0.0000000000
  Core density on regular grids:               16.0000000000       -0.0000000000
  Total charge density on r-space grids:       -0.0000000000
  Total charge density g-space grids:          -0.0000000000

  Overlap energy of the core charge distribution:               0.00000000000000
  Self energy of the core charge distribution:                -73.37932962352849
  Core Hamiltonian energy:                                     16.53449850448833
  Hartree energy:                                              26.36077558663590
  Exchange-correlation energy:                                 -4.95664842021549
  Hartree-Fock Exchange energy:                                -1.48464238168599

  Total energy:                                               -36.92534633430575

  outer SCF iter =    1 RMS gradient =   0.18E-07 energy =        -36.9253463343
  outer SCF loop converged in   1 iterations or    7 steps


 ENERGY| Total FORCE_EVAL ( QS ) energy [a.u.]:              -36.925346334305750

 -------------------------------------------------------------------------------
 -                                                                             -
 -                                DBCSR STATISTICS                             -
 -                                                                             -
 -------------------------------------------------------------------------------
 COUNTER                                    TOTAL       BLAS       SMM       ACC
 flops     8 x     8 x     8                65536       0.0%    100.0%      0.0%
 flops     8 x     8 x   116               861184       0.0%    100.0%      0.0%
 flops   232 x     8 x     8              1069056       0.0%    100.0%      0.0%
 flops   116 x   116 x     8              5167104       0.0%    100.0%      0.0%
 flops   232 x     8 x   116             13778944       0.0%    100.0%      0.0%
 flops   116 x     8 x   116             18946048       0.0%    100.0%      0.0%
 flops inhomo. stacks                           0       0.0%      0.0%      0.0%
 flops total                        39.887872E+06       0.0%    100.0%      0.0%
 flops max/rank                     39.887872E+06       0.0%    100.0%      0.0%
 matmuls inhomo. stacks                         0       0.0%      0.0%      0.0%
 matmuls total                                302       0.0%    100.0%      0.0%
 number of processed stacks                   242       0.0%    100.0%      0.0%
 average stack size                                     0.0       1.2       0.0
 marketing flops                    41.639920E+06
 -------------------------------------------------------------------------------
 # multiplications                            176
 max memory usage/rank               1.005437E+09
 # max total images/rank                        3
 # max 3D layers                                1
 # MPI messages exchanged                   80256
 MPI messages size (bytes):
  total size                        90.890240E+06
  min size                           0.000000E+00
  max size                         215.296000E+03
  average size                       1.132504E+03
 MPI breakdown and total messages size (bytes):
             size <=      128               78320                        0
       128 < size <=     8192                1312                  5454848
      8192 < size <=    32768                 244                  3622912
     32768 < size <=   131072                   0                        0
    131072 < size <=  4194304                 380                 81812480
   4194304 < size <= 16777216                   0                        0
  16777216 < size                               0                        0
 -------------------------------------------------------------------------------

 *** WARNING in dbcsr_mm.F:297 :: Using a non-square number of MPI ranks ***
 *** might lead to poor performance. Used ranks: 24 Suggested: 25 49     ***

 -------------------------------------------------------------------------------
 -                                                                             -
 -                      DBCSR MESSAGE PASSING PERFORMANCE                      -
 -                                                                             -
 -------------------------------------------------------------------------------
 ROUTINE             CALLS      AVE VOLUME [Bytes]
 MP_Bcast                7                     12.
 MP_Allreduce          944                      8.
 MP_Alltoall           714                   9544.
 MP_ISend             7388                   2584.
 MP_IRecv             7388                     60.
 -------------------------------------------------------------------------------

 -------------------------------------------------------------------------------
 -                                                                             -
 -                                GRID STATISTICS                              -
 -                                                                             -
 -------------------------------------------------------------------------------
 LP    KERNEL    OPERATION                                     COUNT     PERCENT
 0     general   collocate                                        48       0.59%
 2     ortho     integrate                                      1778      22.02%
 2     ortho     collocate                                      2032      25.17%
 5     ortho     integrate                                      1610      19.94%
 5     ortho     collocate                                      1840      22.79%
 8     ortho     integrate                                       357       4.42%
 8     ortho     collocate                                       408       5.05%
 -------------------------------------------------------------------------------

 MEMORY| Estimated peak process memory [MiB]                                 960

 -------------------------------------------------------------------------------
 -                                                                             -
 -                         MESSAGE PASSING PERFORMANCE                         -
 -                                                                             -
 -------------------------------------------------------------------------------

 ROUTINE             CALLS      AVE VOLUME [Bytes]
 MP_Group                4
 MP_Bcast               52                1714545.
 MP_Allreduce          259                   2296.
 MP_Sync                44
 MP_Alltoall           152                9194162.
 MP_ISendRecv         1403                 215225.
 MP_Wait              1947
 MP_comm_split           2
 MP_ISend              480                 493698.
 MP_IRecv              480                 494238.
 MP_Recv                 3                   3712.
 -------------------------------------------------------------------------------


 -------------------------------------------------------------------------------
 -                                                                             -
 -                           R E F E R E N C E S                               -
 -                                                                             -
 -------------------------------------------------------------------------------
 
 CP2K version 8.0 (Development Version), the CP2K developers group (2020).
 CP2K is freely available from https://www.cp2k.org/ .

 Kuehne,Thomas D.; Iannuzzi,Marcella; Del Ben,Mauro;
 Rybkin,Vladimir V.; Seewald,Patrick; Stein,Frederick; Laino,Teodoro;
 Khaliullin,Rustam Z.; Schuett,Ole; Schiffmann,Florian; Golze,Dorothea;
 Wilhelm,Jan; Chulkov,Sergey; Bani-Hashemian,Mohammad Hossein;
 Weber,Valery; Borstnik,Urban; Taillefumier,Mathieu;
 Jakobovits,Alice Shoshana; Lazzaro,Alfio; Pabst,Hans; Mueller,Tiziano;
 Schade,Robert; Guidon,Manuel; Andermatt,Samuel; Holmberg,Nico;
 Schenter,Gregory K.; Hehn,Anna; Bussy,Augustin; Belleflamme,Fabian;
 Tabacchi,Gloria; Gloess,Andreas; Lass,Michael; Bethune,Iain;
 Mundy,Christopher J.; Plessl,Christian; Watkins,Matt;
 VandeVondele,Joost; Krack,Matthias; Hutter,Juerg. 
 The Journal of Chemical Physics, 152 (19), (2020). 
 CP2K: An electronic structure and molecular dynamics software package -
 Quickstep: Efficient and accurate electronic structure calculations.
 https://doi.org/10.1063/5.0007045

 Schuett, Ole; Messmer, Peter; Hutter, Juerg; VandeVondele, Joost. 
 Electronic Structure Calculations on Graphics Processing Units, John
 Wiley & Sons, Ltd, 173-190 (2016). 
 GPU-Accelerated Sparse Matrix-Matrix Multiplication for
 Linear Scaling Density Functional Theory.
 https://doi.org/10.1002/9781118670712.ch8

 Borstnik, U; VandeVondele, J; Weber, V; Hutter, J. 
 PARALLEL COMPUTING, 40 (5-6), 47-58 (2014). 
 Sparse matrix multiplication: The distributed block-compressed sparse
 row library.
 https://doi.org/10.1016/j.parco.2014.03.012

 Hutter, J; Iannuzzi, M; Schiffmann, F; VandeVondele, J. 
 WIREs Comput Mol Sci., 4 (1), 15-25 (2014). 
 CP2K: atomistic simulations of condensed matter systems.
 https://doi.org/10.1002/wcms.1159

 Marek, A; Blum, V; Johanni, R; Havu, V; Lang, B; Auckenthaler, T;
 Heinecke, A; Bungartz, H; Lederer, H. 
 Journal of Physics: Condensed Matter, 26 (21), (2014). 
 The ELPA library: scalable parallel eigenvalue solutions for
 electronic structure
 theory and computational science.
 https://doi.org/10.1088/0953-8984/26/21/213201

 Guidon, M; Hutter, J; VandeVondele, J. 
 JOURNAL OF CHEMICAL THEORY AND COMPUTATION, 5 (11), 3010-3021 (2009). 
 Robust Periodic Hartree-Fock Exchange for Large-Scale Simulations Using
 Gaussian Basis Sets.
 https://doi.org/10.1021/ct900494g

 Guidon, M; Schiffmann, F; Hutter, J; VandeVondele, J. 
 JOURNAL OF CHEMICAL PHYSICS, 128 (21), 214104 (2008). 
 Ab initio molecular dynamics using hybrid density functionals.
 https://doi.org/10.1063/1.2931945

 Krack, M. 
 THEORETICAL CHEMISTRY ACCOUNTS, 114 (1-3), 145-152 (2005). 
 Pseudopotentials for H to Kr optimized for gradient-corrected
 exchange-correlation functionals.
 https://doi.org/10.1007/s00214-005-0655-y

 VandeVondele, J; Krack, M; Mohamed, F; Parrinello, M; Chassaing, T;
 Hutter, J. COMPUTER PHYSICS COMMUNICATIONS, 167 (2), 103-128 (2005). 
 QUICKSTEP: Fast and accurate density functional calculations using a
 mixed Gaussian and plane waves approach.
 https://doi.org/10.1016/j.cpc.2004.12.014

 Frigo, M; Johnson, SG. 
 PROCEEDINGS OF THE IEEE, 93 (2), 216-231 (2005). 
 The design and implementation of FFTW3.
 https://doi.org/10.1109/JPROC.2004.840301

 VandeVondele, J; Hutter, J. 
 JOURNAL OF CHEMICAL PHYSICS, 118 (10), 4365-4369 (2003). 
 An efficient orbital transformation method for electronic structure
 calculations.
 https://doi.org/10.1063/1.1543154

 Hartwigsen, C; Goedecker, S; Hutter, J. 
 PHYSICAL REVIEW B, 58 (7), 3641-3662 (1998). 
 Relativistic separable dual-space Gaussian pseudopotentials from H to Rn.
 https://doi.org/10.1103/PhysRevB.58.3641

 Lippert, G; Hutter, J; Parrinello, M. 
 MOLECULAR PHYSICS, 92 (3), 477-487 (1997). 
 A hybrid Gaussian and plane wave density functional scheme.
 https://doi.org/10.1080/002689797170220

 Perdew, JP; Burke, K; Ernzerhof, M. 
 PHYSICAL REVIEW LETTERS, 77 (18), 3865-3868 (1996). 
 Generalized gradient approximation made simple.
 https://doi.org/10.1103/PhysRevLett.77.3865

 Goedecker, S; Teter, M; Hutter, J. 
 PHYSICAL REVIEW B, 54 (3), 1703-1710 (1996). 
 Separable dual-space Gaussian pseudopotentials.
 https://doi.org/10.1103/PhysRevB.54.1703


 -------------------------------------------------------------------------------
 -                                                                             -
 -                                T I M I N G                                  -
 -                                                                             -
 -------------------------------------------------------------------------------
 SUBROUTINE                       CALLS  ASD         SELF TIME        TOTAL TIME
                                MAXIMUM       AVERAGE  MAXIMUM  AVERAGE  MAXIMUM
 CP2K                                 1  1.0    0.015    0.048   33.427   33.428
 qs_energies                          1  2.0    0.000    0.000   33.273   33.274
 scf_env_do_scf                       1  3.0    0.000    0.000   33.050   33.050
 qs_ks_update_qs_env                  8  5.0    0.000    0.000   31.988   31.993
 rebuild_ks_matrix                    7  6.0    0.000    0.000   31.986   31.992
 qs_ks_build_kohn_sham_matrix         7  7.0    0.001    0.002   31.986   31.992
 hfx_ks_matrix                        7  8.0    0.000    0.000   29.064   29.068
 integrate_four_center                7  9.0    0.011    0.015   29.064   29.067
 init_scf_loop                        1  4.0    0.000    0.000   24.974   24.974
 mp_sync                             44 10.6   13.349   17.351   13.349   17.351
 integrate_four_center_main           7 10.0    0.001    0.001    3.999   17.223
 integrate_four_center_bin          896 11.0    3.998   17.222    3.998   17.222
 calc_screening_functions             1 10.0   10.823   10.953   11.008   11.138
 scf_env_do_scf_inner_loop            7  4.0    0.000    0.001    8.075    8.075
 pw_transfer                        139  9.5    0.012    0.015    2.204    2.419
 fft_wrap_pw1pw2                    125 10.6    0.002    0.002    2.177    2.397
 fft_wrap_pw1pw2_300                 80 11.7    0.099    0.111    2.084    2.279
 qs_vxc_create                        7  8.0    0.000    0.000    2.030    2.040
 xc_vxc_pw_create                     7  9.0    0.017    0.019    2.029    2.040
 fft3d_ps                           125 12.6    0.816    0.883    1.736    2.031
 xc_rho_set_and_dset_create           7 10.0    0.007    0.008    1.151    1.267
 mp_alltoall_z22v                   125 14.6    0.734    1.139    0.734    1.139
 qs_rho_update_rho                    8  5.0    0.000    0.000    0.982    0.982
 calculate_rho_elec                   8  6.0    0.009    0.009    0.982    0.982
 yz_to_x                             61 13.0    0.076    0.114    0.492    0.785
 density_rs2pw                        8  7.0    0.000    0.001    0.726    0.757
 rs_pw_transfer                      61  9.3    0.001    0.002    0.655    0.688
 xc_functional_eval                   7 11.0    0.000    0.000    0.563    0.677
 pbe_lda_eval                         7 12.0    0.563    0.677    0.563    0.677
 -------------------------------------------------------------------------------

 The number of warnings for this run is : 2
 
 -------------------------------------------------------------------------------
  **** **** ******  **  PROGRAM ENDED AT                 2020-12-02 17:44:19.496
 ***** ** ***  *** **   PROGRAM RAN ON                                   tcopt10
 **    ****   ******    PROGRAM RAN BY                                    hutter
 ***** **    ** ** **   PROGRAM PROCESS ID                                 89421
  **** **  *******  **  PROGRAM STOPPED IN /data/hutter/GITHUB/BASIS/MOLOPT/PBE0
                                           /noble/q8
