
  **** **** ******  **  PROGRAM STARTED AT               2020-12-02 19:49:16.652
 ***** ** ***  *** **   PROGRAM STARTED ON                               tcopt10
 **    ****   ******    PROGRAM STARTED BY                                hutter
 ***** **    ** ** **   PROGRAM PROCESS ID                                 15663
  **** **  *******  **  PROGRAM STARTED IN /data/hutter/GITHUB/BASIS/MOLOPT/PBE0
                                           /noble/q8

 CP2K| version string:                    CP2K version 8.0 (Development Version)
 CP2K| source code revision number:                                  git:afc71fa
 CP2K| cp2kflags: omp libint fftw3 libxc elpa parallel mpi3 scalapack xsmm spgli
 CP2K|            b sirius
 CP2K| is freely available from                            https://www.cp2k.org/
 CP2K| Program compiled at                          Tue Nov 17 10:27:14 CET 2020
 CP2K| Program compiled on                                               tcopt10
 CP2K| Program compiled for                                                local
 CP2K| Data directory path                 /data/hutter/GITHUB/CURRENT/cp2k/data
 CP2K| Input file name                                       opt-dzvp_henear.inp

 GLOBAL| Method name                                              OPTIMIZE_BASIS
 GLOBAL| Project name                                                     molopt
 GLOBAL| Preferred FFT library                                             FFTW3
 GLOBAL| Preferred diagonalization lib.                                     ELPA
 GLOBAL| Run type                                                   ENERGY_FORCE
 GLOBAL| All-to-all communication in single precision                          F
 GLOBAL| FFTs using library dependent lengths                                  F
 GLOBAL| Global print level                                               MEDIUM
 GLOBAL| MPI I/O enabled                                                       T
 GLOBAL| Total number of message passing processes                            36
 GLOBAL| Number of threads for this process                                    1
 GLOBAL| This output is from process                                           0
 GLOBAL| CPU model name                          AMD EPYC 7401 24-Core Processor
 GLOBAL| CPUID                                                              1002

 MEMORY| system memory details [Kb]
 MEMORY|                        rank 0           min           max       average
 MEMORY| MemTotal            263987256     263987256     263987256     263987256
 MEMORY| MemFree             257649128     257649128     257649128     257649128
 MEMORY| Buffers                    32            32            32            32
 MEMORY| Cached                2697808       2697808       2697808       2697808
 MEMORY| Slab                   801140        801140        801140        801140
 MEMORY| SReclaimable           300920        300920        300920        300920
 MEMORY| MemLikelyFree       260647888     260647888     260647888     260647888


 *** Fundamental physical constants (SI units) ***

 *** Literature: B. J. Mohr and B. N. Taylor,
 ***             CODATA recommended values of the fundamental physical
 ***             constants: 2006, Web Version 5.1
 ***             http://physics.nist.gov/constants

 Speed of light in vacuum [m/s]                             2.99792458000000E+08
 Magnetic constant or permeability of vacuum [N/A**2]       1.25663706143592E-06
 Electric constant or permittivity of vacuum [F/m]          8.85418781762039E-12
 Planck constant (h) [J*s]                                  6.62606896000000E-34
 Planck constant (h-bar) [J*s]                              1.05457162825177E-34
 Elementary charge [C]                                      1.60217648700000E-19
 Electron mass [kg]                                         9.10938215000000E-31
 Electron g factor [ ]                                     -2.00231930436220E+00
 Proton mass [kg]                                           1.67262163700000E-27
 Fine-structure constant                                    7.29735253760000E-03
 Rydberg constant [1/m]                                     1.09737315685270E+07
 Avogadro constant [1/mol]                                  6.02214179000000E+23
 Boltzmann constant [J/K]                                   1.38065040000000E-23
 Atomic mass unit [kg]                                      1.66053878200000E-27
 Bohr radius [m]                                            5.29177208590000E-11

 *** Conversion factors ***

 [u] -> [a.u.]                                              1.82288848426455E+03
 [Angstrom] -> [Bohr] = [a.u.]                              1.88972613288564E+00
 [a.u.] = [Bohr] -> [Angstrom]                              5.29177208590000E-01
 [a.u.] -> [s]                                              2.41888432650478E-17
 [a.u.] -> [fs]                                             2.41888432650478E-02
 [a.u.] -> [J]                                              4.35974393937059E-18
 [a.u.] -> [N]                                              8.23872205491840E-08
 [a.u.] -> [K]                                              3.15774647902944E+05
 [a.u.] -> [kJ/mol]                                         2.62549961709828E+03
 [a.u.] -> [kcal/mol]                                       6.27509468713739E+02
 [a.u.] -> [Pa]                                             2.94210107994716E+13
 [a.u.] -> [bar]                                            2.94210107994716E+08
 [a.u.] -> [atm]                                            2.90362800883016E+08
 [a.u.] -> [eV]                                             2.72113838565563E+01
 [a.u.] -> [Hz]                                             6.57968392072181E+15
 [a.u.] -> [1/cm] (wave numbers)                            2.19474631370540E+05
 [a.u./Bohr**2] -> [1/cm]                                   5.14048714338585E+03
 
 DBCSR| CPU Multiplication driver                                           XSMM
 DBCSR| Multrec recursion limit                                              512
 DBCSR| Multiplication stack size                                           1000
 DBCSR| Maximum elements for images                                    UNLIMITED
 DBCSR| Multiplicative factor virtual images                                   1
 DBCSR| Use multiplication densification                                       T
 DBCSR| Multiplication size stacks                                             3
 DBCSR| Use memory pool for CPU allocation                                     F
 DBCSR| Number of 3D layers                                               SINGLE
 DBCSR| Use MPI memory allocation                                              F
 DBCSR| Use RMA algorithm                                                      F
 DBCSR| Use Communication thread                                               T
 DBCSR| Communication thread load                                             87
 DBCSR| Split modifier for TAS multiplication algorithm                  1.0E+00


 *******************************************************************************
 *   ___                                                                       *
 *  /   \                                                                      *
 * [ABORT]                                                                     *
 *  \___/   The requested basis set <DZVP-MOLOPT-PBE0-GTH-Q2> for element <HE> *
 *    |                was not found in the template basis set file            *
 *  O/|                                                                        *
 * /| |                                                                        *
 * / \                                             optimize_basis_utils.F:1073 *
 *******************************************************************************


 ===== Routine Calling Stack ===== 

            2 run_optimize_basis
            1 CP2K

  **** **** ******  **  PROGRAM STARTED AT               2020-12-02 19:50:05.924
 ***** ** ***  *** **   PROGRAM STARTED ON                               tcopt10
 **    ****   ******    PROGRAM STARTED BY                                hutter
 ***** **    ** ** **   PROGRAM PROCESS ID                                 15882
  **** **  *******  **  PROGRAM STARTED IN /data/hutter/GITHUB/BASIS/MOLOPT/PBE0
                                           /noble/q8

 CP2K| version string:                    CP2K version 8.0 (Development Version)
 CP2K| source code revision number:                                  git:afc71fa
 CP2K| cp2kflags: omp libint fftw3 libxc elpa parallel mpi3 scalapack xsmm spgli
 CP2K|            b sirius
 CP2K| is freely available from                            https://www.cp2k.org/
 CP2K| Program compiled at                          Tue Nov 17 10:27:14 CET 2020
 CP2K| Program compiled on                                               tcopt10
 CP2K| Program compiled for                                                local
 CP2K| Data directory path                 /data/hutter/GITHUB/CURRENT/cp2k/data
 CP2K| Input file name                                       opt-dzvp_henear.inp

 GLOBAL| Method name                                              OPTIMIZE_BASIS
 GLOBAL| Project name                                                     molopt
 GLOBAL| Preferred FFT library                                             FFTW3
 GLOBAL| Preferred diagonalization lib.                                     ELPA
 GLOBAL| Run type                                                   ENERGY_FORCE
 GLOBAL| All-to-all communication in single precision                          F
 GLOBAL| FFTs using library dependent lengths                                  F
 GLOBAL| Global print level                                               MEDIUM
 GLOBAL| MPI I/O enabled                                                       T
 GLOBAL| Total number of message passing processes                            36
 GLOBAL| Number of threads for this process                                    1
 GLOBAL| This output is from process                                           0
 GLOBAL| CPU model name                          AMD EPYC 7401 24-Core Processor
 GLOBAL| CPUID                                                              1002

 MEMORY| system memory details [Kb]
 MEMORY|                        rank 0           min           max       average
 MEMORY| MemTotal            263987256     263987256     263987256     263987256
 MEMORY| MemFree             257643120     257643120     257643120     257643120
 MEMORY| Buffers                    32            32            32            32
 MEMORY| Cached                2699760       2699760       2699760       2699760
 MEMORY| Slab                   802004        802004        802004        802004
 MEMORY| SReclaimable           302520        302520        302520        302520
 MEMORY| MemLikelyFree       260645432     260645432     260645432     260645432


 *** Fundamental physical constants (SI units) ***

 *** Literature: B. J. Mohr and B. N. Taylor,
 ***             CODATA recommended values of the fundamental physical
 ***             constants: 2006, Web Version 5.1
 ***             http://physics.nist.gov/constants

 Speed of light in vacuum [m/s]                             2.99792458000000E+08
 Magnetic constant or permeability of vacuum [N/A**2]       1.25663706143592E-06
 Electric constant or permittivity of vacuum [F/m]          8.85418781762039E-12
 Planck constant (h) [J*s]                                  6.62606896000000E-34
 Planck constant (h-bar) [J*s]                              1.05457162825177E-34
 Elementary charge [C]                                      1.60217648700000E-19
 Electron mass [kg]                                         9.10938215000000E-31
 Electron g factor [ ]                                     -2.00231930436220E+00
 Proton mass [kg]                                           1.67262163700000E-27
 Fine-structure constant                                    7.29735253760000E-03
 Rydberg constant [1/m]                                     1.09737315685270E+07
 Avogadro constant [1/mol]                                  6.02214179000000E+23
 Boltzmann constant [J/K]                                   1.38065040000000E-23
 Atomic mass unit [kg]                                      1.66053878200000E-27
 Bohr radius [m]                                            5.29177208590000E-11

 *** Conversion factors ***

 [u] -> [a.u.]                                              1.82288848426455E+03
 [Angstrom] -> [Bohr] = [a.u.]                              1.88972613288564E+00
 [a.u.] = [Bohr] -> [Angstrom]                              5.29177208590000E-01
 [a.u.] -> [s]                                              2.41888432650478E-17
 [a.u.] -> [fs]                                             2.41888432650478E-02
 [a.u.] -> [J]                                              4.35974393937059E-18
 [a.u.] -> [N]                                              8.23872205491840E-08
 [a.u.] -> [K]                                              3.15774647902944E+05
 [a.u.] -> [kJ/mol]                                         2.62549961709828E+03
 [a.u.] -> [kcal/mol]                                       6.27509468713739E+02
 [a.u.] -> [Pa]                                             2.94210107994716E+13
 [a.u.] -> [bar]                                            2.94210107994716E+08
 [a.u.] -> [atm]                                            2.90362800883016E+08
 [a.u.] -> [eV]                                             2.72113838565563E+01
 [a.u.] -> [Hz]                                             6.57968392072181E+15
 [a.u.] -> [1/cm] (wave numbers)                            2.19474631370540E+05
 [a.u./Bohr**2] -> [1/cm]                                   5.14048714338585E+03
 
 DBCSR| CPU Multiplication driver                                           XSMM
 DBCSR| Multrec recursion limit                                              512
 DBCSR| Multiplication stack size                                           1000
 DBCSR| Maximum elements for images                                    UNLIMITED
 DBCSR| Multiplicative factor virtual images                                   1
 DBCSR| Use multiplication densification                                       T
 DBCSR| Multiplication size stacks                                             3
 DBCSR| Use memory pool for CPU allocation                                     F
 DBCSR| Number of 3D layers                                               SINGLE
 DBCSR| Use MPI memory allocation                                              F
 DBCSR| Use RMA algorithm                                                      F
 DBCSR| Use Communication thread                                               T
 DBCSR| Communication thread load                                             87
 DBCSR| Split modifier for TAS multiplication algorithm                  1.0E+00

 BASOPT| Total number of calculations      7

 BASOPT| Content of basis combination      1
 BASOPT|     Element:   HE    Basis set:    DZVP-MOLOPT-PBE0-GTH-Q2
 BASOPT|     Element:   NE    Basis set:    DZVP-MOLOPT-PBE0-GTH-Q8
 BASOPT|     Element:   AR    Basis set:    DZVP-MOLOPT-PBE0-GTH-Q8

 BASOPT| Information at iteration number:       0
 BASOPT| Training set | Combination | Rho difference | Condition num. | Time
 BASOPT| -----------------------------------------------------------------------
 BASOPT|        1     |       1     | 0.31591239E-03 | 0.81160019E+01 |    0.013
 BASOPT|        2     |       1     | 0.32046725E-03 | 0.40535662E+01 |    0.009
 BASOPT|        3     |       1     | 0.16307621E-03 | 0.64616669E+01 |    0.008
 BASOPT|        4     |       1     | 0.51133572E-04 | 0.50021360E+01 |    0.010
 BASOPT|        5     |       1     | 0.91303887E-03 | 0.14192604E+03 |    0.023
 BASOPT|        6     |       1     | 0.26210852E-04 | 0.15780662E+01 |    0.006
 BASOPT|        7     |       1     | 0.61444704E-03 | 0.44698574E+01 |    0.012
 BASOPT| -----------------------------------------------------------------------
 BASOPT| Total residuum value: -.43538595E+03

 BASOPT| Information at iteration number:     100
 BASOPT| Training set | Combination | Rho difference | Condition num. | Time
 BASOPT| -----------------------------------------------------------------------
 BASOPT|        1     |       1     | 0.31591239E-03 | 0.81160019E+01 |    1.070
 BASOPT|        2     |       1     | 0.32046725E-03 | 0.40535662E+01 |    0.655
 BASOPT|        3     |       1     | 0.16307621E-03 | 0.64616669E+01 |    0.641
 BASOPT|        4     |       1     | 0.51051968E-04 | 0.50093093E+01 |    0.619
 BASOPT|        5     |       1     | 0.91314559E-03 | 0.14290733E+03 |    2.233
 BASOPT|        6     |       1     | 0.26162781E-04 | 0.15814827E+01 |    0.475
 BASOPT|        7     |       1     | 0.61444704E-03 | 0.44698574E+01 |    1.031
 BASOPT| -----------------------------------------------------------------------
 BASOPT| Total residuum value: -.43538595E+03

 BASOPT| Information at iteration number:     200
 BASOPT| Training set | Combination | Rho difference | Condition num. | Time
 BASOPT| -----------------------------------------------------------------------
 BASOPT|        1     |       1     | 0.26547863E-03 | 0.61699971E+01 |    2.230
 BASOPT|        2     |       1     | 0.32457084E-03 | 0.40402079E+01 |    1.339
 BASOPT|        3     |       1     | 0.13825298E-03 | 0.48806707E+01 |    1.311
 BASOPT|        4     |       1     | 0.29157556E-04 | 0.46545425E+01 |    1.266
 BASOPT|        5     |       1     | 0.83145399E-03 | 0.12671968E+03 |    4.703
 BASOPT|        6     |       1     | 0.14839703E-04 | 0.16093219E+01 |    0.973
 BASOPT|        7     |       1     | 0.61893320E-03 | 0.44460028E+01 |    2.136
 BASOPT| -----------------------------------------------------------------------
 BASOPT| Total residuum value: -.43540723E+03

 BASOPT| Information at iteration number:     300
 BASOPT| Training set | Combination | Rho difference | Condition num. | Time
 BASOPT| -----------------------------------------------------------------------
 BASOPT|        1     |       1     | 0.28041320E-03 | 0.58323590E+01 |    3.382
 BASOPT|        2     |       1     | 0.29852557E-03 | 0.38874465E+01 |    2.015
 BASOPT|        3     |       1     | 0.14581329E-03 | 0.45928178E+01 |    1.973
 BASOPT|        4     |       1     | 0.43054635E-04 | 0.42951185E+01 |    1.910
 BASOPT|        5     |       1     | 0.77649953E-03 | 0.11296766E+03 |    7.172
 BASOPT|        6     |       1     | 0.24462219E-04 | 0.16112798E+01 |    1.469
 BASOPT|        7     |       1     | 0.57010649E-03 | 0.42890194E+01 |    3.243
 BASOPT| -----------------------------------------------------------------------
 BASOPT| Total residuum value: -.43541591E+03

 BASOPT| Information at iteration number:     400
 BASOPT| Training set | Combination | Rho difference | Condition num. | Time
 BASOPT| -----------------------------------------------------------------------
 BASOPT|        1     |       1     | 0.27162084E-03 | 0.52462888E+01 |    4.533
 BASOPT|        2     |       1     | 0.28751333E-03 | 0.37907284E+01 |    2.690
 BASOPT|        3     |       1     | 0.14103749E-03 | 0.40838619E+01 |    2.633
 BASOPT|        4     |       1     | 0.36948029E-04 | 0.43371444E+01 |    2.556
 BASOPT|        5     |       1     | 0.75667155E-03 | 0.11382611E+03 |    9.642
 BASOPT|        6     |       1     | 0.20820559E-04 | 0.16144089E+01 |    1.966
 BASOPT|        7     |       1     | 0.54861805E-03 | 0.41970709E+01 |    4.350
 BASOPT| -----------------------------------------------------------------------
 BASOPT| Total residuum value: -.43542231E+03

 BASOPT| Information at iteration number:     500
 BASOPT| Training set | Combination | Rho difference | Condition num. | Time
 BASOPT| -----------------------------------------------------------------------
 BASOPT|        1     |       1     | 0.29117222E-03 | 0.46825765E+01 |    5.683
 BASOPT|        2     |       1     | 0.26323387E-03 | 0.36936013E+01 |    3.365
 BASOPT|        3     |       1     | 0.15087854E-03 | 0.35886182E+01 |    3.294
 BASOPT|        4     |       1     | 0.54147167E-04 | 0.41687289E+01 |    3.201
 BASOPT|        5     |       1     | 0.75101733E-03 | 0.10581775E+03 |   12.113
 BASOPT|        6     |       1     | 0.30411226E-04 | 0.15546062E+01 |    2.462
 BASOPT|        7     |       1     | 0.50554727E-03 | 0.41342443E+01 |    5.457
 BASOPT| -----------------------------------------------------------------------
 BASOPT| Total residuum value: -.43542983E+03

 BASOPT| Information at iteration number:     600
 BASOPT| Training set | Combination | Rho difference | Condition num. | Time
 BASOPT| -----------------------------------------------------------------------
 BASOPT|        1     |       1     | 0.28721096E-03 | 0.43363691E+01 |    6.833
 BASOPT|        2     |       1     | 0.27065308E-03 | 0.35479635E+01 |    4.039
 BASOPT|        3     |       1     | 0.14848441E-03 | 0.32852056E+01 |    3.955
 BASOPT|        4     |       1     | 0.53908501E-04 | 0.41386269E+01 |    3.848
 BASOPT|        5     |       1     | 0.76785602E-03 | 0.10274085E+03 |   14.586
 BASOPT|        6     |       1     | 0.29263161E-04 | 0.15068134E+01 |    2.959
 BASOPT|        7     |       1     | 0.52316962E-03 | 0.40191523E+01 |    6.564
 BASOPT| -----------------------------------------------------------------------
 BASOPT| Total residuum value: -.43543044E+03

 BASOPT| Information at iteration number:     700
 BASOPT| Training set | Combination | Rho difference | Condition num. | Time
 BASOPT| -----------------------------------------------------------------------
 BASOPT|        1     |       1     | 0.25896172E-03 | 0.40035794E+01 |    7.983
 BASOPT|        2     |       1     | 0.26784822E-03 | 0.33742892E+01 |    4.717
 BASOPT|        3     |       1     | 0.13299430E-03 | 0.29411238E+01 |    4.615
 BASOPT|        4     |       1     | 0.37757366E-04 | 0.41131483E+01 |    4.495
 BASOPT|        5     |       1     | 0.74789535E-03 | 0.99052926E+02 |   17.059
 BASOPT|        6     |       1     | 0.20131089E-04 | 0.14368517E+01 |    3.455
 BASOPT|        7     |       1     | 0.51832707E-03 | 0.38720721E+01 |    7.672
 BASOPT| -----------------------------------------------------------------------
 BASOPT| Total residuum value: -.43543896E+03

 BASOPT| Information at iteration number:     800
 BASOPT| Training set | Combination | Rho difference | Condition num. | Time
 BASOPT| -----------------------------------------------------------------------
 BASOPT|        1     |       1     | 0.25947954E-03 | 0.38691336E+01 |    9.133
 BASOPT|        2     |       1     | 0.25873917E-03 | 0.33618248E+01 |    5.395
 BASOPT|        3     |       1     | 0.13346227E-03 | 0.28357556E+01 |    5.276
 BASOPT|        4     |       1     | 0.45520218E-04 | 0.39750495E+01 |    5.142
 BASOPT|        5     |       1     | 0.72056875E-03 | 0.92284116E+02 |   19.532
 BASOPT|        6     |       1     | 0.25295214E-04 | 0.14076091E+01 |    3.952
 BASOPT|        7     |       1     | 0.50059659E-03 | 0.38714905E+01 |    8.781
 BASOPT| -----------------------------------------------------------------------
 BASOPT| Total residuum value: -.43543962E+03

 BASOPT| Information at iteration number:     900
 BASOPT| Training set | Combination | Rho difference | Condition num. | Time
 BASOPT| -----------------------------------------------------------------------
 BASOPT|        1     |       1     | 0.24802764E-03 | 0.37641824E+01 |   10.282
 BASOPT|        2     |       1     | 0.24708137E-03 | 0.33294137E+01 |    6.074
 BASOPT|        3     |       1     | 0.12698025E-03 | 0.26945441E+01 |    5.936
 BASOPT|        4     |       1     | 0.50769224E-04 | 0.37050245E+01 |    5.789
 BASOPT|        5     |       1     | 0.69502089E-03 | 0.77593788E+02 |   22.006
 BASOPT|        6     |       1     | 0.27772990E-04 | 0.12944274E+01 |    4.448
 BASOPT|        7     |       1     | 0.47866276E-03 | 0.38302531E+01 |    9.888
 BASOPT| -----------------------------------------------------------------------
 BASOPT| Total residuum value: -.43544772E+03

 BASOPT| Information at iteration number:    1000
 BASOPT| Training set | Combination | Rho difference | Condition num. | Time
 BASOPT| -----------------------------------------------------------------------
 BASOPT|        1     |       1     | 0.27594355E-03 | 0.36146378E+01 |   11.432
 BASOPT|        2     |       1     | 0.23922206E-03 | 0.32318734E+01 |    6.754
 BASOPT|        3     |       1     | 0.14188564E-03 | 0.25417323E+01 |    6.598
 BASOPT|        4     |       1     | 0.53960198E-04 | 0.35064257E+01 |    6.436
 BASOPT|        5     |       1     | 0.67469113E-03 | 0.68045900E+02 |   24.482
 BASOPT|        6     |       1     | 0.30766670E-04 | 0.12433656E+01 |    4.944
 BASOPT|        7     |       1     | 0.46311224E-03 | 0.37195733E+01 |   10.997
 BASOPT| -----------------------------------------------------------------------
 BASOPT| Total residuum value: -.43545318E+03

 BASOPT| Information at iteration number:    1100
 BASOPT| Training set | Combination | Rho difference | Condition num. | Time
 BASOPT| -----------------------------------------------------------------------
 BASOPT|        1     |       1     | 0.25805644E-03 | 0.35192370E+01 |   12.581
 BASOPT|        2     |       1     | 0.23272245E-03 | 0.31106710E+01 |    7.434
 BASOPT|        3     |       1     | 0.13133830E-03 | 0.24608532E+01 |    7.260
 BASOPT|        4     |       1     | 0.52803221E-04 | 0.34045612E+01 |    7.083
 BASOPT|        5     |       1     | 0.65790266E-03 | 0.63253391E+02 |   26.957
 BASOPT|        6     |       1     | 0.29628165E-04 | 0.12036507E+01 |    5.441
 BASOPT|        7     |       1     | 0.44930083E-03 | 0.35891391E+01 |   12.107
 BASOPT| -----------------------------------------------------------------------
 BASOPT| Total residuum value: -.43545574E+03

 BASOPT| Information at iteration number:    1200
 BASOPT| Training set | Combination | Rho difference | Condition num. | Time
 BASOPT| -----------------------------------------------------------------------
 BASOPT|        1     |       1     | 0.25929098E-03 | 0.33823050E+01 |   13.730
 BASOPT|        2     |       1     | 0.23816543E-03 | 0.30701652E+01 |    8.113
 BASOPT|        3     |       1     | 0.13309975E-03 | 0.23868856E+01 |    7.922
 BASOPT|        4     |       1     | 0.82792887E-04 | 0.31413985E+01 |    7.731
 BASOPT|        5     |       1     | 0.65560050E-03 | 0.55585531E+02 |   29.433
 BASOPT|        6     |       1     | 0.46842495E-04 | 0.11494631E+01 |    5.940
 BASOPT|        7     |       1     | 0.45999589E-03 | 0.35378822E+01 |   13.217
 BASOPT| -----------------------------------------------------------------------
 BASOPT| Total residuum value: -.43545642E+03

 BASOPT| Information at iteration number:    1300
 BASOPT| Training set | Combination | Rho difference | Condition num. | Time
 BASOPT| -----------------------------------------------------------------------
 BASOPT|        1     |       1     | 0.27254007E-03 | 0.33231866E+01 |   14.879
 BASOPT|        2     |       1     | 0.26302747E-03 | 0.30224078E+01 |    8.793
 BASOPT|        3     |       1     | 0.13964921E-03 | 0.23249501E+01 |    8.583
 BASOPT|        4     |       1     | 0.78405202E-04 | 0.30432005E+01 |    8.378
 BASOPT|        5     |       1     | 0.69656643E-03 | 0.51711014E+02 |   31.909
 BASOPT|        6     |       1     | 0.43375069E-04 | 0.10918513E+01 |    6.438
 BASOPT|        7     |       1     | 0.50984546E-03 | 0.34872808E+01 |   14.329
 BASOPT| -----------------------------------------------------------------------
 BASOPT| Total residuum value: -.43546092E+03

 BASOPT| Information at iteration number:    1400
 BASOPT| Training set | Combination | Rho difference | Condition num. | Time
 BASOPT| -----------------------------------------------------------------------
 BASOPT|        1     |       1     | 0.29295063E-03 | 0.32116663E+01 |   16.029
 BASOPT|        2     |       1     | 0.27480876E-03 | 0.29555483E+01 |    9.473
 BASOPT|        3     |       1     | 0.15072358E-03 | 0.22457265E+01 |    9.245
 BASOPT|        4     |       1     | 0.91301727E-04 | 0.29401647E+01 |    9.025
 BASOPT|        5     |       1     | 0.71285944E-03 | 0.47978457E+02 |   34.385
 BASOPT|        6     |       1     | 0.50537807E-04 | 0.10438873E+01 |    6.940
 BASOPT|        7     |       1     | 0.53342822E-03 | 0.34108933E+01 |   15.439
 BASOPT| -----------------------------------------------------------------------
 BASOPT| Total residuum value: -.43544861E+03

 BASOPT| Information at iteration number:    1500
 BASOPT| Training set | Combination | Rho difference | Condition num. | Time
 BASOPT| -----------------------------------------------------------------------
 BASOPT|        1     |       1     | 0.27291254E-03 | 0.31482388E+01 |   17.181
 BASOPT|        2     |       1     | 0.22800223E-03 | 0.29048304E+01 |   10.154
 BASOPT|        3     |       1     | 0.14027549E-03 | 0.21493295E+01 |    9.907
 BASOPT|        4     |       1     | 0.92134792E-04 | 0.28489106E+01 |    9.673
 BASOPT|        5     |       1     | 0.63771595E-03 | 0.46021630E+02 |   36.862
 BASOPT|        6     |       1     | 0.52579253E-04 | 0.10100711E+01 |    7.443
 BASOPT|        7     |       1     | 0.43916271E-03 | 0.33495356E+01 |   16.548
 BASOPT| -----------------------------------------------------------------------
 BASOPT| Total residuum value: -.43546712E+03

 BASOPT| Information at iteration number:    1600
 BASOPT| Training set | Combination | Rho difference | Condition num. | Time
 BASOPT| -----------------------------------------------------------------------
 BASOPT|        1     |       1     | 0.33095025E-03 | 0.30985531E+01 |   18.333
 BASOPT|        2     |       1     | 0.23040711E-03 | 0.28738299E+01 |   10.836
 BASOPT|        3     |       1     | 0.16951873E-03 | 0.21343457E+01 |   10.569
 BASOPT|        4     |       1     | 0.72983278E-04 | 0.28869383E+01 |   10.322
 BASOPT|        5     |       1     | 0.67068604E-03 | 0.45664612E+02 |   39.340
 BASOPT|        6     |       1     | 0.40431186E-04 | 0.10023328E+01 |    7.946
 BASOPT|        7     |       1     | 0.44172260E-03 | 0.32951482E+01 |   17.659
 BASOPT| -----------------------------------------------------------------------
 BASOPT| Total residuum value: -.43545776E+03

 BASOPT| Information at iteration number:    1700
 BASOPT| Training set | Combination | Rho difference | Condition num. | Time
 BASOPT| -----------------------------------------------------------------------
 BASOPT|        1     |       1     | 0.27368595E-03 | 0.30307832E+01 |   19.485
 BASOPT|        2     |       1     | 0.22284646E-03 | 0.27321451E+01 |   11.518
 BASOPT|        3     |       1     | 0.14019783E-03 | 0.20835893E+01 |   11.232
 BASOPT|        4     |       1     | 0.10841334E-03 | 0.27317834E+01 |   10.970
 BASOPT|        5     |       1     | 0.63334617E-03 | 0.41937109E+02 |   41.817
 BASOPT|        6     |       1     | 0.61576880E-04 | 0.10282585E+01 |    8.448
 BASOPT|        7     |       1     | 0.43017012E-03 | 0.31844509E+01 |   18.770
 BASOPT| -----------------------------------------------------------------------
 BASOPT| Total residuum value: -.43547140E+03

 BASOPT| Information at iteration number:    1800
 BASOPT| Training set | Combination | Rho difference | Condition num. | Time
 BASOPT| -----------------------------------------------------------------------
 BASOPT|        1     |       1     | 0.27432570E-03 | 0.29433872E+01 |   20.637
 BASOPT|        2     |       1     | 0.24356940E-03 | 0.26152985E+01 |   12.201
 BASOPT|        3     |       1     | 0.14136017E-03 | 0.19932397E+01 |   11.894
 BASOPT|        4     |       1     | 0.11647065E-03 | 0.26869536E+01 |   11.618
 BASOPT|        5     |       1     | 0.65625462E-03 | 0.40380788E+02 |   44.294
 BASOPT|        6     |       1     | 0.66071497E-04 | 0.10593346E+01 |    8.951
 BASOPT|        7     |       1     | 0.47163802E-03 | 0.30758738E+01 |   19.881
 BASOPT| -----------------------------------------------------------------------
 BASOPT| Total residuum value: -.43547161E+03

 BASOPT| Information at iteration number:    1900
 BASOPT| Training set | Combination | Rho difference | Condition num. | Time
 BASOPT| -----------------------------------------------------------------------
 BASOPT|        1     |       1     | 0.30419966E-03 | 0.29530179E+01 |   21.791
 BASOPT|        2     |       1     | 0.23528818E-03 | 0.26253824E+01 |   12.883
 BASOPT|        3     |       1     | 0.15597558E-03 | 0.19847998E+01 |   12.557
 BASOPT|        4     |       1     | 0.10893146E-03 | 0.27173269E+01 |   12.267
 BASOPT|        5     |       1     | 0.65952368E-03 | 0.41179828E+02 |   46.771
 BASOPT|        6     |       1     | 0.61691436E-04 | 0.10386021E+01 |    9.454
 BASOPT|        7     |       1     | 0.45502931E-03 | 0.30752328E+01 |   20.990
 BASOPT| -----------------------------------------------------------------------
 BASOPT| Total residuum value: -.43547291E+03

 BASOPT| Information at iteration number:    2000
 BASOPT| Training set | Combination | Rho difference | Condition num. | Time
 BASOPT| -----------------------------------------------------------------------
 BASOPT|        1     |       1     | 0.28259871E-03 | 0.29281743E+01 |   22.944
 BASOPT|        2     |       1     | 0.23488867E-03 | 0.25804411E+01 |   13.566
 BASOPT|        3     |       1     | 0.14490878E-03 | 0.19397848E+01 |   13.220
 BASOPT|        4     |       1     | 0.11661042E-03 | 0.26940776E+01 |   12.915
 BASOPT|        5     |       1     | 0.64739814E-03 | 0.40606885E+02 |   49.248
 BASOPT|        6     |       1     | 0.66352241E-04 | 0.10446631E+01 |    9.958
 BASOPT|        7     |       1     | 0.45382690E-03 | 0.30241451E+01 |   22.102
 BASOPT| -----------------------------------------------------------------------
 BASOPT| Total residuum value: -.43547431E+03

 BASOPT| Information at iteration number:    2100
 BASOPT| Training set | Combination | Rho difference | Condition num. | Time
 BASOPT| -----------------------------------------------------------------------
 BASOPT|        1     |       1     | 0.27124884E-03 | 0.28945977E+01 |   24.096
 BASOPT|        2     |       1     | 0.22972500E-03 | 0.25403986E+01 |   14.248
 BASOPT|        3     |       1     | 0.13859714E-03 | 0.18922796E+01 |   13.881
 BASOPT|        4     |       1     | 0.91656706E-04 | 0.27632298E+01 |   13.564
 BASOPT|        5     |       1     | 0.63619344E-03 | 0.41565365E+02 |   51.725
 BASOPT|        6     |       1     | 0.51212072E-04 | 0.10354387E+01 |   10.462
 BASOPT|        7     |       1     | 0.44319788E-03 | 0.29691336E+01 |   23.213
 BASOPT| -----------------------------------------------------------------------
 BASOPT| Total residuum value: -.43547707E+03

 BASOPT| Information at iteration number:    2200
 BASOPT| Training set | Combination | Rho difference | Condition num. | Time
 BASOPT| -----------------------------------------------------------------------
 BASOPT|        1     |       1     | 0.26238963E-03 | 0.28783255E+01 |   25.250
 BASOPT|        2     |       1     | 0.22442848E-03 | 0.24442506E+01 |   14.932
 BASOPT|        3     |       1     | 0.13374886E-03 | 0.18255471E+01 |   14.545
 BASOPT|        4     |       1     | 0.92303811E-04 | 0.27380953E+01 |   14.214
 BASOPT|        5     |       1     | 0.62028957E-03 | 0.40392040E+02 |   54.202
 BASOPT|        6     |       1     | 0.51819378E-04 | 0.10361939E+01 |   10.966
 BASOPT|        7     |       1     | 0.43267752E-03 | 0.28656909E+01 |   24.326
 BASOPT| -----------------------------------------------------------------------
 BASOPT| Total residuum value: -.43547929E+03

 BASOPT| Information at iteration number:    2300
 BASOPT| Training set | Combination | Rho difference | Condition num. | Time
 BASOPT| -----------------------------------------------------------------------
 BASOPT|        1     |       1     | 0.27181881E-03 | 0.28275610E+01 |   26.403
 BASOPT|        2     |       1     | 0.22667945E-03 | 0.23141693E+01 |   15.616
 BASOPT|        3     |       1     | 0.13862107E-03 | 0.17458643E+01 |   15.207
 BASOPT|        4     |       1     | 0.84727588E-04 | 0.27345562E+01 |   14.863
 BASOPT|        5     |       1     | 0.62027238E-03 | 0.39039352E+02 |   56.680
 BASOPT|        6     |       1     | 0.47442229E-04 | 0.10316380E+01 |   11.470
 BASOPT|        7     |       1     | 0.43706811E-03 | 0.27339284E+01 |   25.438
 BASOPT| -----------------------------------------------------------------------
 BASOPT| Total residuum value: -.43548229E+03

 BASOPT| Information at iteration number:    2400
 BASOPT| Training set | Combination | Rho difference | Condition num. | Time
 BASOPT| -----------------------------------------------------------------------
 BASOPT|        1     |       1     | 0.28235688E-03 | 0.27674481E+01 |   27.556
 BASOPT|        2     |       1     | 0.22536767E-03 | 0.21914110E+01 |   16.300
 BASOPT|        3     |       1     | 0.14423724E-03 | 0.16812120E+01 |   15.869
 BASOPT|        4     |       1     | 0.80954878E-04 | 0.27107049E+01 |   15.514
 BASOPT|        5     |       1     | 0.61528312E-03 | 0.37670076E+02 |   59.159
 BASOPT|        6     |       1     | 0.45581566E-04 | 0.10212400E+01 |   11.975
 BASOPT|        7     |       1     | 0.43493599E-03 | 0.26212362E+01 |   26.550
 BASOPT| -----------------------------------------------------------------------
 BASOPT| Total residuum value: -.43548515E+03

 BASOPT| Information at iteration number:    2500
 BASOPT| Training set | Combination | Rho difference | Condition num. | Time
 BASOPT| -----------------------------------------------------------------------
 BASOPT|        1     |       1     | 0.27467222E-03 | 0.27071523E+01 |   28.711
 BASOPT|        2     |       1     | 0.21921750E-03 | 0.20753159E+01 |   16.984
 BASOPT|        3     |       1     | 0.14007110E-03 | 0.16218868E+01 |   16.530
 BASOPT|        4     |       1     | 0.70586878E-04 | 0.27319654E+01 |   16.165
 BASOPT|        5     |       1     | 0.60006662E-03 | 0.37114115E+02 |   61.637
 BASOPT|        6     |       1     | 0.39284444E-04 | 0.10161244E+01 |   12.480
 BASOPT|        7     |       1     | 0.42321130E-03 | 0.25100851E+01 |   27.662
 BASOPT| -----------------------------------------------------------------------
 BASOPT| Total residuum value: -.43548813E+03

 BASOPT| Information at iteration number:    2600
 BASOPT| Training set | Combination | Rho difference | Condition num. | Time
 BASOPT| -----------------------------------------------------------------------
 BASOPT|        1     |       1     | 0.28983465E-03 | 0.26421279E+01 |   29.864
 BASOPT|        2     |       1     | 0.21986632E-03 | 0.19641731E+01 |   17.669
 BASOPT|        3     |       1     | 0.14823523E-03 | 0.15685794E+01 |   17.191
 BASOPT|        4     |       1     | 0.69029946E-04 | 0.27117313E+01 |   16.807
 BASOPT|        5     |       1     | 0.60177930E-03 | 0.36274219E+02 |   64.116
 BASOPT|        6     |       1     | 0.38522869E-04 | 0.10012788E+01 |   12.984
 BASOPT|        7     |       1     | 0.42518991E-03 | 0.24177173E+01 |   28.775
 BASOPT| -----------------------------------------------------------------------
 BASOPT| Total residuum value: -.43549122E+03

 BASOPT| Information at iteration number:    2700
 BASOPT| Training set | Combination | Rho difference | Condition num. | Time
 BASOPT| -----------------------------------------------------------------------
 BASOPT|        1     |       1     | 0.28480097E-03 | 0.25575964E+01 |   31.017
 BASOPT|        2     |       1     | 0.21539641E-03 | 0.17980725E+01 |   18.355
 BASOPT|        3     |       1     | 0.14548163E-03 | 0.15141128E+01 |   17.853
 BASOPT|        4     |       1     | 0.54513681E-04 | 0.27184978E+01 |   17.453
 BASOPT|        5     |       1     | 0.58574275E-03 | 0.35323042E+02 |   66.595
 BASOPT|        6     |       1     | 0.30050343E-04 | 0.10012718E+01 |   13.491
 BASOPT|        7     |       1     | 0.41653989E-03 | 0.22802416E+01 |   29.888
 BASOPT| -----------------------------------------------------------------------
 BASOPT| Total residuum value: -.43549527E+03

 BASOPT| Information at iteration number:    2800
 BASOPT| Training set | Combination | Rho difference | Condition num. | Time
 BASOPT| -----------------------------------------------------------------------
 BASOPT|        1     |       1     | 0.28757340E-03 | 0.24841976E+01 |   32.171
 BASOPT|        2     |       1     | 0.21808379E-03 | 0.16142449E+01 |   19.040
 BASOPT|        3     |       1     | 0.14670666E-03 | 0.14586263E+01 |   18.515
 BASOPT|        4     |       1     | 0.49278188E-04 | 0.26909098E+01 |   18.102
 BASOPT|        5     |       1     | 0.57606293E-03 | 0.33386521E+02 |   69.074
 BASOPT|        6     |       1     | 0.27074702E-04 | 0.10080451E+01 |   13.997
 BASOPT|        7     |       1     | 0.42177124E-03 | 0.21330702E+01 |   31.002
 BASOPT| -----------------------------------------------------------------------
 BASOPT| Total residuum value: -.43550016E+03

 BASOPT| Information at iteration number:    2900
 BASOPT| Training set | Combination | Rho difference | Condition num. | Time
 BASOPT| -----------------------------------------------------------------------
 BASOPT|        1     |       1     | 0.29144819E-03 | 0.24519311E+01 |   33.328
 BASOPT|        2     |       1     | 0.21464313E-03 | 0.15460503E+01 |   19.726
 BASOPT|        3     |       1     | 0.14851203E-03 | 0.14317736E+01 |   19.178
 BASOPT|        4     |       1     | 0.45912727E-04 | 0.26816324E+01 |   18.751
 BASOPT|        5     |       1     | 0.56758009E-03 | 0.32710047E+02 |   71.556
 BASOPT|        6     |       1     | 0.25320233E-04 | 0.10119253E+01 |   14.504
 BASOPT|        7     |       1     | 0.41496673E-03 | 0.20873005E+01 |   32.116
 BASOPT| -----------------------------------------------------------------------
 BASOPT| Total residuum value: -.43550187E+03

 BASOPT| Information at iteration number:    3000
 BASOPT| Training set | Combination | Rho difference | Condition num. | Time
 BASOPT| -----------------------------------------------------------------------
 BASOPT|        1     |       1     | 0.29100182E-03 | 0.24209642E+01 |   34.484
 BASOPT|        2     |       1     | 0.21815700E-03 | 0.14863299E+01 |   20.412
 BASOPT|        3     |       1     | 0.14803552E-03 | 0.13897047E+01 |   19.840
 BASOPT|        4     |       1     | 0.49301661E-04 | 0.26170684E+01 |   19.400
 BASOPT|        5     |       1     | 0.56681843E-03 | 0.31223774E+02 |   74.034
 BASOPT|        6     |       1     | 0.27404524E-04 | 0.10011752E+01 |   15.010
 BASOPT|        7     |       1     | 0.42222246E-03 | 0.20587411E+01 |   33.230
 BASOPT| -----------------------------------------------------------------------
 BASOPT| Total residuum value: -.43550391E+03

 BASOPT| Information at iteration number:    3100
 BASOPT| Training set | Combination | Rho difference | Condition num. | Time
 BASOPT| -----------------------------------------------------------------------
 BASOPT|        1     |       1     | 0.28265705E-03 | 0.23980928E+01 |   35.640
 BASOPT|        2     |       1     | 0.21677220E-03 | 0.14042257E+01 |   21.098
 BASOPT|        3     |       1     | 0.14342804E-03 | 0.13516308E+01 |   20.501
 BASOPT|        4     |       1     | 0.49394403E-04 | 0.25934923E+01 |   20.050
 BASOPT|        5     |       1     | 0.56232722E-03 | 0.30227302E+02 |   76.514
 BASOPT|        6     |       1     | 0.27139560E-04 | 0.10094115E+01 |   15.516
 BASOPT|        7     |       1     | 0.41958464E-03 | 0.20236401E+01 |   34.342
 BASOPT| -----------------------------------------------------------------------
 BASOPT| Total residuum value: -.43550602E+03

 BASOPT| Information at iteration number:    3200
 BASOPT| Training set | Combination | Rho difference | Condition num. | Time
 BASOPT| -----------------------------------------------------------------------
 BASOPT|        1     |       1     | 0.28976924E-03 | 0.23592263E+01 |   36.796
 BASOPT|        2     |       1     | 0.21585064E-03 | 0.12943056E+01 |   21.784
 BASOPT|        3     |       1     | 0.14714921E-03 | 0.12911276E+01 |   21.163
 BASOPT|        4     |       1     | 0.49253945E-04 | 0.25371500E+01 |   20.700
 BASOPT|        5     |       1     | 0.55851992E-03 | 0.28432130E+02 |   78.993
 BASOPT|        6     |       1     | 0.27200960E-04 | 0.10195597E+01 |   16.022
 BASOPT|        7     |       1     | 0.41781820E-03 | 0.19896193E+01 |   35.456
 BASOPT| -----------------------------------------------------------------------
 BASOPT| Total residuum value: -.43550843E+03

 BASOPT| Information at iteration number:    3300
 BASOPT| Training set | Combination | Rho difference | Condition num. | Time
 BASOPT| -----------------------------------------------------------------------
 BASOPT|        1     |       1     | 0.27111596E-03 | 0.23439762E+01 |   37.952
 BASOPT|        2     |       1     | 0.21708631E-03 | 0.12699291E+01 |   22.469
 BASOPT|        3     |       1     | 0.13734297E-03 | 0.12808413E+01 |   21.825
 BASOPT|        4     |       1     | 0.50279443E-04 | 0.25376037E+01 |   21.349
 BASOPT|        5     |       1     | 0.55069731E-03 | 0.28097658E+02 |   81.472
 BASOPT|        6     |       1     | 0.27519632E-04 | 0.10160458E+01 |   16.529
 BASOPT|        7     |       1     | 0.42024290E-03 | 0.19768883E+01 |   36.570
 BASOPT| -----------------------------------------------------------------------
 BASOPT| Total residuum value: -.43550934E+03

 BASOPT| Information at iteration number:    3400
 BASOPT| Training set | Combination | Rho difference | Condition num. | Time
 BASOPT| -----------------------------------------------------------------------
 BASOPT|        1     |       1     | 0.27532742E-03 | 0.23113271E+01 |   39.108
 BASOPT|        2     |       1     | 0.21883981E-03 | 0.12156158E+01 |   23.156
 BASOPT|        3     |       1     | 0.13948934E-03 | 0.12456889E+01 |   22.487
 BASOPT|        4     |       1     | 0.48050523E-04 | 0.25019495E+01 |   21.999
 BASOPT|        5     |       1     | 0.54824690E-03 | 0.26933828E+02 |   83.953
 BASOPT|        6     |       1     | 0.26372369E-04 | 0.10187131E+01 |   17.034
 BASOPT|        7     |       1     | 0.42358629E-03 | 0.19563118E+01 |   37.685
 BASOPT| -----------------------------------------------------------------------
 BASOPT| Total residuum value: -.43551137E+03

 BASOPT| Information at iteration number:    3500
 BASOPT| Training set | Combination | Rho difference | Condition num. | Time
 BASOPT| -----------------------------------------------------------------------
 BASOPT|        1     |       1     | 0.28227565E-03 | 0.22909362E+01 |   40.264
 BASOPT|        2     |       1     | 0.22451349E-03 | 0.11772684E+01 |   23.843
 BASOPT|        3     |       1     | 0.14325548E-03 | 0.12196574E+01 |   23.148
 BASOPT|        4     |       1     | 0.51044319E-04 | 0.24831896E+01 |   22.648
 BASOPT|        5     |       1     | 0.55829865E-03 | 0.26203054E+02 |   86.433
 BASOPT|        6     |       1     | 0.27760975E-04 | 0.10177389E+01 |   17.540
 BASOPT|        7     |       1     | 0.43463335E-03 | 0.19386863E+01 |   38.800
 BASOPT| -----------------------------------------------------------------------
 BASOPT| Total residuum value: -.43551222E+03

 BASOPT| Information at iteration number:    3600
 BASOPT| Training set | Combination | Rho difference | Condition num. | Time
 BASOPT| -----------------------------------------------------------------------
 BASOPT|        1     |       1     | 0.27290917E-03 | 0.22553897E+01 |   41.419
 BASOPT|        2     |       1     | 0.21690753E-03 | 0.11351883E+01 |   24.530
 BASOPT|        3     |       1     | 0.13798134E-03 | 0.11957072E+01 |   23.810
 BASOPT|        4     |       1     | 0.44485462E-04 | 0.24604731E+01 |   23.298
 BASOPT|        5     |       1     | 0.53875831E-03 | 0.25298310E+02 |   88.912
 BASOPT|        6     |       1     | 0.24276033E-04 | 0.10233842E+01 |   18.045
 BASOPT|        7     |       1     | 0.41967639E-03 | 0.19267732E+01 |   39.916
 BASOPT| -----------------------------------------------------------------------
 BASOPT| Total residuum value: -.43551331E+03

 BASOPT| Information at iteration number:    3700
 BASOPT| Training set | Combination | Rho difference | Condition num. | Time
 BASOPT| -----------------------------------------------------------------------
 BASOPT|        1     |       1     | 0.28576551E-03 | 0.22543893E+01 |   42.576
 BASOPT|        2     |       1     | 0.21673353E-03 | 0.11199758E+01 |   25.216
 BASOPT|        3     |       1     | 0.14519638E-03 | 0.11814856E+01 |   24.472
 BASOPT|        4     |       1     | 0.43129090E-04 | 0.24507422E+01 |   23.948
 BASOPT|        5     |       1     | 0.54373719E-03 | 0.25043278E+02 |   91.390
 BASOPT|        6     |       1     | 0.23619259E-04 | 0.10207604E+01 |   18.550
 BASOPT|        7     |       1     | 0.41933580E-03 | 0.19222787E+01 |   41.031
 BASOPT| -----------------------------------------------------------------------
 BASOPT| Total residuum value: -.43551425E+03

 BASOPT| Information at iteration number:    3800
 BASOPT| Training set | Combination | Rho difference | Condition num. | Time
 BASOPT| -----------------------------------------------------------------------
 BASOPT|        1     |       1     | 0.27905364E-03 | 0.22345562E+01 |   43.732
 BASOPT|        2     |       1     | 0.22018115E-03 | 0.10889065E+01 |   25.902
 BASOPT|        3     |       1     | 0.14171770E-03 | 0.11549253E+01 |   25.134
 BASOPT|        4     |       1     | 0.43778975E-04 | 0.24254960E+01 |   24.599
 BASOPT|        5     |       1     | 0.54063426E-03 | 0.24206365E+02 |   93.870
 BASOPT|        6     |       1     | 0.23903603E-04 | 0.10119004E+01 |   19.055
 BASOPT|        7     |       1     | 0.42604952E-03 | 0.19215129E+01 |   42.147
 BASOPT| -----------------------------------------------------------------------
 BASOPT| Total residuum value: -.43551585E+03

 BASOPT| Information at iteration number:    3900
 BASOPT| Training set | Combination | Rho difference | Condition num. | Time
 BASOPT| -----------------------------------------------------------------------
 BASOPT|        1     |       1     | 0.28334255E-03 | 0.22234779E+01 |   44.889
 BASOPT|        2     |       1     | 0.21711297E-03 | 0.10853714E+01 |   26.590
 BASOPT|        3     |       1     | 0.14401047E-03 | 0.11335515E+01 |   25.797
 BASOPT|        4     |       1     | 0.43003176E-04 | 0.24203415E+01 |   25.249
 BASOPT|        5     |       1     | 0.54099541E-03 | 0.23734881E+02 |   96.349
 BASOPT|        6     |       1     | 0.23258209E-04 | 0.10040236E+01 |   19.559
 BASOPT|        7     |       1     | 0.42015718E-03 | 0.19216207E+01 |   43.265
 BASOPT| -----------------------------------------------------------------------
 BASOPT| Total residuum value: -.43551681E+03

 BASOPT| Information at iteration number:    4000
 BASOPT| Training set | Combination | Rho difference | Condition num. | Time
 BASOPT| -----------------------------------------------------------------------
 BASOPT|        1     |       1     | 0.27849103E-03 | 0.22194978E+01 |   46.046
 BASOPT|        2     |       1     | 0.21203542E-03 | 0.10814492E+01 |   27.277
 BASOPT|        3     |       1     | 0.14145197E-03 | 0.11201881E+01 |   26.459
 BASOPT|        4     |       1     | 0.41599555E-04 | 0.23970479E+01 |   25.900
 BASOPT|        5     |       1     | 0.53141584E-03 | 0.23109606E+02 |   98.831
 BASOPT|        6     |       1     | 0.22573578E-04 | 0.10057258E+01 |   20.065
 BASOPT|        7     |       1     | 0.41046846E-03 | 0.19349286E+01 |   44.382
 BASOPT| -----------------------------------------------------------------------
 BASOPT| Total residuum value: -.43551786E+03

 BASOPT| Information at iteration number:    4100
 BASOPT| Training set | Combination | Rho difference | Condition num. | Time
 BASOPT| -----------------------------------------------------------------------
 BASOPT|        1     |       1     | 0.27530194E-03 | 0.22143531E+01 |   47.201
 BASOPT|        2     |       1     | 0.21196960E-03 | 0.10773279E+01 |   27.964
 BASOPT|        3     |       1     | 0.13953768E-03 | 0.11162324E+01 |   27.121
 BASOPT|        4     |       1     | 0.42973697E-04 | 0.23887158E+01 |   26.551
 BASOPT|        5     |       1     | 0.53132599E-03 | 0.22805625E+02 |  101.313
 BASOPT|        6     |       1     | 0.23175672E-04 | 0.10102213E+01 |   20.570
 BASOPT|        7     |       1     | 0.41049237E-03 | 0.19432521E+01 |   45.498
 BASOPT| -----------------------------------------------------------------------
 BASOPT| Total residuum value: -.43551825E+03

 BASOPT| Information at iteration number:    4200
 BASOPT| Training set | Combination | Rho difference | Condition num. | Time
 BASOPT| -----------------------------------------------------------------------
 BASOPT|        1     |       1     | 0.27437238E-03 | 0.22212395E+01 |   48.358
 BASOPT|        2     |       1     | 0.20974336E-03 | 0.10739356E+01 |   28.651
 BASOPT|        3     |       1     | 0.13912870E-03 | 0.11041966E+01 |   27.783
 BASOPT|        4     |       1     | 0.42489936E-04 | 0.23580171E+01 |   27.202
 BASOPT|        5     |       1     | 0.52586033E-03 | 0.22194825E+02 |  103.796
 BASOPT|        6     |       1     | 0.23069474E-04 | 0.10135329E+01 |   21.076
 BASOPT|        7     |       1     | 0.40644989E-03 | 0.19490911E+01 |   46.616
 BASOPT| -----------------------------------------------------------------------
 BASOPT| Total residuum value: -.43551916E+03

 BASOPT| Information at iteration number:    4300
 BASOPT| Training set | Combination | Rho difference | Condition num. | Time
 BASOPT| -----------------------------------------------------------------------
 BASOPT|        1     |       1     | 0.27442786E-03 | 0.22167031E+01 |   49.518
 BASOPT|        2     |       1     | 0.20883894E-03 | 0.10697867E+01 |   29.338
 BASOPT|        3     |       1     | 0.13917074E-03 | 0.11010659E+01 |   28.445
 BASOPT|        4     |       1     | 0.45788354E-04 | 0.23322661E+01 |   27.854
 BASOPT|        5     |       1     | 0.52520769E-03 | 0.21844263E+02 |  106.278
 BASOPT|        6     |       1     | 0.24923392E-04 | 0.10091931E+01 |   21.581
 BASOPT|        7     |       1     | 0.40472081E-03 | 0.19538300E+01 |   47.732
 BASOPT| -----------------------------------------------------------------------
 BASOPT| Total residuum value: -.43551953E+03

 BASOPT| Information at iteration number:    4400
 BASOPT| Training set | Combination | Rho difference | Condition num. | Time
 BASOPT| -----------------------------------------------------------------------
 BASOPT|        1     |       1     | 0.27010773E-03 | 0.22163698E+01 |   50.678
 BASOPT|        2     |       1     | 0.20341271E-03 | 0.10631311E+01 |   30.026
 BASOPT|        3     |       1     | 0.13689564E-03 | 0.10867862E+01 |   29.107
 BASOPT|        4     |       1     | 0.48573938E-04 | 0.22987120E+01 |   28.506
 BASOPT|        5     |       1     | 0.52037112E-03 | 0.21282164E+02 |  108.761
 BASOPT|        6     |       1     | 0.26386440E-04 | 0.10007278E+01 |   22.087
 BASOPT|        7     |       1     | 0.39442488E-03 | 0.19497059E+01 |   48.849
 BASOPT| -----------------------------------------------------------------------
 BASOPT| Total residuum value: -.43552036E+03

 BASOPT| Information at iteration number:    4500
 BASOPT| Training set | Combination | Rho difference | Condition num. | Time
 BASOPT| -----------------------------------------------------------------------
 BASOPT|        1     |       1     | 0.27188023E-03 | 0.22153881E+01 |   51.839
 BASOPT|        2     |       1     | 0.20726904E-03 | 0.10590292E+01 |   30.714
 BASOPT|        3     |       1     | 0.13771503E-03 | 0.10820265E+01 |   29.770
 BASOPT|        4     |       1     | 0.50133681E-04 | 0.22873612E+01 |   29.158
 BASOPT|        5     |       1     | 0.52629580E-03 | 0.21097507E+02 |  111.244
 BASOPT|        6     |       1     | 0.27204384E-04 | 0.10014591E+01 |   22.592
 BASOPT|        7     |       1     | 0.40205089E-03 | 0.19533061E+01 |   49.967
 BASOPT| -----------------------------------------------------------------------
 BASOPT| Total residuum value: -.43552093E+03

 BASOPT| Information at iteration number:    4600
 BASOPT| Training set | Combination | Rho difference | Condition num. | Time
 BASOPT| -----------------------------------------------------------------------
 BASOPT|        1     |       1     | 0.27109857E-03 | 0.22132415E+01 |   52.999
 BASOPT|        2     |       1     | 0.20521660E-03 | 0.10557794E+01 |   31.401
 BASOPT|        3     |       1     | 0.13717462E-03 | 0.10757763E+01 |   30.432
 BASOPT|        4     |       1     | 0.50797590E-04 | 0.22672645E+01 |   29.811
 BASOPT|        5     |       1     | 0.52213250E-03 | 0.20780160E+02 |  113.727
 BASOPT|        6     |       1     | 0.27674582E-04 | 0.10056294E+01 |   23.098
 BASOPT|        7     |       1     | 0.39820755E-03 | 0.19454158E+01 |   51.084
 BASOPT| -----------------------------------------------------------------------
 BASOPT| Total residuum value: -.43552143E+03

 BASOPT| Information at iteration number:    4700
 BASOPT| Training set | Combination | Rho difference | Condition num. | Time
 BASOPT| -----------------------------------------------------------------------
 BASOPT|        1     |       1     | 0.27024126E-03 | 0.22014217E+01 |   54.161
 BASOPT|        2     |       1     | 0.20498429E-03 | 0.10590935E+01 |   32.090
 BASOPT|        3     |       1     | 0.13666891E-03 | 0.10613653E+01 |   31.094
 BASOPT|        4     |       1     | 0.52191730E-04 | 0.22549545E+01 |   30.465
 BASOPT|        5     |       1     | 0.52168867E-03 | 0.20577023E+02 |  116.211
 BASOPT|        6     |       1     | 0.28380106E-04 | 0.10078510E+01 |   23.605
 BASOPT|        7     |       1     | 0.39797616E-03 | 0.19432465E+01 |   52.201
 BASOPT| -----------------------------------------------------------------------
 BASOPT| Total residuum value: -.43552182E+03

 BASOPT| Information at iteration number:    4800
 BASOPT| Training set | Combination | Rho difference | Condition num. | Time
 BASOPT| -----------------------------------------------------------------------
 BASOPT|        1     |       1     | 0.27676211E-03 | 0.21854312E+01 |   55.321
 BASOPT|        2     |       1     | 0.20042590E-03 | 0.10519330E+01 |   32.778
 BASOPT|        3     |       1     | 0.14020167E-03 | 0.10522290E+01 |   31.757
 BASOPT|        4     |       1     | 0.50759864E-04 | 0.22503329E+01 |   31.118
 BASOPT|        5     |       1     | 0.51693652E-03 | 0.20440627E+02 |  118.695
 BASOPT|        6     |       1     | 0.27705006E-04 | 0.10044427E+01 |   24.112
 BASOPT|        7     |       1     | 0.38892748E-03 | 0.19386180E+01 |   53.319
 BASOPT| -----------------------------------------------------------------------
 BASOPT| Total residuum value: -.43552238E+03

 BASOPT| Information at iteration number:    4900
 BASOPT| Training set | Combination | Rho difference | Condition num. | Time
 BASOPT| -----------------------------------------------------------------------
 BASOPT|        1     |       1     | 0.27578117E-03 | 0.21805312E+01 |   56.482
 BASOPT|        2     |       1     | 0.19855327E-03 | 0.10463186E+01 |   33.467
 BASOPT|        3     |       1     | 0.13981159E-03 | 0.10398346E+01 |   32.419
 BASOPT|        4     |       1     | 0.52660749E-04 | 0.22405255E+01 |   31.770
 BASOPT|        5     |       1     | 0.51573791E-03 | 0.20292497E+02 |  121.178
 BASOPT|        6     |       1     | 0.28685009E-04 | 0.10019416E+01 |   24.619
 BASOPT|        7     |       1     | 0.38539964E-03 | 0.19348714E+01 |   54.436
 BASOPT| -----------------------------------------------------------------------
 BASOPT| Total residuum value: -.43552275E+03

 BASOPT| Information at iteration number:    5000
 BASOPT| Training set | Combination | Rho difference | Condition num. | Time
 BASOPT| -----------------------------------------------------------------------
 BASOPT|        1     |       1     | 0.27884035E-03 | 0.21754367E+01 |   57.645
 BASOPT|        2     |       1     | 0.20054782E-03 | 0.10440654E+01 |   34.156
 BASOPT|        3     |       1     | 0.14154402E-03 | 0.10324135E+01 |   33.082
 BASOPT|        4     |       1     | 0.51547016E-04 | 0.22473569E+01 |   32.423
 BASOPT|        5     |       1     | 0.52111429E-03 | 0.20327153E+02 |  123.660
 BASOPT|        6     |       1     | 0.27912709E-04 | 0.10004100E+01 |   25.125
 BASOPT|        7     |       1     | 0.38934254E-03 | 0.19344612E+01 |   55.554
 BASOPT| -----------------------------------------------------------------------
 BASOPT| Total residuum value: -.43552312E+03

 BASOPT| Information at iteration number:    5100
 BASOPT| Training set | Combination | Rho difference | Condition num. | Time
 BASOPT| -----------------------------------------------------------------------
 BASOPT|        1     |       1     | 0.27936615E-03 | 0.21650302E+01 |   58.806
 BASOPT|        2     |       1     | 0.20151465E-03 | 0.10424452E+01 |   34.846
 BASOPT|        3     |       1     | 0.14174113E-03 | 0.10304034E+01 |   33.746
 BASOPT|        4     |       1     | 0.48720091E-04 | 0.22475569E+01 |   33.077
 BASOPT|        5     |       1     | 0.51970881E-03 | 0.20298041E+02 |  126.144
 BASOPT|        6     |       1     | 0.26475421E-04 | 0.10013140E+01 |   25.632
 BASOPT|        7     |       1     | 0.39123789E-03 | 0.19398134E+01 |   56.672
 BASOPT| -----------------------------------------------------------------------
 BASOPT| Total residuum value: -.43552326E+03

 BASOPT| Information at iteration number:    5200
 BASOPT| Training set | Combination | Rho difference | Condition num. | Time
 BASOPT| -----------------------------------------------------------------------
 BASOPT|        1     |       1     | 0.28007689E-03 | 0.21581242E+01 |   59.967
 BASOPT|        2     |       1     | 0.19869211E-03 | 0.10376571E+01 |   35.536
 BASOPT|        3     |       1     | 0.14207384E-03 | 0.10210316E+01 |   34.409
 BASOPT|        4     |       1     | 0.47314368E-04 | 0.22417359E+01 |   33.730
 BASOPT|        5     |       1     | 0.51537542E-03 | 0.20128801E+02 |  128.628
 BASOPT|        6     |       1     | 0.25742230E-04 | 0.10006289E+01 |   26.139
 BASOPT|        7     |       1     | 0.38586812E-03 | 0.19402336E+01 |   57.791
 BASOPT| -----------------------------------------------------------------------
 BASOPT| Total residuum value: -.43552377E+03

 BASOPT| Information at iteration number:    5300
 BASOPT| Training set | Combination | Rho difference | Condition num. | Time
 BASOPT| -----------------------------------------------------------------------
 BASOPT|        1     |       1     | 0.27899867E-03 | 0.21560644E+01 |   61.128
 BASOPT|        2     |       1     | 0.19553793E-03 | 0.10326397E+01 |   36.226
 BASOPT|        3     |       1     | 0.14147836E-03 | 0.10116097E+01 |   35.072
 BASOPT|        4     |       1     | 0.47570001E-04 | 0.22399820E+01 |   34.383
 BASOPT|        5     |       1     | 0.51037167E-03 | 0.19997153E+02 |  131.114
 BASOPT|        6     |       1     | 0.25903484E-04 | 0.10016454E+01 |   26.647
 BASOPT|        7     |       1     | 0.37987426E-03 | 0.19396275E+01 |   58.911
 BASOPT| -----------------------------------------------------------------------
 BASOPT| Total residuum value: -.43552427E+03

 BASOPT| Information at iteration number:    5400
 BASOPT| Training set | Combination | Rho difference | Condition num. | Time
 BASOPT| -----------------------------------------------------------------------
 BASOPT|        1     |       1     | 0.28032796E-03 | 0.21531990E+01 |   62.289
 BASOPT|        2     |       1     | 0.19602190E-03 | 0.10291035E+01 |   36.916
 BASOPT|        3     |       1     | 0.14209745E-03 | 0.10057285E+01 |   35.736
 BASOPT|        4     |       1     | 0.48525954E-04 | 0.22359523E+01 |   35.035
 BASOPT|        5     |       1     | 0.51114555E-03 | 0.19894297E+02 |  133.599
 BASOPT|        6     |       1     | 0.26421034E-04 | 0.10025365E+01 |   27.155
 BASOPT|        7     |       1     | 0.38081646E-03 | 0.19442017E+01 |   60.032
 BASOPT| -----------------------------------------------------------------------
 BASOPT| Total residuum value: -.43552460E+03

 BASOPT| Information at iteration number:    5500
 BASOPT| Training set | Combination | Rho difference | Condition num. | Time
 BASOPT| -----------------------------------------------------------------------
 BASOPT|        1     |       1     | 0.27408883E-03 | 0.21605420E+01 |   63.449
 BASOPT|        2     |       1     | 0.19530193E-03 | 0.10244922E+01 |   37.606
 BASOPT|        3     |       1     | 0.13883574E-03 | 0.10045117E+01 |   36.398
 BASOPT|        4     |       1     | 0.48015618E-04 | 0.22374676E+01 |   35.688
 BASOPT|        5     |       1     | 0.50748348E-03 | 0.19869048E+02 |  136.084
 BASOPT|        6     |       1     | 0.26083715E-04 | 0.10005469E+01 |   27.662
 BASOPT|        7     |       1     | 0.37962210E-03 | 0.19421003E+01 |   61.152
 BASOPT| -----------------------------------------------------------------------
 BASOPT| Total residuum value: -.43552484E+03

 BASOPT| Information at iteration number:    5600
 BASOPT| Training set | Combination | Rho difference | Condition num. | Time
 BASOPT| -----------------------------------------------------------------------
 BASOPT|        1     |       1     | 0.27354406E-03 | 0.21641463E+01 |   64.611
 BASOPT|        2     |       1     | 0.19614858E-03 | 0.10219224E+01 |   38.297
 BASOPT|        3     |       1     | 0.13849952E-03 | 0.10040463E+01 |   37.062
 BASOPT|        4     |       1     | 0.47321290E-04 | 0.22349647E+01 |   36.341
 BASOPT|        5     |       1     | 0.50844294E-03 | 0.19826948E+02 |  138.569
 BASOPT|        6     |       1     | 0.25692140E-04 | 0.10003025E+01 |   28.169
 BASOPT|        7     |       1     | 0.38129047E-03 | 0.19425588E+01 |   62.271
 BASOPT| -----------------------------------------------------------------------
 BASOPT| Total residuum value: -.43552511E+03

 BASOPT| Information at iteration number:    5700
 BASOPT| Training set | Combination | Rho difference | Condition num. | Time
 BASOPT| -----------------------------------------------------------------------
 BASOPT|        1     |       1     | 0.27592128E-03 | 0.21631897E+01 |   65.772
 BASOPT|        2     |       1     | 0.19148276E-03 | 0.10186709E+01 |   38.988
 BASOPT|        3     |       1     | 0.13958226E-03 | 0.10042659E+01 |   37.725
 BASOPT|        4     |       1     | 0.47611345E-04 | 0.22282892E+01 |   36.995
 BASOPT|        5     |       1     | 0.50476202E-03 | 0.19730005E+02 |  141.056
 BASOPT|        6     |       1     | 0.25864829E-04 | 0.10004602E+01 |   28.677
 BASOPT|        7     |       1     | 0.37243683E-03 | 0.19406930E+01 |   63.390
 BASOPT| -----------------------------------------------------------------------
 BASOPT| Total residuum value: -.43552527E+03

 BASOPT| Information at iteration number:    5800
 BASOPT| Training set | Combination | Rho difference | Condition num. | Time
 BASOPT| -----------------------------------------------------------------------
 BASOPT|        1     |       1     | 0.27455888E-03 | 0.21638415E+01 |   66.935
 BASOPT|        2     |       1     | 0.19116049E-03 | 0.10173229E+01 |   39.679
 BASOPT|        3     |       1     | 0.13897656E-03 | 0.10034137E+01 |   38.389
 BASOPT|        4     |       1     | 0.48726286E-04 | 0.22259276E+01 |   37.649
 BASOPT|        5     |       1     | 0.50470468E-03 | 0.19695939E+02 |  143.540
 BASOPT|        6     |       1     | 0.26385755E-04 | 0.10002831E+01 |   29.185
 BASOPT|        7     |       1     | 0.37173269E-03 | 0.19410170E+01 |   64.511
 BASOPT| -----------------------------------------------------------------------
 BASOPT| Total residuum value: -.43552552E+03

 BASOPT| Information at iteration number:    5900
 BASOPT| Training set | Combination | Rho difference | Condition num. | Time
 BASOPT| -----------------------------------------------------------------------
 BASOPT|        1     |       1     | 0.27070921E-03 | 0.21566289E+01 |   68.097
 BASOPT|        2     |       1     | 0.19542473E-03 | 0.10103528E+01 |   40.369
 BASOPT|        3     |       1     | 0.13682124E-03 | 0.10013370E+01 |   39.053
 BASOPT|        4     |       1     | 0.47835819E-04 | 0.22104359E+01 |   38.303
 BASOPT|        5     |       1     | 0.50586602E-03 | 0.19415552E+02 |  146.024
 BASOPT|        6     |       1     | 0.25887111E-04 | 0.10005003E+01 |   29.693
 BASOPT|        7     |       1     | 0.38025670E-03 | 0.19341674E+01 |   65.631
 BASOPT| -----------------------------------------------------------------------
 BASOPT| Total residuum value: -.43552596E+03

 BASOPT| Information at iteration number:    6000
 BASOPT| Training set | Combination | Rho difference | Condition num. | Time
 BASOPT| -----------------------------------------------------------------------
 BASOPT|        1     |       1     | 0.27760409E-03 | 0.21609510E+01 |   69.260
 BASOPT|        2     |       1     | 0.19425362E-03 | 0.10064302E+01 |   41.059
 BASOPT|        3     |       1     | 0.14053735E-03 | 0.10030281E+01 |   39.718
 BASOPT|        4     |       1     | 0.48158990E-04 | 0.22013576E+01 |   38.957
 BASOPT|        5     |       1     | 0.50690738E-03 | 0.19281719E+02 |  148.507
 BASOPT|        6     |       1     | 0.26155467E-04 | 0.10016489E+01 |   30.201
 BASOPT|        7     |       1     | 0.37785684E-03 | 0.19313089E+01 |   66.751
 BASOPT| -----------------------------------------------------------------------
 BASOPT| Total residuum value: -.43552622E+03

 BASOPT| Information at iteration number:    6100
 BASOPT| Training set | Combination | Rho difference | Condition num. | Time
 BASOPT| -----------------------------------------------------------------------
 BASOPT|        1     |       1     | 0.27555334E-03 | 0.21595878E+01 |   70.423
 BASOPT|        2     |       1     | 0.19174849E-03 | 0.10035999E+01 |   41.750
 BASOPT|        3     |       1     | 0.13952280E-03 | 0.10050269E+01 |   40.382
 BASOPT|        4     |       1     | 0.49030250E-04 | 0.21978214E+01 |   39.611
 BASOPT|        5     |       1     | 0.50506696E-03 | 0.19184391E+02 |  150.992
 BASOPT|        6     |       1     | 0.26499372E-04 | 0.10002148E+01 |   30.710
 BASOPT|        7     |       1     | 0.37308771E-03 | 0.19250382E+01 |   67.870
 BASOPT| -----------------------------------------------------------------------
 BASOPT| Total residuum value: -.43552649E+03

 BASOPT| Information at iteration number:    6200
 BASOPT| Training set | Combination | Rho difference | Condition num. | Time
 BASOPT| -----------------------------------------------------------------------
 BASOPT|        1     |       1     | 0.27701895E-03 | 0.21530771E+01 |   71.585
 BASOPT|        2     |       1     | 0.18966038E-03 | 0.10070273E+01 |   42.441
 BASOPT|        3     |       1     | 0.14028504E-03 | 0.10043949E+01 |   41.046
 BASOPT|        4     |       1     | 0.47529004E-04 | 0.21882963E+01 |   40.265
 BASOPT|        5     |       1     | 0.49962051E-03 | 0.19010201E+02 |  153.476
 BASOPT|        6     |       1     | 0.25835681E-04 | 0.10000130E+01 |   31.218
 BASOPT|        7     |       1     | 0.36902433E-03 | 0.19193767E+01 |   68.990
 BASOPT| -----------------------------------------------------------------------
 BASOPT| Total residuum value: -.43552675E+03

 BASOPT| Information at iteration number:    6300
 BASOPT| Training set | Combination | Rho difference | Condition num. | Time
 BASOPT| -----------------------------------------------------------------------
 BASOPT|        1     |       1     | 0.28063612E-03 | 0.21563073E+01 |   72.747
 BASOPT|        2     |       1     | 0.19097736E-03 | 0.10078326E+01 |   43.132
 BASOPT|        3     |       1     | 0.14222588E-03 | 0.10050463E+01 |   41.710
 BASOPT|        4     |       1     | 0.47180208E-04 | 0.21876394E+01 |   40.919
 BASOPT|        5     |       1     | 0.50208548E-03 | 0.18985928E+02 |  155.960
 BASOPT|        6     |       1     | 0.25659812E-04 | 0.10004855E+01 |   31.727
 BASOPT|        7     |       1     | 0.37155353E-03 | 0.19221699E+01 |   70.111
 BASOPT| -----------------------------------------------------------------------
 BASOPT| Total residuum value: -.43552689E+03

 BASOPT| Information at iteration number:    6400
 BASOPT| Training set | Combination | Rho difference | Condition num. | Time
 BASOPT| -----------------------------------------------------------------------
 BASOPT|        1     |       1     | 0.28087094E-03 | 0.21518423E+01 |   73.910
 BASOPT|        2     |       1     | 0.19278249E-03 | 0.10115504E+01 |   43.823
 BASOPT|        3     |       1     | 0.14239810E-03 | 0.10046154E+01 |   42.373
 BASOPT|        4     |       1     | 0.44599494E-04 | 0.21978612E+01 |   41.573
 BASOPT|        5     |       1     | 0.50353464E-03 | 0.19006526E+02 |  158.444
 BASOPT|        6     |       1     | 0.24098576E-04 | 0.10002617E+01 |   32.235
 BASOPT|        7     |       1     | 0.37487698E-03 | 0.19148158E+01 |   71.229
 BASOPT| -----------------------------------------------------------------------
 BASOPT| Total residuum value: -.43552723E+03

 BASOPT| Information at iteration number:    6500
 BASOPT| Training set | Combination | Rho difference | Condition num. | Time
 BASOPT| -----------------------------------------------------------------------
 BASOPT|        1     |       1     | 0.27726366E-03 | 0.21503979E+01 |   75.073
 BASOPT|        2     |       1     | 0.19106041E-03 | 0.10120426E+01 |   44.514
 BASOPT|        3     |       1     | 0.14057329E-03 | 0.10030534E+01 |   43.037
 BASOPT|        4     |       1     | 0.44981367E-04 | 0.21987406E+01 |   42.227
 BASOPT|        5     |       1     | 0.49937889E-03 | 0.19014183E+02 |  160.930
 BASOPT|        6     |       1     | 0.24277391E-04 | 0.10014029E+01 |   32.744
 BASOPT|        7     |       1     | 0.37155440E-03 | 0.19111479E+01 |   72.348
 BASOPT| -----------------------------------------------------------------------
 BASOPT| Total residuum value: -.43552733E+03

 BASOPT| Information at iteration number:    6600
 BASOPT| Training set | Combination | Rho difference | Condition num. | Time
 BASOPT| -----------------------------------------------------------------------
 BASOPT|        1     |       1     | 0.27860376E-03 | 0.21465002E+01 |   76.237
 BASOPT|        2     |       1     | 0.18970424E-03 | 0.10138163E+01 |   45.205
 BASOPT|        3     |       1     | 0.14129196E-03 | 0.10014011E+01 |   43.702
 BASOPT|        4     |       1     | 0.43544435E-04 | 0.21945328E+01 |   42.883
 BASOPT|        5     |       1     | 0.49569145E-03 | 0.18914468E+02 |  163.414
 BASOPT|        6     |       1     | 0.23573183E-04 | 0.10010015E+01 |   33.253
 BASOPT|        7     |       1     | 0.36892600E-03 | 0.19063118E+01 |   73.469
 BASOPT| -----------------------------------------------------------------------
 BASOPT| Total residuum value: -.43552749E+03

 BASOPT| Information at iteration number:    6700
 BASOPT| Training set | Combination | Rho difference | Condition num. | Time
 BASOPT| -----------------------------------------------------------------------
 BASOPT|        1     |       1     | 0.28109295E-03 | 0.21378436E+01 |   77.400
 BASOPT|        2     |       1     | 0.19157059E-03 | 0.10174735E+01 |   45.897
 BASOPT|        3     |       1     | 0.14263425E-03 | 0.10001594E+01 |   44.366
 BASOPT|        4     |       1     | 0.43159974E-04 | 0.21866815E+01 |   43.538
 BASOPT|        5     |       1     | 0.49578863E-03 | 0.18756308E+02 |  165.896
 BASOPT|        6     |       1     | 0.23385566E-04 | 0.10003595E+01 |   33.762
 BASOPT|        7     |       1     | 0.37260844E-03 | 0.19023312E+01 |   74.587
 BASOPT| -----------------------------------------------------------------------
 BASOPT| Total residuum value: -.43552788E+03

 BASOPT| Information at iteration number:    6800
 BASOPT| Training set | Combination | Rho difference | Condition num. | Time
 BASOPT| -----------------------------------------------------------------------
 BASOPT|        1     |       1     | 0.28219147E-03 | 0.21365039E+01 |   78.563
 BASOPT|        2     |       1     | 0.19226410E-03 | 0.10171667E+01 |   46.588
 BASOPT|        3     |       1     | 0.14331675E-03 | 0.10016869E+01 |   45.030
 BASOPT|        4     |       1     | 0.42705806E-04 | 0.21865806E+01 |   44.193
 BASOPT|        5     |       1     | 0.49745935E-03 | 0.18707285E+02 |  168.379
 BASOPT|        6     |       1     | 0.23087894E-04 | 0.10012552E+01 |   34.271
 BASOPT|        7     |       1     | 0.37399675E-03 | 0.19021541E+01 |   75.707
 BASOPT| -----------------------------------------------------------------------
 BASOPT| Total residuum value: -.43552800E+03

 BASOPT| Information at iteration number:    6900
 BASOPT| Training set | Combination | Rho difference | Condition num. | Time
 BASOPT| -----------------------------------------------------------------------
 BASOPT|        1     |       1     | 0.27969386E-03 | 0.21407184E+01 |   79.726
 BASOPT|        2     |       1     | 0.19149111E-03 | 0.10183470E+01 |   47.279
 BASOPT|        3     |       1     | 0.14171631E-03 | 0.10004181E+01 |   45.694
 BASOPT|        4     |       1     | 0.41907960E-04 | 0.21807311E+01 |   44.848
 BASOPT|        5     |       1     | 0.49330551E-03 | 0.18586321E+02 |  170.862
 BASOPT|        6     |       1     | 0.22686727E-04 | 0.10003928E+01 |   34.780
 BASOPT|        7     |       1     | 0.37250042E-03 | 0.19008055E+01 |   76.827
 BASOPT| -----------------------------------------------------------------------
 BASOPT| Total residuum value: -.43552819E+03

 BASOPT| Information at iteration number:    7000
 BASOPT| Training set | Combination | Rho difference | Condition num. | Time
 BASOPT| -----------------------------------------------------------------------
 BASOPT|        1     |       1     | 0.28093960E-03 | 0.21412745E+01 |   80.890
 BASOPT|        2     |       1     | 0.19150684E-03 | 0.10183140E+01 |   47.971
 BASOPT|        3     |       1     | 0.14257503E-03 | 0.10010586E+01 |   46.358
 BASOPT|        4     |       1     | 0.42132750E-04 | 0.21785077E+01 |   45.503
 BASOPT|        5     |       1     | 0.49465258E-03 | 0.18540344E+02 |  173.346
 BASOPT|        6     |       1     | 0.22753324E-04 | 0.10013002E+01 |   35.289
 BASOPT|        7     |       1     | 0.37251318E-03 | 0.18984422E+01 |   77.947
 BASOPT| -----------------------------------------------------------------------
 BASOPT| Total residuum value: -.43552847E+03

 BASOPT| Information at iteration number:    7100
 BASOPT| Training set | Combination | Rho difference | Condition num. | Time
 BASOPT| -----------------------------------------------------------------------
 BASOPT|        1     |       1     | 0.27452391E-03 | 0.21462673E+01 |   82.054
 BASOPT|        2     |       1     | 0.18873920E-03 | 0.10156711E+01 |   48.663
 BASOPT|        3     |       1     | 0.13920297E-03 | 0.10013205E+01 |   47.023
 BASOPT|        4     |       1     | 0.43085161E-04 | 0.21686672E+01 |   46.159
[...]
 BASOPT| Training set | Combination | Rho difference | Condition num. | Time
 BASOPT| -----------------------------------------------------------------------
 BASOPT|        1     |       1     | 0.41154969E-03 | 0.12647140E+01 | 1176.865
 BASOPT|        2     |       1     | 0.28258894E-03 | 0.10000231E+01 |  692.418
 BASOPT|        3     |       1     | 0.21124678E-03 | 0.10000104E+01 |  679.265
 BASOPT|        4     |       1     | 0.25601760E-04 | 0.13707474E+01 |  675.643
 BASOPT|        5     |       1     | 0.55675270E-03 | 0.57060892E+01 | 2495.311
 BASOPT|        6     |       1     | 0.12698703E-04 | 0.10000038E+01 |  514.505
 BASOPT|        7     |       1     | 0.54712276E-03 | 0.11126778E+01 | 1127.716
 BASOPT| -----------------------------------------------------------------------
 BASOPT| Total residuum value: -.43557723E+03

 BASOPT| Information at iteration number:   99600
 BASOPT| Training set | Combination | Rho difference | Condition num. | Time
 BASOPT| -----------------------------------------------------------------------
 BASOPT|        1     |       1     | 0.41081731E-03 | 0.12642774E+01 | 1178.049
 BASOPT|        2     |       1     | 0.28275707E-03 | 0.10000496E+01 |  693.119
 BASOPT|        3     |       1     | 0.21082170E-03 | 0.10000233E+01 |  679.958
 BASOPT|        4     |       1     | 0.25669596E-04 | 0.13707605E+01 |  676.318
 BASOPT|        5     |       1     | 0.55698507E-03 | 0.57027477E+01 | 2497.826
 BASOPT|        6     |       1     | 0.12749051E-04 | 0.10000044E+01 |  515.028
 BASOPT|        7     |       1     | 0.54745350E-03 | 0.11125184E+01 | 1128.855
 BASOPT| -----------------------------------------------------------------------
 BASOPT| Total residuum value: -.43557724E+03

 BASOPT| Information at iteration number:   99700
 BASOPT| Training set | Combination | Rho difference | Condition num. | Time
 BASOPT| -----------------------------------------------------------------------
 BASOPT|        1     |       1     | 0.41107108E-03 | 0.12639862E+01 | 1179.232
 BASOPT|        2     |       1     | 0.28243845E-03 | 0.10000336E+01 |  693.825
 BASOPT|        3     |       1     | 0.21095099E-03 | 0.10000444E+01 |  680.650
 BASOPT|        4     |       1     | 0.25559470E-04 | 0.13707120E+01 |  676.995
 BASOPT|        5     |       1     | 0.55681311E-03 | 0.57007400E+01 | 2500.349
 BASOPT|        6     |       1     | 0.12693093E-04 | 0.10000423E+01 |  515.553
 BASOPT|        7     |       1     | 0.54688031E-03 | 0.11123766E+01 | 1129.996
 BASOPT| -----------------------------------------------------------------------
 BASOPT| Total residuum value: -.43557724E+03

 BASOPT| Information at iteration number:   99800
 BASOPT| Training set | Combination | Rho difference | Condition num. | Time
 BASOPT| -----------------------------------------------------------------------
 BASOPT|        1     |       1     | 0.41018387E-03 | 0.12633767E+01 | 1180.415
 BASOPT|        2     |       1     | 0.28286306E-03 | 0.10000154E+01 |  694.525
 BASOPT|        3     |       1     | 0.21048026E-03 | 0.10000064E+01 |  681.342
 BASOPT|        4     |       1     | 0.25646705E-04 | 0.13707461E+01 |  677.670
 BASOPT|        5     |       1     | 0.55686623E-03 | 0.56974578E+01 | 2502.867
 BASOPT|        6     |       1     | 0.12745166E-04 | 0.10000110E+01 |  516.076
 BASOPT|        7     |       1     | 0.54768020E-03 | 0.11121836E+01 | 1131.135
 BASOPT| -----------------------------------------------------------------------
 BASOPT| Total residuum value: -.43557725E+03

 BASOPT| Information at iteration number:   99900
 BASOPT| Training set | Combination | Rho difference | Condition num. | Time
 BASOPT| -----------------------------------------------------------------------
 BASOPT|        1     |       1     | 0.41071942E-03 | 0.12630094E+01 | 1181.600
 BASOPT|        2     |       1     | 0.28230823E-03 | 0.10000305E+01 |  695.226
 BASOPT|        3     |       1     | 0.21079048E-03 | 0.10000237E+01 |  682.034
 BASOPT|        4     |       1     | 0.25689769E-04 | 0.13706533E+01 |  678.345
 BASOPT|        5     |       1     | 0.55664827E-03 | 0.56950698E+01 | 2505.383
 BASOPT|        6     |       1     | 0.12761954E-04 | 0.10000085E+01 |  516.599
 BASOPT|        7     |       1     | 0.54662915E-03 | 0.11120175E+01 | 1132.275
 BASOPT| -----------------------------------------------------------------------
 BASOPT| Total residuum value: -.43557726E+03

 BASOPT| Information at iteration number:  100000
 BASOPT| Training set | Combination | Rho difference | Condition num. | Time
 BASOPT| -----------------------------------------------------------------------
 BASOPT|        1     |       1     | 0.41172264E-03 | 0.12626467E+01 | 1182.785
 BASOPT|        2     |       1     | 0.28278064E-03 | 0.10001133E+01 |  695.927
 BASOPT|        3     |       1     | 0.21137973E-03 | 0.10001216E+01 |  682.726
 BASOPT|        4     |       1     | 0.25715837E-04 | 0.13704010E+01 |  679.021
 BASOPT|        5     |       1     | 0.55730262E-03 | 0.56912546E+01 | 2507.899
 BASOPT|        6     |       1     | 0.12759705E-04 | 0.10000601E+01 |  517.123
 BASOPT|        7     |       1     | 0.54752271E-03 | 0.11118116E+01 | 1133.415
 BASOPT| -----------------------------------------------------------------------
 BASOPT| Total residuum value: -.43557728E+03


 -------------------------------------------------------------------------------
 -                                                                             -
 -                                DBCSR STATISTICS                             -
 -                                                                             -
 -------------------------------------------------------------------------------
 COUNTER                                    TOTAL       BLAS       SMM       ACC
 flops    68 x    68 x     2                55488       0.0%    100.0%      0.0%
 flops   116 x   116 x     4               215296       0.0%    100.0%      0.0%
 flops    68 x    68 x    10               277440       0.0%    100.0%      0.0%
 flops   116 x    68 x    10               315520       0.0%    100.0%      0.0%
 flops    68 x   116 x    10               315520       0.0%    100.0%      0.0%
 flops   116 x   116 x    10               807360       0.0%    100.0%      0.0%
 flops   116 x   116 x     8              1291776       0.0%    100.0%      0.0%
 flops inhomo. stacks                        9248     100.0%      0.0%      0.0%
 flops total                         3.287648E+06       0.3%     99.7%      0.0%
 flops max/rank                    705.248000E+03       1.3%     98.7%      0.0%
 matmuls inhomo. stacks                         1     100.0%      0.0%      0.0%
 matmuls total                                 22       4.5%     95.5%      0.0%
 number of processed stacks                    16       6.2%     93.8%      0.0%
 average stack size                                     1.0       1.4       0.0
 marketing flops                     4.729376E+06
 -------------------------------------------------------------------------------
 # multiplications                              1
 max memory usage/rank             370.618368E+06
 # max total images/rank                        3
 # max 3D layers                                1
 # MPI messages exchanged                     162
 MPI messages size (bytes):
  total size                       262.272000E+03
  min size                           0.000000E+00
  max size                          29.440000E+03
  average size                       1.618963E+03
 MPI breakdown and total messages size (bytes):
             size <=      128                 135                        0
       128 < size <=     8192                  16                    40576
      8192 < size <=    32768                  11                   221696
     32768 < size <=   131072                   0                        0
    131072 < size <=  4194304                   0                        0
   4194304 < size <= 16777216                   0                        0
  16777216 < size                               0                        0
 -------------------------------------------------------------------------------

 *** WARNING in dbcsr_mm.F:297 :: Using a non-square number of MPI ranks ***
 *** might lead to poor performance. Used ranks: 6 Suggested: 4 9        ***

 -------------------------------------------------------------------------------
 -                                                                             -
 -                      DBCSR MESSAGE PASSING PERFORMANCE                      -
 -                                                                             -
 -------------------------------------------------------------------------------
 ROUTINE             CALLS      AVE VOLUME [Bytes]
 MP_Bcast                8                     12.
 MP_Allreduce           40                     20.
 MP_Alltoall       6000081                  51016.
 MP_ISend               18                   1709.
 MP_IRecv               18                     57.
 -------------------------------------------------------------------------------

 -------------------------------------------------------------------------------
 -                                                                             -
 -                                GRID STATISTICS                              -
 -                                                                             -
 -------------------------------------------------------------------------------
 LP    KERNEL    OPERATION                                     COUNT     PERCENT
 0     general   collocate                                        39       0.62%
 0     ortho     integrate                                       425       6.72%
 0     ortho     collocate                                       425       6.72%
 1     ortho     integrate                                       206       3.26%
 1     ortho     collocate                                       206       3.26%
 2     ortho     integrate                                       681      10.77%
 2     ortho     collocate                                       681      10.77%
 3     ortho     integrate                                       442       6.99%
 3     ortho     collocate                                       442       6.99%
 4     ortho     integrate                                       252       3.98%
 4     ortho     collocate                                       252       3.98%
 5     ortho     integrate                                       750      11.86%
 5     ortho     collocate                                       750      11.86%
 6     ortho     integrate                                       113       1.79%
 6     ortho     collocate                                       113       1.79%
 7     ortho     integrate                                        68       1.08%
 7     ortho     collocate                                        68       1.08%
 8     ortho     integrate                                       206       3.26%
 8     ortho     collocate                                       206       3.26%
 -------------------------------------------------------------------------------

 MEMORY| Estimated peak process memory [MiB]                                 810

 -------------------------------------------------------------------------------
 -                                                                             -
 -                         MESSAGE PASSING PERFORMANCE                         -
 -                                                                             -
 -------------------------------------------------------------------------------

 ROUTINE             CALLS      AVE VOLUME [Bytes]
 MP_Bcast           300033                    106.
 MP_Allreduce      1300142                     73.
 MP_Sync            300003
 MP_Alltoall            44               17770212.
 MP_ISendRecv           30                 676608.
 MP_Wait                60
 MP_comm_split      200003
 MP_ISend               24                2721600.
 MP_IRecv               24                2721600.
 -------------------------------------------------------------------------------


 -------------------------------------------------------------------------------
 -                                                                             -
 -                           R E F E R E N C E S                               -
 -                                                                             -
 -------------------------------------------------------------------------------
 
 CP2K version 8.0 (Development Version), the CP2K developers group (2020).
 CP2K is freely available from https://www.cp2k.org/ .

 Kuehne,Thomas D.; Iannuzzi,Marcella; Del Ben,Mauro;
 Rybkin,Vladimir V.; Seewald,Patrick; Stein,Frederick; Laino,Teodoro;
 Khaliullin,Rustam Z.; Schuett,Ole; Schiffmann,Florian; Golze,Dorothea;
 Wilhelm,Jan; Chulkov,Sergey; Bani-Hashemian,Mohammad Hossein;
 Weber,Valery; Borstnik,Urban; Taillefumier,Mathieu;
 Jakobovits,Alice Shoshana; Lazzaro,Alfio; Pabst,Hans; Mueller,Tiziano;
 Schade,Robert; Guidon,Manuel; Andermatt,Samuel; Holmberg,Nico;
 Schenter,Gregory K.; Hehn,Anna; Bussy,Augustin; Belleflamme,Fabian;
 Tabacchi,Gloria; Gloess,Andreas; Lass,Michael; Bethune,Iain;
 Mundy,Christopher J.; Plessl,Christian; Watkins,Matt;
 VandeVondele,Joost; Krack,Matthias; Hutter,Juerg. 
 The Journal of Chemical Physics, 152 (19), (2020). 
 CP2K: An electronic structure and molecular dynamics software package -
 Quickstep: Efficient and accurate electronic structure calculations.
 https://doi.org/10.1063/5.0007045

 Schuett, Ole; Messmer, Peter; Hutter, Juerg; VandeVondele, Joost. 
 Electronic Structure Calculations on Graphics Processing Units, John
 Wiley & Sons, Ltd, 173-190 (2016). 
 GPU-Accelerated Sparse Matrix-Matrix Multiplication for
 Linear Scaling Density Functional Theory.
 https://doi.org/10.1002/9781118670712.ch8

 Borstnik, U; VandeVondele, J; Weber, V; Hutter, J. 
 PARALLEL COMPUTING, 40 (5-6), 47-58 (2014). 
 Sparse matrix multiplication: The distributed block-compressed sparse
 row library.
 https://doi.org/10.1016/j.parco.2014.03.012

 Hutter, J; Iannuzzi, M; Schiffmann, F; VandeVondele, J. 
 WIREs Comput Mol Sci., 4 (1), 15-25 (2014). 
 CP2K: atomistic simulations of condensed matter systems.
 https://doi.org/10.1002/wcms.1159

 Marek, A; Blum, V; Johanni, R; Havu, V; Lang, B; Auckenthaler, T;
 Heinecke, A; Bungartz, H; Lederer, H. 
 Journal of Physics: Condensed Matter, 26 (21), (2014). 
 The ELPA library: scalable parallel eigenvalue solutions for
 electronic structure
 theory and computational science.
 https://doi.org/10.1088/0953-8984/26/21/213201

 Guidon, M; Hutter, J; VandeVondele, J. 
 JOURNAL OF CHEMICAL THEORY AND COMPUTATION, 6 (8), 2348-2364 (2010). 
 Auxiliary Density Matrix Methods for Hartree-Fock Exchange Calculations.
 https://doi.org/10.1021/ct1002225

 VandeVondele, J; Hutter, J. 
 JOURNAL OF CHEMICAL PHYSICS, 127 (11), 114105 (2007). 
 Gaussian basis sets for accurate calculations on molecular systems in
 gas and condensed phases.
 https://doi.org/10.1063/1.2770708

 Krack, M. 
 THEORETICAL CHEMISTRY ACCOUNTS, 114 (1-3), 145-152 (2005). 
 Pseudopotentials for H to Kr optimized for gradient-corrected
 exchange-correlation functionals.
 https://doi.org/10.1007/s00214-005-0655-y

 VandeVondele, J; Krack, M; Mohamed, F; Parrinello, M; Chassaing, T;
 Hutter, J. COMPUTER PHYSICS COMMUNICATIONS, 167 (2), 103-128 (2005). 
 QUICKSTEP: Fast and accurate density functional calculations using a
 mixed Gaussian and plane waves approach.
 https://doi.org/10.1016/j.cpc.2004.12.014

 Frigo, M; Johnson, SG. 
 PROCEEDINGS OF THE IEEE, 93 (2), 216-231 (2005). 
 The design and implementation of FFTW3.
 https://doi.org/10.1109/JPROC.2004.840301

 Hartwigsen, C; Goedecker, S; Hutter, J. 
 PHYSICAL REVIEW B, 58 (7), 3641-3662 (1998). 
 Relativistic separable dual-space Gaussian pseudopotentials from H to Rn.
 https://doi.org/10.1103/PhysRevB.58.3641

 Lippert, G; Hutter, J; Parrinello, M. 
 MOLECULAR PHYSICS, 92 (3), 477-487 (1997). 
 A hybrid Gaussian and plane wave density functional scheme.
 https://doi.org/10.1080/002689797170220

 Perdew, JP; Burke, K; Ernzerhof, M. 
 PHYSICAL REVIEW LETTERS, 77 (18), 3865-3868 (1996). 
 Generalized gradient approximation made simple.
 https://doi.org/10.1103/PhysRevLett.77.3865

 Goedecker, S; Teter, M; Hutter, J. 
 PHYSICAL REVIEW B, 54 (3), 1703-1710 (1996). 
 Separable dual-space Gaussian pseudopotentials.
 https://doi.org/10.1103/PhysRevB.54.1703


 -------------------------------------------------------------------------------
 -                                                                             -
 -                                T I M I N G                                  -
 -                                                                             -
 -------------------------------------------------------------------------------
 SUBROUTINE                       CALLS  ASD         SELF TIME        TOTAL TIME
                                MAXIMUM       AVERAGE  MAXIMUM  AVERAGE  MAXIMUM
 CP2K                                 1  1.0    0.002    0.005 2580.841 2580.975
 run_optimize_basis                   1  2.0    0.001    0.002 2580.832 2580.967
 driver_para_opt_basis                1  3.0    0.000    0.000 2580.826 2580.961
 driver_optimization_para_low         1  4.0    0.400    0.797 2580.826 2580.961
 compute_residuum_vectors        100001  5.0    3.971    5.159 2515.190 2515.560
 mp_sum_dv                       500006  5.8 1454.405 1998.081 1454.405 1998.081
 cp_gemm                        1200012  7.2    1.538    1.691  506.480 1646.159
 cp_gemm_fm_gemm                1200012  8.2    1.024    1.170  504.942 1644.517
 cp_fm_gemm                     1200012  9.2  503.919 1643.462  503.919 1643.462
 admm_fit_mo_coeffs              100001  6.0    0.180    0.252  470.432 1058.273
 fit_mo_coeffs                   100001  7.0    0.788    0.950  279.334  707.082
 purify_mo_diag                  100001  7.0    0.958    1.141  190.917  361.923
 copy_dbcsr_to_fm                500006  6.8    4.374    4.692  228.818  344.909
 cp_fm_syevd                     200002  7.0    0.498    0.642  166.092  241.241
 cp_fm_redistribute_end          200002  8.0   34.926  195.820   36.832  198.079
 cp_fm_syevd_base                200002  8.0   81.391  187.992   81.391  187.992
 dbcsr_complete_redistribute     500007  7.8   18.200   37.362  128.105  169.944
 dbcsr_desymmetrize_deep         500006  7.8    7.198   14.011   81.436  169.330
 mp_alltoall_i22                1000013  8.8   46.855  131.991   46.855  131.991
 cp_fm_upper_to_full             300005  7.3   44.654  129.957   44.654  129.957
 build_overlap_matrix_low        200006  6.0   18.443  110.137   21.099  113.921
 mp_alltoall_d11v               3000041  9.3   40.449   78.717   40.449   78.717
 cp_fm_redistribute_start        200002  8.0   33.108   56.323   47.370   68.606
 mp_bcast_i                      100029  5.0   58.835   60.694   58.835   60.694
 powell_optimize                 100002  5.0    1.656   59.603    1.656   59.603
 -------------------------------------------------------------------------------

 The number of warnings for this run is : 1
 
 -------------------------------------------------------------------------------
  **** **** ******  **  PROGRAM ENDED AT                 2020-12-02 20:33:07.454
 ***** ** ***  *** **   PROGRAM RAN ON                                   tcopt10
 **    ****   ******    PROGRAM RAN BY                                    hutter
 ***** **    ** ** **   PROGRAM PROCESS ID                                 15882
  **** **  *******  **  PROGRAM STOPPED IN /data/hutter/GITHUB/BASIS/MOLOPT/PBE0
                                           /noble/q8
