
  **** **** ******  **  PROGRAM STARTED AT               2020-12-02 22:35:09.001
 ***** ** ***  *** **   PROGRAM STARTED ON                               tcopt10
 **    ****   ******    PROGRAM STARTED BY                                hutter
 ***** **    ** ** **   PROGRAM PROCESS ID                                 29591
  **** **  *******  **  PROGRAM STARTED IN /data/hutter/GITHUB/BASIS/MOLOPT/PBE0
                                           /noble/q8

 CP2K| version string:                    CP2K version 8.0 (Development Version)
 CP2K| source code revision number:                                  git:afc71fa
 CP2K| cp2kflags: omp libint fftw3 libxc elpa parallel mpi3 scalapack xsmm spgli
 CP2K|            b sirius
 CP2K| is freely available from                            https://www.cp2k.org/
 CP2K| Program compiled at                          Tue Nov 17 10:27:14 CET 2020
 CP2K| Program compiled on                                               tcopt10
 CP2K| Program compiled for                                                local
 CP2K| Data directory path                 /data/hutter/GITHUB/CURRENT/cp2k/data
 CP2K| Input file name                                           opt-all_kr8.inp

 GLOBAL| Method name                                              OPTIMIZE_BASIS
 GLOBAL| Project name                                                     molopt
 GLOBAL| Preferred FFT library                                             FFTW3
 GLOBAL| Preferred diagonalization lib.                                     ELPA
 GLOBAL| Run type                                                   ENERGY_FORCE
 GLOBAL| All-to-all communication in single precision                          F
 GLOBAL| FFTs using library dependent lengths                                  F
 GLOBAL| Global print level                                               MEDIUM
 GLOBAL| MPI I/O enabled                                                       T
 GLOBAL| Total number of message passing processes                            36
 GLOBAL| Number of threads for this process                                    1
 GLOBAL| This output is from process                                           0
 GLOBAL| CPU model name                          AMD EPYC 7401 24-Core Processor
 GLOBAL| CPUID                                                              1002

 MEMORY| system memory details [Kb]
 MEMORY|                        rank 0           min           max       average
 MEMORY| MemTotal            263987256     263987256     263987256     263987256
 MEMORY| MemFree             257647652     257647652     257647652     257647652
 MEMORY| Buffers                    32            32            32            32
 MEMORY| Cached                2705364       2705364       2705364       2705364
 MEMORY| Slab                   801664        801664        801664        801664
 MEMORY| SReclaimable           302584        302584        302584        302584
 MEMORY| MemLikelyFree       260655632     260655632     260655632     260655632


 *** Fundamental physical constants (SI units) ***

 *** Literature: B. J. Mohr and B. N. Taylor,
 ***             CODATA recommended values of the fundamental physical
 ***             constants: 2006, Web Version 5.1
 ***             http://physics.nist.gov/constants

 Speed of light in vacuum [m/s]                             2.99792458000000E+08
 Magnetic constant or permeability of vacuum [N/A**2]       1.25663706143592E-06
 Electric constant or permittivity of vacuum [F/m]          8.85418781762039E-12
 Planck constant (h) [J*s]                                  6.62606896000000E-34
 Planck constant (h-bar) [J*s]                              1.05457162825177E-34
 Elementary charge [C]                                      1.60217648700000E-19
 Electron mass [kg]                                         9.10938215000000E-31
 Electron g factor [ ]                                     -2.00231930436220E+00
 Proton mass [kg]                                           1.67262163700000E-27
 Fine-structure constant                                    7.29735253760000E-03
 Rydberg constant [1/m]                                     1.09737315685270E+07
 Avogadro constant [1/mol]                                  6.02214179000000E+23
 Boltzmann constant [J/K]                                   1.38065040000000E-23
 Atomic mass unit [kg]                                      1.66053878200000E-27
 Bohr radius [m]                                            5.29177208590000E-11

 *** Conversion factors ***

 [u] -> [a.u.]                                              1.82288848426455E+03
 [Angstrom] -> [Bohr] = [a.u.]                              1.88972613288564E+00
 [a.u.] = [Bohr] -> [Angstrom]                              5.29177208590000E-01
 [a.u.] -> [s]                                              2.41888432650478E-17
 [a.u.] -> [fs]                                             2.41888432650478E-02
 [a.u.] -> [J]                                              4.35974393937059E-18
 [a.u.] -> [N]                                              8.23872205491840E-08
 [a.u.] -> [K]                                              3.15774647902944E+05
 [a.u.] -> [kJ/mol]                                         2.62549961709828E+03
 [a.u.] -> [kcal/mol]                                       6.27509468713739E+02
 [a.u.] -> [Pa]                                             2.94210107994716E+13
 [a.u.] -> [bar]                                            2.94210107994716E+08
 [a.u.] -> [atm]                                            2.90362800883016E+08
 [a.u.] -> [eV]                                             2.72113838565563E+01
 [a.u.] -> [Hz]                                             6.57968392072181E+15
 [a.u.] -> [1/cm] (wave numbers)                            2.19474631370540E+05
 [a.u./Bohr**2] -> [1/cm]                                   5.14048714338585E+03
 
 DBCSR| CPU Multiplication driver                                           XSMM
 DBCSR| Multrec recursion limit                                              512
 DBCSR| Multiplication stack size                                           1000
 DBCSR| Maximum elements for images                                    UNLIMITED
 DBCSR| Multiplicative factor virtual images                                   1
 DBCSR| Use multiplication densification                                       T
 DBCSR| Multiplication size stacks                                             3
 DBCSR| Use memory pool for CPU allocation                                     F
 DBCSR| Number of 3D layers                                               SINGLE
 DBCSR| Use MPI memory allocation                                              F
 DBCSR| Use RMA algorithm                                                      F
 DBCSR| Use Communication thread                                               T
 DBCSR| Communication thread load                                             87
 DBCSR| Split modifier for TAS multiplication algorithm                  1.0E+00

 BASOPT| Total number of calculations     18

 BASOPT| Content of basis combination      1
 BASOPT|     Element:   KR    Basis set:    TZV2P-MOLOPT-PBE0-GTH-Q8
 BASOPT|     Element:   XE    Basis set:    TZV2P-MOLOPT-PBE0-GTH-Q8
 BASOPT|     Element:   RN    Basis set:    TZV2P-MOLOPT-PBE0-GTH-Q8

 BASOPT| Content of basis combination      2
 BASOPT|     Element:   KR    Basis set:    TZVP-MOLOPT-PBE0-GTH-q8
 BASOPT|     Element:   XE    Basis set:    TZVP-MOLOPT-PBE0-GTH-q8
 BASOPT|     Element:   RN    Basis set:    TZVP-MOLOPT-PBE0-GTH-q8

 BASOPT| Content of basis combination      3
 BASOPT|     Element:   KR    Basis set:    DZVP-MOLOPT-PBE0-GTH-q8
 BASOPT|     Element:   XE    Basis set:    DZVP-MOLOPT-PBE0-GTH-q8
 BASOPT|     Element:   RN    Basis set:    DZVP-MOLOPT-PBE0-GTH-q8

 BASOPT| Information at iteration number:       0
 BASOPT| Training set | Combination | Rho difference | Condition num. | Time
 BASOPT| -----------------------------------------------------------------------
 BASOPT|        1     |       1     | 0.27370528E-04 | 0.15435341E+02 |    0.010
 BASOPT|        1     |       2     | 0.27370457E-04 | 0.15435341E+02 |    0.008
 BASOPT|        1     |       3     | 0.32150531E-04 | 0.10000019E+01 |    0.007
 BASOPT|        2     |       1     | 0.26579957E-03 | 0.29551174E+02 |    0.010
 BASOPT|        2     |       2     | 0.26579942E-03 | 0.29551174E+02 |    0.007
 BASOPT|        2     |       3     | 0.26590473E-03 | 0.10000040E+01 |    0.006
 BASOPT|        3     |       1     | 0.20380169E-02 | 0.40708927E+02 |    0.017
 BASOPT|        3     |       2     | 0.21190414E-02 | 0.40107379E+02 |    0.013
 BASOPT|        3     |       3     | 0.21656013E-02 | 0.16510118E+01 |    0.011
 BASOPT|        4     |       1     | 0.83878698E-04 | 0.94617399E+02 |    0.023
 BASOPT|        4     |       2     | 0.25037305E-03 | 0.36205415E+02 |    0.015
 BASOPT|        4     |       3     | 0.27717717E-03 | 0.55810094E+01 |    0.012
 BASOPT|        5     |       1     | 0.52944677E-03 | 0.71024906E+02 |    0.021
 BASOPT|        5     |       2     | 0.59823665E-03 | 0.49061231E+02 |    0.014
 BASOPT|        5     |       3     | 0.61610616E-03 | 0.20835587E+01 |    0.013
 BASOPT|        6     |       1     | 0.10882547E-02 | 0.35656472E+02 |    0.008
 BASOPT|        6     |       2     | 0.10882547E-02 | 0.35656472E+02 |    0.008
 BASOPT|        6     |       3     | 0.10899503E-02 | 0.10000070E+01 |    0.006
 BASOPT| -----------------------------------------------------------------------
 BASOPT| Total residuum value: -.90282615E+03

 BASOPT| Information at iteration number:     100
 BASOPT| Training set | Combination | Rho difference | Condition num. | Time
 BASOPT| -----------------------------------------------------------------------
 BASOPT|        1     |       1     | 0.27370528E-04 | 0.15435341E+02 |    0.789
 BASOPT|        1     |       2     | 0.27370457E-04 | 0.15435341E+02 |    0.566
 BASOPT|        1     |       3     | 0.32150531E-04 | 0.10000019E+01 |    0.512
 BASOPT|        2     |       1     | 0.26579957E-03 | 0.29551174E+02 |    0.734
 BASOPT|        2     |       2     | 0.26579942E-03 | 0.29551174E+02 |    0.539
 BASOPT|        2     |       3     | 0.26590473E-03 | 0.10000040E+01 |    0.481
 BASOPT|        3     |       1     | 0.20380169E-02 | 0.40708927E+02 |    1.522
 BASOPT|        3     |       2     | 0.21190414E-02 | 0.40107379E+02 |    1.127
 BASOPT|        3     |       3     | 0.21656013E-02 | 0.16510118E+01 |    0.961
 BASOPT|        4     |       1     | 0.83172507E-04 | 0.93088615E+02 |    2.170
 BASOPT|        4     |       2     | 0.25037305E-03 | 0.36205415E+02 |    1.357
 BASOPT|        4     |       3     | 0.27717717E-03 | 0.55810094E+01 |    1.135
 BASOPT|        5     |       1     | 0.52944677E-03 | 0.71024906E+02 |    1.784
 BASOPT|        5     |       2     | 0.59823665E-03 | 0.49061231E+02 |    1.209
 BASOPT|        5     |       3     | 0.61610616E-03 | 0.20835587E+01 |    1.019
 BASOPT|        6     |       1     | 0.10882547E-02 | 0.35656472E+02 |    0.599
 BASOPT|        6     |       2     | 0.10882547E-02 | 0.35656472E+02 |    0.506
 BASOPT|        6     |       3     | 0.10899503E-02 | 0.10000070E+01 |    0.452
 BASOPT| -----------------------------------------------------------------------
 BASOPT| Total residuum value: -.90282632E+03

 BASOPT| Information at iteration number:     200
 BASOPT| Training set | Combination | Rho difference | Condition num. | Time
 BASOPT| -----------------------------------------------------------------------
 BASOPT|        1     |       1     | 0.27370528E-04 | 0.15435341E+02 |    1.567
 BASOPT|        1     |       2     | 0.27370457E-04 | 0.15435341E+02 |    1.123
 BASOPT|        1     |       3     | 0.32150531E-04 | 0.10000019E+01 |    1.012
 BASOPT|        2     |       1     | 0.26579957E-03 | 0.32540387E+02 |    1.458
 BASOPT|        2     |       2     | 0.26579942E-03 | 0.32540387E+02 |    1.069
 BASOPT|        2     |       3     | 0.15576464E-02 | 0.11836621E+01 |    0.954
 BASOPT|        3     |       1     | 0.20380169E-02 | 0.40708927E+02 |    3.026
 BASOPT|        3     |       2     | 0.21190414E-02 | 0.40107379E+02 |    2.239
 BASOPT|        3     |       3     | 0.21656013E-02 | 0.16510118E+01 |    1.910
 BASOPT|        4     |       1     | 0.83878698E-04 | 0.94617399E+02 |    4.317
 BASOPT|        4     |       2     | 0.25037305E-03 | 0.36205415E+02 |    2.698
 BASOPT|        4     |       3     | 0.27717717E-03 | 0.55810094E+01 |    2.258
 BASOPT|        5     |       1     | 0.52944677E-03 | 0.70835771E+02 |    3.545
 BASOPT|        5     |       2     | 0.59823665E-03 | 0.49135176E+02 |    2.401
 BASOPT|        5     |       3     | 0.31517867E-02 | 0.21164894E+01 |    2.025
 BASOPT|        6     |       1     | 0.10882547E-02 | 0.35656472E+02 |    1.188
 BASOPT|        6     |       2     | 0.10882547E-02 | 0.35656472E+02 |    1.002
 BASOPT|        6     |       3     | 0.10899503E-02 | 0.10000070E+01 |    0.893
 BASOPT| -----------------------------------------------------------------------
 BASOPT| Total residuum value: -.90242626E+03

 BASOPT| Information at iteration number:     300
 BASOPT| Training set | Combination | Rho difference | Condition num. | Time
 BASOPT| -----------------------------------------------------------------------
 BASOPT|        1     |       1     | 0.28003417E-04 | 0.15375587E+02 |    2.346
 BASOPT|        1     |       2     | 0.28003346E-04 | 0.15375587E+02 |    1.681
 BASOPT|        1     |       3     | 0.39296785E-04 | 0.10016894E+01 |    1.515
 BASOPT|        2     |       1     | 0.27154704E-03 | 0.29577099E+02 |    2.183
 BASOPT|        2     |       2     | 0.27154689E-03 | 0.29577099E+02 |    1.600
 BASOPT|        2     |       3     | 0.27707523E-03 | 0.10017507E+01 |    1.427
 BASOPT|        3     |       1     | 0.20371248E-02 | 0.33925089E+02 |    4.529
 BASOPT|        3     |       2     | 0.21181963E-02 | 0.33408499E+02 |    3.351
 BASOPT|        3     |       3     | 0.21842152E-02 | 0.16500521E+01 |    2.862
 BASOPT|        4     |       1     | 0.84815936E-04 | 0.94501669E+02 |    6.466
 BASOPT|        4     |       2     | 0.25140999E-03 | 0.36124050E+02 |    4.037
 BASOPT|        4     |       3     | 0.29202043E-03 | 0.55711102E+01 |    3.378
 BASOPT|        5     |       1     | 0.53913448E-03 | 0.71072312E+02 |    5.307
 BASOPT|        5     |       2     | 0.60804824E-03 | 0.49121980E+02 |    3.595
 BASOPT|        5     |       3     | 0.63225662E-03 | 0.20837734E+01 |    3.031
 BASOPT|        6     |       1     | 0.10878492E-02 | 0.29675854E+02 |    1.777
 BASOPT|        6     |       2     | 0.10878492E-02 | 0.29675854E+02 |    1.501
 BASOPT|        6     |       3     | 0.10982163E-02 | 0.10087091E+01 |    1.334
 BASOPT| -----------------------------------------------------------------------
 BASOPT| Total residuum value: -.90283038E+03

 BASOPT| Information at iteration number:     400
 BASOPT| Training set | Combination | Rho difference | Condition num. | Time
 BASOPT| -----------------------------------------------------------------------
 BASOPT|        1     |       1     | 0.27603082E-04 | 0.15449747E+02 |    3.128
 BASOPT|        1     |       2     | 0.27603011E-04 | 0.15449747E+02 |    2.239
 BASOPT|        1     |       3     | 0.32306939E-04 | 0.10027473E+01 |    2.019
 BASOPT|        2     |       1     | 0.26721096E-03 | 0.29345786E+02 |    2.909
 BASOPT|        2     |       2     | 0.26721081E-03 | 0.29345786E+02 |    2.132
 BASOPT|        2     |       3     | 0.26739782E-03 | 0.10006051E+01 |    1.901
 BASOPT|        3     |       1     | 0.20388061E-02 | 0.33867476E+02 |    6.032
 BASOPT|        3     |       2     | 0.21196350E-02 | 0.33358616E+02 |    4.467
 BASOPT|        3     |       3     | 0.21694516E-02 | 0.16529628E+01 |    3.817
 BASOPT|        4     |       1     | 0.84311064E-04 | 0.94653318E+02 |    8.614
 BASOPT|        4     |       2     | 0.25099858E-03 | 0.36253142E+02 |    5.377
 BASOPT|        4     |       3     | 0.27888150E-03 | 0.55756754E+01 |    4.499
 BASOPT|        5     |       1     | 0.53227674E-03 | 0.70749577E+02 |    7.072
 BASOPT|        5     |       2     | 0.60092671E-03 | 0.48811087E+02 |    4.790
 BASOPT|        5     |       3     | 0.61944334E-03 | 0.20833984E+01 |    4.038
 BASOPT|        6     |       1     | 0.10886334E-02 | 0.29650000E+02 |    2.368
 BASOPT|        6     |       2     | 0.10886334E-02 | 0.29650000E+02 |    2.004
 BASOPT|        6     |       3     | 0.10919598E-02 | 0.10130497E+01 |    1.777
 BASOPT| -----------------------------------------------------------------------
 BASOPT| Total residuum value: -.90283357E+03

 BASOPT| Information at iteration number:     500
 BASOPT| Training set | Combination | Rho difference | Condition num. | Time
 BASOPT| -----------------------------------------------------------------------
 BASOPT|        1     |       1     | 0.28115770E-04 | 0.15450358E+02 |    3.910
 BASOPT|        1     |       2     | 0.28115699E-04 | 0.15450358E+02 |    2.798
 BASOPT|        1     |       3     | 0.33648335E-04 | 0.10037188E+01 |    2.522
 BASOPT|        2     |       1     | 0.26194543E-03 | 0.29350189E+02 |    3.635
 BASOPT|        2     |       2     | 0.26194528E-03 | 0.29350189E+02 |    2.663
 BASOPT|        2     |       3     | 0.26200841E-03 | 0.10143195E+01 |    2.376
 BASOPT|        3     |       1     | 0.20396354E-02 | 0.32892000E+02 |    7.536
 BASOPT|        3     |       2     | 0.21202626E-02 | 0.32401043E+02 |    5.580
 BASOPT|        3     |       3     | 0.21669932E-02 | 0.16532073E+01 |    4.771
 BASOPT|        4     |       1     | 0.85511333E-04 | 0.94613051E+02 |   10.761
 BASOPT|        4     |       2     | 0.25253794E-03 | 0.36225611E+02 |    6.721
 BASOPT|        4     |       3     | 0.28126956E-03 | 0.55728689E+01 |    5.618
 BASOPT|        5     |       1     | 0.52180135E-03 | 0.70725174E+02 |    8.836
 BASOPT|        5     |       2     | 0.59128447E-03 | 0.48766378E+02 |    5.983
 BASOPT|        5     |       3     | 0.60790905E-03 | 0.20834134E+01 |    5.045
 BASOPT|        6     |       1     | 0.10889672E-02 | 0.28796925E+02 |    2.958
 BASOPT|        6     |       2     | 0.10889672E-02 | 0.28796925E+02 |    2.507
 BASOPT|        6     |       3     | 0.10910377E-02 | 0.10116251E+01 |    2.219
 BASOPT| -----------------------------------------------------------------------
 BASOPT| Total residuum value: -.90283406E+03

 BASOPT| Information at iteration number:     600
 BASOPT| Training set | Combination | Rho difference | Condition num. | Time
 BASOPT| -----------------------------------------------------------------------
 BASOPT|        1     |       1     | 0.30365169E-04 | 0.15742594E+02 |    4.693
 BASOPT|        1     |       2     | 0.30365097E-04 | 0.15742594E+02 |    3.357
 BASOPT|        1     |       3     | 0.37636084E-04 | 0.10112578E+01 |    3.026
 BASOPT|        2     |       1     | 0.25800944E-03 | 0.29346218E+02 |    4.362
 BASOPT|        2     |       2     | 0.25800929E-03 | 0.29346218E+02 |    3.194
 BASOPT|        2     |       3     | 0.26841738E-03 | 0.10154104E+01 |    2.851
 BASOPT|        3     |       1     | 0.20393599E-02 | 0.33015720E+02 |    9.041
 BASOPT|        3     |       2     | 0.21200427E-02 | 0.32524270E+02 |    6.697
 BASOPT|        3     |       3     | 0.21725245E-02 | 0.16518785E+01 |    5.730
 BASOPT|        4     |       1     | 0.90209081E-04 | 0.95311514E+02 |   12.909
 BASOPT|        4     |       2     | 0.25732848E-03 | 0.36660398E+02 |    8.065
 BASOPT|        4     |       3     | 0.28409613E-03 | 0.55902488E+01 |    6.741
 BASOPT|        5     |       1     | 0.51464893E-03 | 0.70963912E+02 |   10.602
 BASOPT|        5     |       2     | 0.58571208E-03 | 0.48841791E+02 |    7.176
 BASOPT|        5     |       3     | 0.62819096E-03 | 0.20774399E+01 |    6.053
 BASOPT|        6     |       1     | 0.10888580E-02 | 0.28899684E+02 |    3.549
 BASOPT|        6     |       2     | 0.10888580E-02 | 0.28899684E+02 |    3.013
 BASOPT|        6     |       3     | 0.10929481E-02 | 0.10103839E+01 |    2.662
 BASOPT| -----------------------------------------------------------------------
 BASOPT| Total residuum value: -.90281692E+03

 BASOPT| Information at iteration number:     700
 BASOPT| Training set | Combination | Rho difference | Condition num. | Time
 BASOPT| -----------------------------------------------------------------------
 BASOPT|        1     |       1     | 0.29046486E-04 | 0.15423977E+02 |    5.477
 BASOPT|        1     |       2     | 0.29046415E-04 | 0.15423977E+02 |    3.917
 BASOPT|        1     |       3     | 0.35282983E-04 | 0.10026132E+01 |    3.530
 BASOPT|        2     |       1     | 0.26657362E-03 | 0.29166045E+02 |    5.090
 BASOPT|        2     |       2     | 0.26657347E-03 | 0.29166045E+02 |    3.726
 BASOPT|        2     |       3     | 0.27156425E-03 | 0.10007163E+01 |    3.326
 BASOPT|        3     |       1     | 0.20392070E-02 | 0.32789145E+02 |   10.547
 BASOPT|        3     |       2     | 0.21198383E-02 | 0.32306460E+02 |    7.814
 BASOPT|        3     |       3     | 0.21698872E-02 | 0.16534896E+01 |    6.688
 BASOPT|        4     |       1     | 0.87414100E-04 | 0.94519359E+02 |   15.055
 BASOPT|        4     |       2     | 0.25480744E-03 | 0.36177121E+02 |    9.410
 BASOPT|        4     |       3     | 0.28534100E-03 | 0.55745535E+01 |    7.864
 BASOPT|        5     |       1     | 0.53055860E-03 | 0.70532599E+02 |   12.371
 BASOPT|        5     |       2     | 0.59952428E-03 | 0.48582344E+02 |    8.373
 BASOPT|        5     |       3     | 0.63452594E-03 | 0.20812821E+01 |    7.062
 BASOPT|        6     |       1     | 0.10887459E-02 | 0.28712193E+02 |    4.140
 BASOPT|        6     |       2     | 0.10887459E-02 | 0.28712193E+02 |    3.517
 BASOPT|        6     |       3     | 0.10922610E-02 | 0.10146459E+01 |    3.105
 BASOPT| -----------------------------------------------------------------------
 BASOPT| Total residuum value: -.90283431E+03

 BASOPT| Information at iteration number:     800
 BASOPT| Training set | Combination | Rho difference | Condition num. | Time
 BASOPT| -----------------------------------------------------------------------
 BASOPT|        1     |       1     | 0.29616826E-04 | 0.15414266E+02 |    6.261
 BASOPT|        1     |       2     | 0.29616754E-04 | 0.15414266E+02 |    4.477
 BASOPT|        1     |       3     | 0.36227378E-04 | 0.10026469E+01 |    4.036
 BASOPT|        2     |       1     | 0.26405651E-03 | 0.29266203E+02 |    5.819
 BASOPT|        2     |       2     | 0.26405635E-03 | 0.29266203E+02 |    4.258
 BASOPT|        2     |       3     | 0.26501556E-03 | 0.10037987E+01 |    3.802
 BASOPT|        3     |       1     | 0.20389609E-02 | 0.32705854E+02 |   12.053
 BASOPT|        3     |       2     | 0.21196192E-02 | 0.32223823E+02 |    8.932
 BASOPT|        3     |       3     | 0.21684943E-02 | 0.16533468E+01 |    7.646
 BASOPT|        4     |       1     | 0.88652681E-04 | 0.94443034E+02 |   17.207
 BASOPT|        4     |       2     | 0.25622504E-03 | 0.36166134E+02 |   10.757
 BASOPT|        4     |       3     | 0.28714031E-03 | 0.55747753E+01 |    8.988
 BASOPT|        5     |       1     | 0.52560745E-03 | 0.70721569E+02 |   14.145
 BASOPT|        5     |       2     | 0.59506747E-03 | 0.48721965E+02 |    9.569
 BASOPT|        5     |       3     | 0.61662498E-03 | 0.20827940E+01 |    8.073
 BASOPT|        6     |       1     | 0.10886345E-02 | 0.28637574E+02 |    4.732
 BASOPT|        6     |       2     | 0.10886345E-02 | 0.28637574E+02 |    4.022
 BASOPT|        6     |       3     | 0.10914918E-02 | 0.10139755E+01 |    3.548
 BASOPT| -----------------------------------------------------------------------
 BASOPT| Total residuum value: -.90283463E+03

 BASOPT| Information at iteration number:     900
 BASOPT| Training set | Combination | Rho difference | Condition num. | Time
 BASOPT| -----------------------------------------------------------------------
 BASOPT|        1     |       1     | 0.27674640E-04 | 0.15408783E+02 |    7.046
 BASOPT|        1     |       2     | 0.27674568E-04 | 0.15408783E+02 |    5.037
 BASOPT|        1     |       3     | 0.34341225E-04 | 0.10018184E+01 |    4.541
 BASOPT|        2     |       1     | 0.26568245E-03 | 0.29307363E+02 |    6.547
 BASOPT|        2     |       2     | 0.26568229E-03 | 0.29307363E+02 |    4.790
 BASOPT|        2     |       3     | 0.26587485E-03 | 0.10031157E+01 |    4.278
 BASOPT|        3     |       1     | 0.20397034E-02 | 0.32734897E+02 |   13.561
 BASOPT|        3     |       2     | 0.21203015E-02 | 0.32252990E+02 |   10.049
 BASOPT|        3     |       3     | 0.21685030E-02 | 0.16534044E+01 |    8.608
 BASOPT|        4     |       1     | 0.84631491E-04 | 0.94503042E+02 |   19.362
 BASOPT|        4     |       2     | 0.25153796E-03 | 0.36160818E+02 |   12.104
 BASOPT|        4     |       3     | 0.28412767E-03 | 0.55748837E+01 |   10.109
 BASOPT|        5     |       1     | 0.52934533E-03 | 0.70724474E+02 |   15.921
 BASOPT|        5     |       2     | 0.59829674E-03 | 0.48759457E+02 |   10.767
 BASOPT|        5     |       3     | 0.61679864E-03 | 0.20835450E+01 |    9.087
 BASOPT|        6     |       1     | 0.10889927E-02 | 0.28669328E+02 |    5.325
 BASOPT|        6     |       2     | 0.10889927E-02 | 0.28669328E+02 |    4.527
 BASOPT|        6     |       3     | 0.10916655E-02 | 0.10137885E+01 |    3.991
 BASOPT| -----------------------------------------------------------------------
 BASOPT| Total residuum value: -.90283495E+03

 BASOPT| Information at iteration number:    1000
 BASOPT| Training set | Combination | Rho difference | Condition num. | Time
 BASOPT| -----------------------------------------------------------------------
 BASOPT|        1     |       1     | 0.28444307E-04 | 0.15416390E+02 |    7.832
 BASOPT|        1     |       2     | 0.28444236E-04 | 0.15416390E+02 |    5.597
 BASOPT|        1     |       3     | 0.33955041E-04 | 0.10005313E+01 |    5.046
 BASOPT|        2     |       1     | 0.26703450E-03 | 0.29291118E+02 |    7.278
 BASOPT|        2     |       2     | 0.26703434E-03 | 0.29291118E+02 |    5.323
 BASOPT|        2     |       3     | 0.26717204E-03 | 0.10012464E+01 |    4.754
 BASOPT|        3     |       1     | 0.20386701E-02 | 0.32590631E+02 |   15.070
 BASOPT|        3     |       2     | 0.21193930E-02 | 0.32109650E+02 |   11.170
 BASOPT|        3     |       3     | 0.21683297E-02 | 0.16536938E+01 |    9.569
 BASOPT|        4     |       1     | 0.85886946E-04 | 0.94500147E+02 |   21.518
 BASOPT|        4     |       2     | 0.25280217E-03 | 0.36161918E+02 |   13.453
 BASOPT|        4     |       3     | 0.28274588E-03 | 0.55826519E+01 |   11.233
 BASOPT|        5     |       1     | 0.53193790E-03 | 0.70739109E+02 |   17.697
 BASOPT|        5     |       2     | 0.60081318E-03 | 0.48749925E+02 |   11.966
 BASOPT|        5     |       3     | 0.61888193E-03 | 0.20838430E+01 |   10.100
 BASOPT|        6     |       1     | 0.10885089E-02 | 0.28536646E+02 |    5.920
 BASOPT|        6     |       2     | 0.10885089E-02 | 0.28536646E+02 |    5.033
 BASOPT|        6     |       3     | 0.10911785E-02 | 0.10131396E+01 |    4.435
 BASOPT| -----------------------------------------------------------------------
 BASOPT| Total residuum value: -.90283539E+03

 BASOPT| Information at iteration number:    1100
 BASOPT| Training set | Combination | Rho difference | Condition num. | Time
 BASOPT| -----------------------------------------------------------------------
 BASOPT|        1     |       1     | 0.28915654E-04 | 0.15451283E+02 |    8.619
 BASOPT|        1     |       2     | 0.28915582E-04 | 0.15451283E+02 |    6.158
 BASOPT|        1     |       3     | 0.33020191E-04 | 0.10016660E+01 |    5.551
 BASOPT|        2     |       1     | 0.26787810E-03 | 0.29302606E+02 |    8.008
 BASOPT|        2     |       2     | 0.26787795E-03 | 0.29302606E+02 |    5.856
 BASOPT|        2     |       3     | 0.26790612E-03 | 0.10010355E+01 |    5.230
 BASOPT|        3     |       1     | 0.20386304E-02 | 0.32565901E+02 |   16.584
 BASOPT|        3     |       2     | 0.21193363E-02 | 0.32085493E+02 |   12.291
 BASOPT|        3     |       3     | 0.21683491E-02 | 0.16537908E+01 |   10.531
 BASOPT|        4     |       1     | 0.86691601E-04 | 0.94518964E+02 |   23.675
 BASOPT|        4     |       2     | 0.25366359E-03 | 0.36212726E+02 |   14.803
 BASOPT|        4     |       3     | 0.27938674E-03 | 0.55866020E+01 |   12.357
 BASOPT|        5     |       1     | 0.53360080E-03 | 0.70738113E+02 |   19.474
 BASOPT|        5     |       2     | 0.60245575E-03 | 0.48753595E+02 |   13.165
 BASOPT|        5     |       3     | 0.61832982E-03 | 0.20841971E+01 |   11.113
 BASOPT|        6     |       1     | 0.10884849E-02 | 0.28515377E+02 |    6.514
 BASOPT|        6     |       2     | 0.10884849E-02 | 0.28515377E+02 |    5.540
 BASOPT|        6     |       3     | 0.10911152E-02 | 0.10122213E+01 |    4.878
 BASOPT| -----------------------------------------------------------------------
 BASOPT| Total residuum value: -.90283538E+03

 BASOPT| Information at iteration number:    1200
 BASOPT| Training set | Combination | Rho difference | Condition num. | Time
 BASOPT| -----------------------------------------------------------------------
 BASOPT|        1     |       1     | 0.29570068E-04 | 0.15441962E+02 |    9.408
 BASOPT|        1     |       2     | 0.29569996E-04 | 0.15441962E+02 |    6.720
 BASOPT|        1     |       3     | 0.33795670E-04 | 0.10002742E+01 |    6.059
 BASOPT|        2     |       1     | 0.26753687E-03 | 0.29252845E+02 |    8.741
 BASOPT|        2     |       2     | 0.26753672E-03 | 0.29252845E+02 |    6.389
 BASOPT|        2     |       3     | 0.26768327E-03 | 0.10019603E+01 |    5.707
 BASOPT|        3     |       1     | 0.20397210E-02 | 0.32580755E+02 |   18.108
 BASOPT|        3     |       2     | 0.21203037E-02 | 0.32100241E+02 |   13.411
 BASOPT|        3     |       3     | 0.21665862E-02 | 0.16534400E+01 |   11.493
 BASOPT|        4     |       1     | 0.87785162E-04 | 0.94396785E+02 |   25.828
 BASOPT|        4     |       2     | 0.25480672E-03 | 0.36187908E+02 |   16.153
 BASOPT|        4     |       3     | 0.27856614E-03 | 0.55949244E+01 |   13.484
 BASOPT|        5     |       1     | 0.53324613E-03 | 0.70635108E+02 |   21.248
 BASOPT|        5     |       2     | 0.60194695E-03 | 0.48661230E+02 |   14.364
 BASOPT|        5     |       3     | 0.61988765E-03 | 0.20838438E+01 |   12.126
 BASOPT|        6     |       1     | 0.10890067E-02 | 0.28531479E+02 |    7.108
 BASOPT|        6     |       2     | 0.10890067E-02 | 0.28531479E+02 |    6.047
 BASOPT|        6     |       3     | 0.10906476E-02 | 0.10104672E+01 |    5.322
 BASOPT| -----------------------------------------------------------------------
 BASOPT| Total residuum value: -.90283554E+03

 BASOPT| Information at iteration number:    1300
 BASOPT| Training set | Combination | Rho difference | Condition num. | Time
 BASOPT| -----------------------------------------------------------------------
 BASOPT|        1     |       1     | 0.30701928E-04 | 0.15406409E+02 |   10.198
 BASOPT|        1     |       2     | 0.30701856E-04 | 0.15406409E+02 |    7.282
 BASOPT|        1     |       3     | 0.36467642E-04 | 0.10019449E+01 |    6.565
 BASOPT|        2     |       1     | 0.26629573E-03 | 0.29171498E+02 |    9.474
 BASOPT|        2     |       2     | 0.26629558E-03 | 0.29171498E+02 |    6.922
 BASOPT|        2     |       3     | 0.26712816E-03 | 0.10003495E+01 |    6.184
 BASOPT|        3     |       1     | 0.20394367E-02 | 0.32516471E+02 |   19.626
 BASOPT|        3     |       2     | 0.21200585E-02 | 0.32036818E+02 |   14.531
 BASOPT|        3     |       3     | 0.21666190E-02 | 0.16535564E+01 |   12.454
 BASOPT|        4     |       1     | 0.89925178E-04 | 0.94178431E+02 |   27.981
 BASOPT|        4     |       2     | 0.25726345E-03 | 0.36093885E+02 |   17.503
 BASOPT|        4     |       3     | 0.28333568E-03 | 0.55973371E+01 |   14.609
 BASOPT|        5     |       1     | 0.53044858E-03 | 0.70520533E+02 |   23.023
 BASOPT|        5     |       2     | 0.59944840E-03 | 0.48557627E+02 |   15.566
 BASOPT|        5     |       3     | 0.62104429E-03 | 0.20829385E+01 |   13.140
 BASOPT|        6     |       1     | 0.10888748E-02 | 0.28474026E+02 |    7.702
 BASOPT|        6     |       2     | 0.10888748E-02 | 0.28474026E+02 |    6.554
 BASOPT|        6     |       3     | 0.10904982E-02 | 0.10090404E+01 |    5.765
 BASOPT| -----------------------------------------------------------------------
 BASOPT| Total residuum value: -.90283563E+03

 BASOPT| Information at iteration number:    1400
 BASOPT| Training set | Combination | Rho difference | Condition num. | Time
 BASOPT| -----------------------------------------------------------------------
 BASOPT|        1     |       1     | 0.28601939E-04 | 0.15404719E+02 |   10.988
 BASOPT|        1     |       2     | 0.28601868E-04 | 0.15404719E+02 |    7.844
 BASOPT|        1     |       3     | 0.32616449E-04 | 0.10034147E+01 |    7.071
 BASOPT|        2     |       1     | 0.26673157E-03 | 0.29204603E+02 |   10.208
 BASOPT|        2     |       2     | 0.26673141E-03 | 0.29204603E+02 |    7.456
 BASOPT|        2     |       3     | 0.26681046E-03 | 0.10024919E+01 |    6.661
 BASOPT|        3     |       1     | 0.20397406E-02 | 0.32498069E+02 |   21.146
 BASOPT|        3     |       2     | 0.21203335E-02 | 0.32018894E+02 |   15.653
 BASOPT|        3     |       3     | 0.21668637E-02 | 0.16535910E+01 |   13.415
 BASOPT|        4     |       1     | 0.85462922E-04 | 0.94034813E+02 |   30.134
 BASOPT|        4     |       2     | 0.25204689E-03 | 0.36057887E+02 |   18.856
 BASOPT|        4     |       3     | 0.27710821E-03 | 0.55969674E+01 |   15.736
 BASOPT|        5     |       1     | 0.53144928E-03 | 0.70527494E+02 |   24.797
 BASOPT|        5     |       2     | 0.60038326E-03 | 0.48587781E+02 |   16.767
 BASOPT|        5     |       3     | 0.61802890E-03 | 0.20838850E+01 |   14.155
 BASOPT|        6     |       1     | 0.10890176E-02 | 0.28462214E+02 |    8.299
 BASOPT|        6     |       2     | 0.10890176E-02 | 0.28462214E+02 |    7.062
 BASOPT|        6     |       3     | 0.10906712E-02 | 0.10091418E+01 |    6.209
 BASOPT| -----------------------------------------------------------------------
 BASOPT| Total residuum value: -.90283573E+03

 BASOPT| Information at iteration number:    1500
 BASOPT| Training set | Combination | Rho difference | Condition num. | Time
 BASOPT| -----------------------------------------------------------------------
 BASOPT|        1     |       1     | 0.30262739E-04 | 0.15394440E+02 |   11.779
 BASOPT|        1     |       2     | 0.30262668E-04 | 0.15394440E+02 |    8.406
 BASOPT|        1     |       3     | 0.35852018E-04 | 0.10051940E+01 |    7.577
 BASOPT|        2     |       1     | 0.26704783E-03 | 0.29131818E+02 |   10.942
 BASOPT|        2     |       2     | 0.26704768E-03 | 0.29131818E+02 |    7.992
 BASOPT|        2     |       3     | 0.26740414E-03 | 0.10030621E+01 |    7.139
 BASOPT|        3     |       1     | 0.20389793E-02 | 0.32442304E+02 |   22.662
 BASOPT|        3     |       2     | 0.21196526E-02 | 0.31963058E+02 |   16.775
 BASOPT|        3     |       3     | 0.21671228E-02 | 0.16535193E+01 |   14.377
 BASOPT|        4     |       1     | 0.88849852E-04 | 0.93860493E+02 |   32.287
 BASOPT|        4     |       2     | 0.25593366E-03 | 0.36027549E+02 |   20.207
 BASOPT|        4     |       3     | 0.28150714E-03 | 0.55970586E+01 |   16.864
 BASOPT|        5     |       1     | 0.53205681E-03 | 0.70384005E+02 |   26.571
 BASOPT|        5     |       2     | 0.60080667E-03 | 0.48478966E+02 |   17.968
 BASOPT|        5     |       3     | 0.62045474E-03 | 0.20836264E+01 |   15.170
 BASOPT|        6     |       1     | 0.10886592E-02 | 0.28409597E+02 |    8.896
 BASOPT|        6     |       2     | 0.10886592E-02 | 0.28409597E+02 |    7.571
 BASOPT|        6     |       3     | 0.10906244E-02 | 0.10085581E+01 |    6.653
 BASOPT| -----------------------------------------------------------------------
 BASOPT| Total residuum value: -.90283585E+03

 BASOPT| Information at iteration number:    1600
 BASOPT| Training set | Combination | Rho difference | Condition num. | Time
 BASOPT| -----------------------------------------------------------------------
 BASOPT|        1     |       1     | 0.29282555E-04 | 0.15398583E+02 |   12.571
 BASOPT|        1     |       2     | 0.29282484E-04 | 0.15398583E+02 |    8.968
 BASOPT|        1     |       3     | 0.32905520E-04 | 0.10062153E+01 |    8.083
 BASOPT|        2     |       1     | 0.26577498E-03 | 0.29046186E+02 |   11.678
 BASOPT|        2     |       2     | 0.26577483E-03 | 0.29046186E+02 |    8.527
 BASOPT|        2     |       3     | 0.26712034E-03 | 0.10033639E+01 |    7.617
 BASOPT|        3     |       1     | 0.20388086E-02 | 0.32379280E+02 |   24.176
 BASOPT|        3     |       2     | 0.21194856E-02 | 0.31901402E+02 |   17.900
 BASOPT|        3     |       3     | 0.21663895E-02 | 0.16532252E+01 |   15.338
 BASOPT|        4     |       1     | 0.86761828E-04 | 0.93791654E+02 |   34.441
 BASOPT|        4     |       2     | 0.25350991E-03 | 0.35983811E+02 |   21.562
 BASOPT|        4     |       3     | 0.27633896E-03 | 0.56036545E+01 |   17.992
 BASOPT|        5     |       1     | 0.52920859E-03 | 0.70273552E+02 |   28.344
 BASOPT|        5     |       2     | 0.59849477E-03 | 0.48369902E+02 |   19.171
 BASOPT|        5     |       3     | 0.62222430E-03 | 0.20825089E+01 |   16.185
 BASOPT|        6     |       1     | 0.10885731E-02 | 0.28355992E+02 |    9.494
 BASOPT|        6     |       2     | 0.10885731E-02 | 0.28355992E+02 |    8.080
 BASOPT|        6     |       3     | 0.10902685E-02 | 0.10073623E+01 |    7.097
 BASOPT| -----------------------------------------------------------------------
 BASOPT| Total residuum value: -.90283591E+03

 BASOPT| Information at iteration number:    1700
 BASOPT| Training set | Combination | Rho difference | Condition num. | Time
 BASOPT| -----------------------------------------------------------------------
 BASOPT|        1     |       1     | 0.30676781E-04 | 0.15343968E+02 |   13.363
 BASOPT|        1     |       2     | 0.30676710E-04 | 0.15343968E+02 |    9.531
 BASOPT|        1     |       3     | 0.34945854E-04 | 0.10110966E+01 |    8.589
 BASOPT|        2     |       1     | 0.26830722E-03 | 0.29027603E+02 |   12.413
 BASOPT|        2     |       2     | 0.26830707E-03 | 0.29027603E+02 |    9.063
 BASOPT|        2     |       3     | 0.26885622E-03 | 0.10043854E+01 |    8.094
 BASOPT|        3     |       1     | 0.20383539E-02 | 0.32280867E+02 |   25.689
 BASOPT|        3     |       2     | 0.21190842E-02 | 0.31804306E+02 |   19.031
 BASOPT|        3     |       3     | 0.21645307E-02 | 0.16538584E+01 |   16.300
 BASOPT|        4     |       1     | 0.89347355E-04 | 0.93398651E+02 |   36.595
 BASOPT|        4     |       2     | 0.25646897E-03 | 0.35837107E+02 |   22.915
 BASOPT|        4     |       3     | 0.28129316E-03 | 0.56072192E+01 |   19.118
 BASOPT|        5     |       1     | 0.53380387E-03 | 0.70191966E+02 |   30.119
 BASOPT|        5     |       2     | 0.60295968E-03 | 0.48329717E+02 |   20.374
 BASOPT|        5     |       3     | 0.62376063E-03 | 0.20825032E+01 |   17.201
 BASOPT|        6     |       1     | 0.10883644E-02 | 0.28269640E+02 |   10.091
 BASOPT|        6     |       2     | 0.10883644E-02 | 0.28269640E+02 |    8.590
 BASOPT|        6     |       3     | 0.10895279E-02 | 0.10070664E+01 |    7.542
 BASOPT| -----------------------------------------------------------------------
 BASOPT| Total residuum value: -.90283638E+03

 BASOPT| Information at iteration number:    1800
 BASOPT| Training set | Combination | Rho difference | Condition num. | Time
 BASOPT| -----------------------------------------------------------------------
 BASOPT|        1     |       1     | 0.29646856E-04 | 0.15301763E+02 |   14.156
 BASOPT|        1     |       2     | 0.29646785E-04 | 0.15301763E+02 |   10.095
 BASOPT|        1     |       3     | 0.34966455E-04 | 0.10089365E+01 |    9.096
 BASOPT|        2     |       1     | 0.26752680E-03 | 0.28993700E+02 |   13.151
 BASOPT|        2     |       2     | 0.26752665E-03 | 0.28993700E+02 |    9.599
 BASOPT|        2     |       3     | 0.26798694E-03 | 0.10050543E+01 |    8.573
 BASOPT|        3     |       1     | 0.20388601E-02 | 0.32195042E+02 |   27.199
 BASOPT|        3     |       2     | 0.21195699E-02 | 0.31720409E+02 |   20.160
 BASOPT|        3     |       3     | 0.21644312E-02 | 0.16542882E+01 |   17.262
 BASOPT|        4     |       1     | 0.87349563E-04 | 0.93125006E+02 |   38.747
 BASOPT|        4     |       2     | 0.25414810E-03 | 0.35741588E+02 |   24.269
 BASOPT|        4     |       3     | 0.28048467E-03 | 0.56107063E+01 |   20.251
 BASOPT|        5     |       1     | 0.53222909E-03 | 0.70104933E+02 |   31.893
 BASOPT|        5     |       2     | 0.60163639E-03 | 0.48265387E+02 |   21.578
 BASOPT|        5     |       3     | 0.62173873E-03 | 0.20831484E+01 |   18.216
 BASOPT|        6     |       1     | 0.10886095E-02 | 0.28199918E+02 |   10.688
 BASOPT|        6     |       2     | 0.10886095E-02 | 0.28199918E+02 |    9.100
 BASOPT|        6     |       3     | 0.10895524E-02 | 0.10067033E+01 |    7.987
 BASOPT| -----------------------------------------------------------------------
 BASOPT| Total residuum value: -.90283661E+03

 BASOPT| Information at iteration number:    1900
 BASOPT| Training set | Combination | Rho difference | Condition num. | Time
 BASOPT| -----------------------------------------------------------------------
 BASOPT|        1     |       1     | 0.30166465E-04 | 0.15285959E+02 |   14.949
 BASOPT|        1     |       2     | 0.30166394E-04 | 0.15285959E+02 |   10.659
 BASOPT|        1     |       3     | 0.35577663E-04 | 0.10111446E+01 |    9.602
 BASOPT|        2     |       1     | 0.26820448E-03 | 0.28975622E+02 |   13.889
 BASOPT|        2     |       2     | 0.26820433E-03 | 0.28975622E+02 |   10.137
 BASOPT|        2     |       3     | 0.26855135E-03 | 0.10082794E+01 |    9.051
 BASOPT|        3     |       1     | 0.20381330E-02 | 0.32082509E+02 |   28.710
 BASOPT|        3     |       2     | 0.21188714E-02 | 0.31609126E+02 |   21.288
 BASOPT|        3     |       3     | 0.21643041E-02 | 0.16545569E+01 |   18.224
 BASOPT|        4     |       1     | 0.88389367E-04 | 0.92914272E+02 |   40.902
 BASOPT|        4     |       2     | 0.25517343E-03 | 0.35692226E+02 |   25.621
 BASOPT|        4     |       3     | 0.28179118E-03 | 0.56148109E+01 |   21.382
 BASOPT|        5     |       1     | 0.53317681E-03 | 0.69983753E+02 |   33.668
 BASOPT|        5     |       2     | 0.60274072E-03 | 0.48159604E+02 |   22.781
 BASOPT|        5     |       3     | 0.62258061E-03 | 0.20824606E+01 |   19.229
 BASOPT|        6     |       1     | 0.10882608E-02 | 0.28100817E+02 |   11.286
 BASOPT|        6     |       2     | 0.10882608E-02 | 0.28100817E+02 |    9.611
 BASOPT|        6     |       3     | 0.10894076E-02 | 0.10079607E+01 |    8.431
 BASOPT| -----------------------------------------------------------------------
 BASOPT| Total residuum value: -.90283673E+03

 BASOPT| Information at iteration number:    2000
 BASOPT| Training set | Combination | Rho difference | Condition num. | Time
 BASOPT| -----------------------------------------------------------------------
 BASOPT|        1     |       1     | 0.28830036E-04 | 0.15252057E+02 |   15.743
 BASOPT|        1     |       2     | 0.28829965E-04 | 0.15252057E+02 |   11.223
 BASOPT|        1     |       3     | 0.33532211E-04 | 0.10085200E+01 |   10.109
 BASOPT|        2     |       1     | 0.26978683E-03 | 0.28995134E+02 |   14.627
 BASOPT|        2     |       2     | 0.26978668E-03 | 0.28995134E+02 |   10.674
 BASOPT|        2     |       3     | 0.26992686E-03 | 0.10121111E+01 |    9.530
 BASOPT|        3     |       1     | 0.20389702E-02 | 0.32050169E+02 |   30.221
 BASOPT|        3     |       2     | 0.21196468E-02 | 0.31578021E+02 |   22.418
 BASOPT|        3     |       3     | 0.21652122E-02 | 0.16545983E+01 |   19.185
 BASOPT|        4     |       1     | 0.85942913E-04 | 0.92528904E+02 |   43.056
 BASOPT|        4     |       2     | 0.25234033E-03 | 0.35604528E+02 |   26.974
 BASOPT|        4     |       3     | 0.27823817E-03 | 0.56192873E+01 |   22.515
 BASOPT|        5     |       1     | 0.53605746E-03 | 0.69899346E+02 |   35.442
 BASOPT|        5     |       2     | 0.60562256E-03 | 0.48107432E+02 |   23.984
 BASOPT|        5     |       3     | 0.62435434E-03 | 0.20819545E+01 |   20.243
 BASOPT|        6     |       1     | 0.10886533E-02 | 0.28075465E+02 |   11.884
 BASOPT|        6     |       2     | 0.10886533E-02 | 0.28075465E+02 |   10.122
 BASOPT|        6     |       3     | 0.10899094E-02 | 0.10072634E+01 |    8.876
 BASOPT| -----------------------------------------------------------------------
 BASOPT| Total residuum value: -.90283697E+03

 BASOPT| Information at iteration number:    2100
 BASOPT| Training set | Combination | Rho difference | Condition num. | Time
 BASOPT| -----------------------------------------------------------------------
 BASOPT|        1     |       1     | 0.29352469E-04 | 0.15241201E+02 |   16.536
 BASOPT|        1     |       2     | 0.29352398E-04 | 0.15241201E+02 |   11.787
 BASOPT|        1     |       3     | 0.33711577E-04 | 0.10096953E+01 |   10.617
 BASOPT|        2     |       1     | 0.26972439E-03 | 0.28859682E+02 |   15.364
 BASOPT|        2     |       2     | 0.26972424E-03 | 0.28859682E+02 |   11.211
 BASOPT|        2     |       3     | 0.27026951E-03 | 0.10151119E+01 |   10.010
 BASOPT|        3     |       1     | 0.20383461E-02 | 0.31885015E+02 |   31.732
 BASOPT|        3     |       2     | 0.21191183E-02 | 0.31413786E+02 |   23.547
 BASOPT|        3     |       3     | 0.21662721E-02 | 0.16555776E+01 |   20.145
 BASOPT|        4     |       1     | 0.86981124E-04 | 0.92247039E+02 |   45.210
 BASOPT|        4     |       2     | 0.25340086E-03 | 0.35543223E+02 |   28.327
 BASOPT|        4     |       3     | 0.27766271E-03 | 0.56223179E+01 |   23.648
 BASOPT|        5     |       1     | 0.53626477E-03 | 0.69812340E+02 |   37.215
 BASOPT|        5     |       2     | 0.60573006E-03 | 0.48008529E+02 |   25.189
 BASOPT|        5     |       3     | 0.62645245E-03 | 0.20796448E+01 |   21.265
 BASOPT|        6     |       1     | 0.10883644E-02 | 0.27927200E+02 |   12.482
 BASOPT|        6     |       2     | 0.10883644E-02 | 0.27927200E+02 |   10.634
 BASOPT|        6     |       3     | 0.10901683E-02 | 0.10083765E+01 |    9.323
 BASOPT| -----------------------------------------------------------------------
 BASOPT| Total residuum value: -.90283723E+03

 BASOPT| Information at iteration number:    2200
 BASOPT| Training set | Combination | Rho difference | Condition num. | Time
 BASOPT| -----------------------------------------------------------------------
 BASOPT|        1     |       1     | 0.29799517E-04 | 0.15209174E+02 |   17.331
 BASOPT|        1     |       2     | 0.29799446E-04 | 0.15209174E+02 |   12.353
 BASOPT|        1     |       3     | 0.34634181E-04 | 0.10081010E+01 |   11.125
 BASOPT|        2     |       1     | 0.26951108E-03 | 0.28824400E+02 |   16.101
 BASOPT|        2     |       2     | 0.26951101E-03 | 0.28824400E+02 |   11.750
 BASOPT|        2     |       3     | 0.27022119E-03 | 0.10178039E+01 |   10.492
 BASOPT|        3     |       1     | 0.20388141E-02 | 0.31772915E+02 |   33.246
 BASOPT|        3     |       2     | 0.21195309E-02 | 0.31303613E+02 |   24.677
 BASOPT|        3     |       3     | 0.21653478E-02 | 0.16563634E+01 |   21.107
 BASOPT|        4     |       1     | 0.88238538E-04 | 0.92030068E+02 |   47.364
 BASOPT|        4     |       2     | 0.25480331E-03 | 0.35465593E+02 |   29.678
 BASOPT|        4     |       3     | 0.27965874E-03 | 0.56229932E+01 |   24.786
 BASOPT|        5     |       1     | 0.53560676E-03 | 0.69660297E+02 |   38.990
 BASOPT|        5     |       2     | 0.60529184E-03 | 0.47908025E+02 |   26.396
 BASOPT|        5     |       3     | 0.62682806E-03 | 0.20799197E+01 |   22.286
 BASOPT|        6     |       1     | 0.10885807E-02 | 0.27831356E+02 |   13.080
 BASOPT|        6     |       2     | 0.10885807E-02 | 0.27831356E+02 |   11.146
 BASOPT|        6     |       3     | 0.10899178E-02 | 0.10063513E+01 |    9.769
 BASOPT| -----------------------------------------------------------------------
 BASOPT| Total residuum value: -.90283749E+03

 BASOPT| Information at iteration number:    2300
 BASOPT| Training set | Combination | Rho difference | Condition num. | Time
 BASOPT| -----------------------------------------------------------------------
 BASOPT|        1     |       1     | 0.28493862E-04 | 0.15195261E+02 |   18.126
 BASOPT|        1     |       2     | 0.28493791E-04 | 0.15195261E+02 |   12.918
 BASOPT|        1     |       3     | 0.31156034E-04 | 0.10081879E+01 |   11.633
 BASOPT|        2     |       1     | 0.27054102E-03 | 0.28816463E+02 |   16.839
 BASOPT|        2     |       2     | 0.27054087E-03 | 0.28816463E+02 |   12.288
 BASOPT|        2     |       3     | 0.27060821E-03 | 0.10199366E+01 |   10.973
 BASOPT|        3     |       1     | 0.20381877E-02 | 0.31645864E+02 |   34.757
 BASOPT|        3     |       2     | 0.21189656E-02 | 0.31177791E+02 |   25.804
 BASOPT|        3     |       3     | 0.21673120E-02 | 0.16569159E+01 |   22.071
 BASOPT|        4     |       1     | 0.85292006E-04 | 0.91676011E+02 |   49.518
 BASOPT|        4     |       2     | 0.25110783E-03 | 0.35410050E+02 |   31.030
 BASOPT|        4     |       3     | 0.27442726E-03 | 0.56279028E+01 |   25.922
 BASOPT|        5     |       1     | 0.53750954E-03 | 0.69734312E+02 |   40.764
 BASOPT|        5     |       2     | 0.60717210E-03 | 0.47935620E+02 |   27.603
 BASOPT|        5     |       3     | 0.62452522E-03 | 0.20799911E+01 |   23.305
 BASOPT|        6     |       1     | 0.10882770E-02 | 0.27717369E+02 |   13.679
 BASOPT|        6     |       2     | 0.10882770E-02 | 0.27717369E+02 |   11.658
 BASOPT|        6     |       3     | 0.10906141E-02 | 0.10082615E+01 |   10.216
 BASOPT| -----------------------------------------------------------------------
 BASOPT| Total residuum value: -.90283769E+03

 BASOPT| Information at iteration number:    2400
 BASOPT| Training set | Combination | Rho difference | Condition num. | Time
 BASOPT| -----------------------------------------------------------------------
 BASOPT|        1     |       1     | 0.29954239E-04 | 0.15133438E+02 |   18.920
 BASOPT|        1     |       2     | 0.29954167E-04 | 0.15133438E+02 |   13.483
 BASOPT|        1     |       3     | 0.35021065E-04 | 0.10100774E+01 |   12.141
 BASOPT|        2     |       1     | 0.26982417E-03 | 0.28764618E+02 |   17.576
 BASOPT|        2     |       2     | 0.26982410E-03 | 0.28764618E+02 |   12.829
 BASOPT|        2     |       3     | 0.27065994E-03 | 0.10230127E+01 |   11.455
 BASOPT|        3     |       1     | 0.20388612E-02 | 0.31492153E+02 |   36.270
 BASOPT|        3     |       2     | 0.21195788E-02 | 0.31026081E+02 |   26.929
 BASOPT|        3     |       3     | 0.21673632E-02 | 0.16578136E+01 |   23.035
 BASOPT|        4     |       1     | 0.88616627E-04 | 0.91238908E+02 |   51.670
 BASOPT|        4     |       2     | 0.25492536E-03 | 0.35259393E+02 |   32.382
 BASOPT|        4     |       3     | 0.28086049E-03 | 0.56260882E+01 |   27.059
 BASOPT|        5     |       1     | 0.53641331E-03 | 0.69416430E+02 |   42.540
 BASOPT|        5     |       2     | 0.60602524E-03 | 0.47739142E+02 |   28.811
 BASOPT|        5     |       3     | 0.62789951E-03 | 0.20788628E+01 |   24.326
 BASOPT|        6     |       1     | 0.10885907E-02 | 0.27583676E+02 |   14.278
 BASOPT|        6     |       2     | 0.10885907E-02 | 0.27583676E+02 |   12.170
 BASOPT|        6     |       3     | 0.10907110E-02 | 0.10082887E+01 |   10.663
 BASOPT| -----------------------------------------------------------------------
 BASOPT| Total residuum value: -.90283810E+03

 BASOPT| Information at iteration number:    2500
 BASOPT| Training set | Combination | Rho difference | Condition num. | Time
 BASOPT| -----------------------------------------------------------------------
 BASOPT|        1     |       1     | 0.30122688E-04 | 0.15126142E+02 |   19.714
 BASOPT|        1     |       2     | 0.30122617E-04 | 0.15126142E+02 |   14.049
 BASOPT|        1     |       3     | 0.33887045E-04 | 0.10118766E+01 |   12.650
 BASOPT|        2     |       1     | 0.26821809E-03 | 0.28744635E+02 |   18.312
 BASOPT|        2     |       2     | 0.26821801E-03 | 0.28744635E+02 |   13.369
 BASOPT|        2     |       3     | 0.26844706E-03 | 0.10253145E+01 |   11.937
 BASOPT|        3     |       1     | 0.20386527E-02 | 0.31368524E+02 |   37.788
 BASOPT|        3     |       2     | 0.21194143E-02 | 0.30904066E+02 |   28.057
 BASOPT|        3     |       3     | 0.21675235E-02 | 0.16588500E+01 |   24.000
 BASOPT|        4     |       1     | 0.89049593E-04 | 0.90973880E+02 |   53.826
 BASOPT|        4     |       2     | 0.25523094E-03 | 0.35217453E+02 |   33.733
 BASOPT|        4     |       3     | 0.27846316E-03 | 0.56295945E+01 |   28.197
 BASOPT|        5     |       1     | 0.53314872E-03 | 0.69359035E+02 |   44.319
 BASOPT|        5     |       2     | 0.60289019E-03 | 0.47705815E+02 |   30.021
 BASOPT|        5     |       3     | 0.62002211E-03 | 0.20792503E+01 |   25.346
 BASOPT|        6     |       1     | 0.10884884E-02 | 0.27472332E+02 |   14.876
 BASOPT|        6     |       2     | 0.10884884E-02 | 0.27472332E+02 |   12.684
 BASOPT|        6     |       3     | 0.10908070E-02 | 0.10087898E+01 |   11.110
 BASOPT| -----------------------------------------------------------------------
 BASOPT| Total residuum value: -.90283834E+03

 BASOPT| Information at iteration number:    2600
 BASOPT| Training set | Combination | Rho difference | Condition num. | Time
 BASOPT| -----------------------------------------------------------------------
 BASOPT|        1     |       1     | 0.30267470E-04 | 0.15085057E+02 |   20.508
 BASOPT|        1     |       2     | 0.30267399E-04 | 0.15085057E+02 |   14.615
 BASOPT|        1     |       3     | 0.35545762E-04 | 0.10138118E+01 |   13.157
 BASOPT|        2     |       1     | 0.26905143E-03 | 0.28712142E+02 |   19.049
 BASOPT|        2     |       2     | 0.26905127E-03 | 0.28712142E+02 |   13.909
 BASOPT|        2     |       3     | 0.26923256E-03 | 0.10299513E+01 |   12.418
 BASOPT|        3     |       1     | 0.20390512E-02 | 0.31218610E+02 |   39.309
 BASOPT|        3     |       2     | 0.21198140E-02 | 0.30756133E+02 |   29.182
 BASOPT|        3     |       3     | 0.21665356E-02 | 0.16600951E+01 |   24.966
 BASOPT|        4     |       1     | 0.89426233E-04 | 0.90674451E+02 |   55.984
 BASOPT|        4     |       2     | 0.25557257E-03 | 0.35141362E+02 |   35.083
 BASOPT|        4     |       3     | 0.28325045E-03 | 0.56258162E+01 |   29.329
 BASOPT|        5     |       1     | 0.53506845E-03 | 0.69161667E+02 |   46.098
 BASOPT|        5     |       2     | 0.60467768E-03 | 0.47582838E+02 |   31.231
 BASOPT|        5     |       3     | 0.62349765E-03 | 0.20795827E+01 |   26.367
 BASOPT|        6     |       1     | 0.10886934E-02 | 0.27343472E+02 |   15.476
 BASOPT|        6     |       2     | 0.10886934E-02 | 0.27343472E+02 |   13.198
 BASOPT|        6     |       3     | 0.10904927E-02 | 0.10077334E+01 |   11.558
 BASOPT| -----------------------------------------------------------------------
 BASOPT| Total residuum value: -.90283870E+03

 BASOPT| Information at iteration number:    2700
 BASOPT| Training set | Combination | Rho difference | Condition num. | Time
 BASOPT| -----------------------------------------------------------------------
 BASOPT|        1     |       1     | 0.29929488E-04 | 0.15049556E+02 |   21.303
 BASOPT|        1     |       2     | 0.29929417E-04 | 0.15049556E+02 |   15.181
 BASOPT|        1     |       3     | 0.34318968E-04 | 0.10158869E+01 |   13.665
 BASOPT|        2     |       1     | 0.26861155E-03 | 0.28620952E+02 |   19.787
 BASOPT|        2     |       2     | 0.26861148E-03 | 0.28620952E+02 |   14.450
 BASOPT|        2     |       3     | 0.26884096E-03 | 0.10319680E+01 |   12.901
 BASOPT|        3     |       1     | 0.20377923E-02 | 0.31001459E+02 |   40.830
 BASOPT|        3     |       2     | 0.21186737E-02 | 0.30540687E+02 |   30.314
 BASOPT|        3     |       3     | 0.21645848E-02 | 0.16615315E+01 |   25.932
 BASOPT|        4     |       1     | 0.89099145E-04 | 0.90499307E+02 |   58.143
 BASOPT|        4     |       2     | 0.25502427E-03 | 0.35043177E+02 |   36.363
 BASOPT|        4     |       3     | 0.28082283E-03 | 0.56311488E+01 |   30.409
 BASOPT|        5     |       1     | 0.53464046E-03 | 0.68941220E+02 |   47.877
 BASOPT|        5     |       2     | 0.60393881E-03 | 0.47455805E+02 |   32.441
 BASOPT|        5     |       3     | 0.62250389E-03 | 0.20787611E+01 |   27.389
 BASOPT|        6     |       1     | 0.10880923E-02 | 0.27146474E+02 |   16.075
 BASOPT|        6     |       2     | 0.10880923E-02 | 0.27146474E+02 |   13.712
 BASOPT|        6     |       3     | 0.10894994E-02 | 0.10094253E+01 |   12.005
 BASOPT| -----------------------------------------------------------------------
 BASOPT| Total residuum value: -.90283911E+03

 BASOPT| Information at iteration number:    2800
 BASOPT| Training set | Combination | Rho difference | Condition num. | Time
 BASOPT| -----------------------------------------------------------------------
 BASOPT|        1     |       1     | 0.30022598E-04 | 0.15045975E+02 |   22.098
 BASOPT|        1     |       2     | 0.30022527E-04 | 0.15045975E+02 |   15.749
 BASOPT|        1     |       3     | 0.33017089E-04 | 0.10183139E+01 |   14.174
 BASOPT|        2     |       1     | 0.26884941E-03 | 0.28596623E+02 |   20.524
 BASOPT|        2     |       2     | 0.26884926E-03 | 0.28596623E+02 |   14.990
 BASOPT|        2     |       3     | 0.26892095E-03 | 0.10311905E+01 |   13.383
 BASOPT|        3     |       1     | 0.20377624E-02 | 0.30903859E+02 |   42.350
 BASOPT|        3     |       2     | 0.21186635E-02 | 0.30444177E+02 |   31.441
 BASOPT|        3     |       3     | 0.21642202E-02 | 0.16621209E+01 |   26.897
 BASOPT|        4     |       1     | 0.89282841E-04 | 0.90284232E+02 |   60.302
 BASOPT|        4     |       2     | 0.25515017E-03 | 0.35009830E+02 |   37.628
 BASOPT|        4     |       3     | 0.27929726E-03 | 0.56346995E+01 |   31.476
 BASOPT|        5     |       1     | 0.53492756E-03 | 0.68924172E+02 |   49.656
 BASOPT|        5     |       2     | 0.60443894E-03 | 0.47449680E+02 |   33.650
 BASOPT|        5     |       3     | 0.62236410E-03 | 0.20783652E+01 |   28.409
 BASOPT|        6     |       1     | 0.10880889E-02 | 0.27060518E+02 |   16.675
 BASOPT|        6     |       2     | 0.10880889E-02 | 0.27060518E+02 |   14.225
 BASOPT|        6     |       3     | 0.10892927E-02 | 0.10107945E+01 |   12.453
 BASOPT| -----------------------------------------------------------------------
 BASOPT| Total residuum value: -.90283930E+03

 BASOPT| Information at iteration number:    2900
 BASOPT| Training set | Combination | Rho difference | Condition num. | Time
 BASOPT| -----------------------------------------------------------------------
 BASOPT|        1     |       1     | 0.29822005E-04 | 0.15026299E+02 |   22.893
 BASOPT|        1     |       2     | 0.29821934E-04 | 0.15026299E+02 |   16.316
 BASOPT|        1     |       3     | 0.32885992E-04 | 0.10192457E+01 |   14.682
 BASOPT|        2     |       1     | 0.26795446E-03 | 0.28562868E+02 |   21.262
 BASOPT|        2     |       2     | 0.26795430E-03 | 0.28562868E+02 |   15.531
 BASOPT|        2     |       3     | 0.26810627E-03 | 0.10323328E+01 |   13.866
 BASOPT|        3     |       1     | 0.20376799E-02 | 0.30743127E+02 |   43.872
 BASOPT|        3     |       2     | 0.21186041E-02 | 0.30285790E+02 |   32.570
 BASOPT|        3     |       3     | 0.21633846E-02 | 0.16631521E+01 |   27.865
 BASOPT|        4     |       1     | 0.88904917E-04 | 0.90088985E+02 |   62.460
 BASOPT|        4     |       2     | 0.25469962E-03 | 0.34953358E+02 |   38.892
 BASOPT|        4     |       3     | 0.27822640E-03 | 0.56288945E+01 |   32.542
 BASOPT|        5     |       1     | 0.53345290E-03 | 0.68721819E+02 |   51.437
 BASOPT|        5     |       2     | 0.60269816E-03 | 0.47357710E+02 |   34.859
 BASOPT|        5     |       3     | 0.62084399E-03 | 0.20785111E+01 |   29.430
 BASOPT|        6     |       1     | 0.10880579E-02 | 0.26922951E+02 |   17.274
 BASOPT|        6     |       2     | 0.10880579E-02 | 0.26922951E+02 |   14.741
 BASOPT|        6     |       3     | 0.10890078E-02 | 0.10109159E+01 |   12.900
 BASOPT| -----------------------------------------------------------------------
 BASOPT| Total residuum value: -.90283957E+03

 BASOPT| Information at iteration number:    3000
 BASOPT| Training set | Combination | Rho difference | Condition num. | Time
 BASOPT| -----------------------------------------------------------------------
 BASOPT|        1     |       1     | 0.29531062E-04 | 0.14977611E+02 |   23.688
 BASOPT|        1     |       2     | 0.29530991E-04 | 0.14977611E+02 |   16.883
 BASOPT|        1     |       3     | 0.33253244E-04 | 0.10246523E+01 |   15.190
 BASOPT|        2     |       1     | 0.26803012E-03 | 0.28440810E+02 |   21.999
 BASOPT|        2     |       2     | 0.26802997E-03 | 0.28440810E+02 |   16.073
 BASOPT|        2     |       3     | 0.26811207E-03 | 0.10303120E+01 |   14.349
 BASOPT|        3     |       1     | 0.20375514E-02 | 0.30488029E+02 |   45.391
 BASOPT|        3     |       2     | 0.21185071E-02 | 0.30033007E+02 |   33.695
 BASOPT|        3     |       3     | 0.21664445E-02 | 0.16641237E+01 |   28.831
 BASOPT|        4     |       1     | 0.88618949E-04 | 0.89698806E+02 |   64.619
 BASOPT|        4     |       2     | 0.25441944E-03 | 0.34797802E+02 |   40.156
 BASOPT|        4     |       3     | 0.27798029E-03 | 0.56308719E+01 |   33.604
 BASOPT|        5     |       1     | 0.53352944E-03 | 0.68661986E+02 |   53.217
 BASOPT|        5     |       2     | 0.60286068E-03 | 0.47300397E+02 |   36.066
 BASOPT|        5     |       3     | 0.62038105E-03 | 0.20776160E+01 |   30.450
 BASOPT|        6     |       1     | 0.10880155E-02 | 0.26696849E+02 |   17.878
 BASOPT|        6     |       2     | 0.10880155E-02 | 0.26696849E+02 |   15.256
 BASOPT|        6     |       3     | 0.10900582E-02 | 0.10138984E+01 |   13.348
 BASOPT| -----------------------------------------------------------------------
 BASOPT| Total residuum value: -.90284003E+03

 BASOPT| Information at iteration number:    3100
 BASOPT| Training set | Combination | Rho difference | Condition num. | Time
 BASOPT| -----------------------------------------------------------------------
 BASOPT|        1     |       1     | 0.29136227E-04 | 0.14947740E+02 |   24.485
 BASOPT|        1     |       2     | 0.29136155E-04 | 0.14947740E+02 |   17.451
 BASOPT|        1     |       3     | 0.33950242E-04 | 0.10263352E+01 |   15.699
 BASOPT|        2     |       1     | 0.26654880E-03 | 0.28336316E+02 |   22.736
 BASOPT|        2     |       2     | 0.26654865E-03 | 0.28336316E+02 |   16.614
 BASOPT|        2     |       3     | 0.26746986E-03 | 0.10313945E+01 |   14.832
 BASOPT|        3     |       1     | 0.20373113E-02 | 0.30348093E+02 |   46.911
 BASOPT|        3     |       2     | 0.21182678E-02 | 0.29895012E+02 |   34.818
 BASOPT|        3     |       3     | 0.21664325E-02 | 0.16647090E+01 |   29.798
 BASOPT|        4     |       1     | 0.87890211E-04 | 0.89632836E+02 |   66.777
 BASOPT|        4     |       2     | 0.25347012E-03 | 0.34755292E+02 |   41.420
 BASOPT|        4     |       3     | 0.27960352E-03 | 0.56312525E+01 |   34.668
 BASOPT|        5     |       1     | 0.53102044E-03 | 0.68368113E+02 |   54.995
 BASOPT|        5     |       2     | 0.60007391E-03 | 0.47119704E+02 |   37.271
 BASOPT|        5     |       3     | 0.62202066E-03 | 0.20773758E+01 |   31.469
 BASOPT|        6     |       1     | 0.10878967E-02 | 0.26577201E+02 |   18.480
 BASOPT|        6     |       2     | 0.10878967E-02 | 0.26577201E+02 |   15.771
 BASOPT|        6     |       3     | 0.10900575E-02 | 0.10146143E+01 |   13.796
 BASOPT| -----------------------------------------------------------------------
 BASOPT| Total residuum value: -.90284022E+03

 BASOPT| Information at iteration number:    3200
 BASOPT| Training set | Combination | Rho difference | Condition num. | Time
 BASOPT| -----------------------------------------------------------------------
 BASOPT|        1     |       1     | 0.29676065E-04 | 0.14944001E+02 |   25.280
 BASOPT|        1     |       2     | 0.29675994E-04 | 0.14944001E+02 |   18.019
 BASOPT|        1     |       3     | 0.33727784E-04 | 0.10256783E+01 |   16.207
 BASOPT|        2     |       1     | 0.26780905E-03 | 0.28316785E+02 |   23.475
 BASOPT|        2     |       2     | 0.26780889E-03 | 0.28316785E+02 |   17.155
 BASOPT|        2     |       3     | 0.26860147E-03 | 0.10300824E+01 |   15.315
 BASOPT|        3     |       1     | 0.20374145E-02 | 0.30260712E+02 |   48.433
 BASOPT|        3     |       2     | 0.21183957E-02 | 0.29808218E+02 |   35.943
 BASOPT|        3     |       3     | 0.21675427E-02 | 0.16653927E+01 |   30.761
 BASOPT|        4     |       1     | 0.89027113E-04 | 0.89445499E+02 |   68.935
 BASOPT|        4     |       2     | 0.25476526E-03 | 0.34713149E+02 |   42.684
 BASOPT|        4     |       3     | 0.27849089E-03 | 0.56303125E+01 |   35.733
 BASOPT|        5     |       1     | 0.53319600E-03 | 0.68336212E+02 |   56.774
 BASOPT|        5     |       2     | 0.60215571E-03 | 0.47091753E+02 |   38.475
 BASOPT|        5     |       3     | 0.62412807E-03 | 0.20771508E+01 |   32.488
 BASOPT|        6     |       1     | 0.10879565E-02 | 0.26501623E+02 |   19.084
 BASOPT|        6     |       2     | 0.10879565E-02 | 0.26501623E+02 |   16.286
 BASOPT|        6     |       3     | 0.10905466E-02 | 0.10152054E+01 |   14.243
 BASOPT| -----------------------------------------------------------------------
 BASOPT| Total residuum value: -.90284049E+03

 BASOPT| Information at iteration number:    3300
 BASOPT| Training set | Combination | Rho difference | Condition num. | Time
 BASOPT| -----------------------------------------------------------------------
 BASOPT|        1     |       1     | 0.29656427E-04 | 0.14923693E+02 |   26.078
 BASOPT|        1     |       2     | 0.29656356E-04 | 0.14923693E+02 |   18.588
 BASOPT|        1     |       3     | 0.33684146E-04 | 0.10260473E+01 |   16.717
 BASOPT|        2     |       1     | 0.26777724E-03 | 0.28322634E+02 |   24.213
 BASOPT|        2     |       2     | 0.26777709E-03 | 0.28322634E+02 |   17.697
 BASOPT|        2     |       3     | 0.26784365E-03 | 0.10305234E+01 |   15.800
 BASOPT|        3     |       1     | 0.20376823E-02 | 0.30091842E+02 |   49.954
 BASOPT|        3     |       2     | 0.21186347E-02 | 0.29642296E+02 |   37.069
 BASOPT|        3     |       3     | 0.21675380E-02 | 0.16667200E+01 |   31.726
 BASOPT|        4     |       1     | 0.88911596E-04 | 0.89131260E+02 |   71.095
 BASOPT|        4     |       2     | 0.25460768E-03 | 0.34611991E+02 |   43.947
 BASOPT|        4     |       3     | 0.27854713E-03 | 0.56277169E+01 |   36.797
 BASOPT|        5     |       1     | 0.53282986E-03 | 0.68223093E+02 |   58.557
 BASOPT|        5     |       2     | 0.60195051E-03 | 0.47058412E+02 |   39.680
 BASOPT|        5     |       3     | 0.61796467E-03 | 0.20776131E+01 |   33.507
 BASOPT|        6     |       1     | 0.10880877E-02 | 0.26360601E+02 |   19.688
 BASOPT|        6     |       2     | 0.10880877E-02 | 0.26360601E+02 |   16.802
 BASOPT|        6     |       3     | 0.10906645E-02 | 0.10158988E+01 |   14.691
 BASOPT| -----------------------------------------------------------------------
 BASOPT| Total residuum value: -.90284088E+03

 BASOPT| Information at iteration number:    3400
 BASOPT| Training set | Combination | Rho difference | Condition num. | Time
 BASOPT| -----------------------------------------------------------------------
 BASOPT|        1     |       1     | 0.30107242E-04 | 0.14905511E+02 |   26.875
 BASOPT|        1     |       2     | 0.30107171E-04 | 0.14905511E+02 |   19.156
 BASOPT|        1     |       3     | 0.33017882E-04 | 0.10274572E+01 |   17.227
 BASOPT|        2     |       1     | 0.26860137E-03 | 0.28222528E+02 |   24.952
 BASOPT|        2     |       2     | 0.26860122E-03 | 0.28222528E+02 |   18.239
 BASOPT|        2     |       3     | 0.26887970E-03 | 0.10273806E+01 |   16.284
 BASOPT|        3     |       1     | 0.20378089E-02 | 0.29941452E+02 |   51.476
 BASOPT|        3     |       2     | 0.21187736E-02 | 0.29492687E+02 |   38.192
 BASOPT|        3     |       3     | 0.21660273E-02 | 0.16679154E+01 |   32.690
 BASOPT|        4     |       1     | 0.89734591E-04 | 0.88957805E+02 |   73.255
 BASOPT|        4     |       2     | 0.25558881E-03 | 0.34556243E+02 |   45.212
 BASOPT|        4     |       3     | 0.27885549E-03 | 0.56299272E+01 |   37.858
 BASOPT|        5     |       1     | 0.53429812E-03 | 0.68009891E+02 |   60.337
 BASOPT|        5     |       2     | 0.60338006E-03 | 0.46921318E+02 |   40.885
 BASOPT|        5     |       3     | 0.62289487E-03 | 0.20761110E+01 |   34.525
 BASOPT|        6     |       1     | 0.10881711E-02 | 0.26229637E+02 |   20.289
 BASOPT|        6     |       2     | 0.10881711E-02 | 0.26229637E+02 |   17.318
 BASOPT|        6     |       3     | 0.10901735E-02 | 0.10178991E+01 |   15.139
 BASOPT| -----------------------------------------------------------------------
 BASOPT| Total residuum value: -.90284131E+03

 BASOPT| Information at iteration number:    3500
 BASOPT| Training set | Combination | Rho difference | Condition num. | Time
 BASOPT| -----------------------------------------------------------------------
 BASOPT|        1     |       1     | 0.31468882E-04 | 0.14848603E+02 |   27.673
 BASOPT|        1     |       2     | 0.31468811E-04 | 0.14848603E+02 |   19.724
 BASOPT|        1     |       3     | 0.36427213E-04 | 0.10294233E+01 |   17.736
 BASOPT|        2     |       1     | 0.26863201E-03 | 0.28126754E+02 |   25.691
 BASOPT|        2     |       2     | 0.26863186E-03 | 0.28126754E+02 |   18.780
 BASOPT|        2     |       3     | 0.26930784E-03 | 0.10259421E+01 |   16.769
 BASOPT|        3     |       1     | 0.20380503E-02 | 0.29763177E+02 |   52.996
 BASOPT|        3     |       2     | 0.21189667E-02 | 0.29316889E+02 |   39.315
 BASOPT|        3     |       3     | 0.21666425E-02 | 0.16691659E+01 |   33.653
 BASOPT|        4     |       1     | 0.92377001E-04 | 0.88587056E+02 |   75.415
 BASOPT|        4     |       2     | 0.25860195E-03 | 0.34387284E+02 |   46.476
 BASOPT|        4     |       3     | 0.28353230E-03 | 0.56331471E+01 |   38.923
 BASOPT|        5     |       1     | 0.53416966E-03 | 0.67778557E+02 |   62.118
 BASOPT|        5     |       2     | 0.60340306E-03 | 0.46766233E+02 |   42.089
 BASOPT|        5     |       3     | 0.62490591E-03 | 0.20742894E+01 |   35.545
 BASOPT|        6     |       1     | 0.10882890E-02 | 0.26077283E+02 |   20.890
 BASOPT|        6     |       2     | 0.10882890E-02 | 0.26077283E+02 |   17.834
 BASOPT|        6     |       3     | 0.10903971E-02 | 0.10186440E+01 |   15.587
 BASOPT| -----------------------------------------------------------------------
 BASOPT| Total residuum value: -.90284174E+03

 BASOPT| Information at iteration number:    3600
 BASOPT| Training set | Combination | Rho difference | Condition num. | Time
 BASOPT| -----------------------------------------------------------------------
 BASOPT|        1     |       1     | 0.30515633E-04 | 0.14833053E+02 |   28.470
 BASOPT|        1     |       2     | 0.30515562E-04 | 0.14833053E+02 |   20.292
 BASOPT|        1     |       3     | 0.35678799E-04 | 0.10280746E+01 |   18.246
 BASOPT|        2     |       1     | 0.26849882E-03 | 0.28129468E+02 |   26.429
 BASOPT|        2     |       2     | 0.26849867E-03 | 0.28129468E+02 |   19.322
 BASOPT|        2     |       3     | 0.26891931E-03 | 0.10215493E+01 |   17.253
 BASOPT|        3     |       1     | 0.20376866E-02 | 0.29620271E+02 |   54.517
 BASOPT|        3     |       2     | 0.21186356E-02 | 0.29175498E+02 |   40.437
 BASOPT|        3     |       3     | 0.21670544E-02 | 0.16697364E+01 |   34.616
 BASOPT|        4     |       1     | 0.90223946E-04 | 0.88451425E+02 |   77.573
 BASOPT|        4     |       2     | 0.25617523E-03 | 0.34321269E+02 |   47.741
 BASOPT|        4     |       3     | 0.28186733E-03 | 0.56311518E+01 |   39.987
 BASOPT|        5     |       1     | 0.53430830E-03 | 0.67784200E+02 |   63.899
 BASOPT|        5     |       2     | 0.60325911E-03 | 0.46802362E+02 |   43.294
 BASOPT|        5     |       3     | 0.62270843E-03 | 0.20758824E+01 |   36.564
 BASOPT|        6     |       1     | 0.10881200E-02 | 0.25951992E+02 |   21.490
 BASOPT|        6     |       2     | 0.10881200E-02 | 0.25951992E+02 |   18.350
 BASOPT|        6     |       3     | 0.10904414E-02 | 0.10197289E+01 |   16.035
 BASOPT| -----------------------------------------------------------------------
 BASOPT| Total residuum value: -.90284204E+03

 BASOPT| Information at iteration number:    3700
 BASOPT| Training set | Combination | Rho difference | Condition num. | Time
 BASOPT| -----------------------------------------------------------------------
 BASOPT|        1     |       1     | 0.30571487E-04 | 0.14813421E+02 |   29.268
 BASOPT|        1     |       2     | 0.30571416E-04 | 0.14813421E+02 |   20.861
 BASOPT|        1     |       3     | 0.36036397E-04 | 0.10294571E+01 |   18.757
 BASOPT|        2     |       1     | 0.26820736E-03 | 0.28035792E+02 |   27.170
 BASOPT|        2     |       2     | 0.26820721E-03 | 0.28035792E+02 |   19.864
 BASOPT|        2     |       3     | 0.26946691E-03 | 0.10205019E+01 |   17.739
 BASOPT|        3     |       1     | 0.20382678E-02 | 0.29477578E+02 |   56.039
 BASOPT|        3     |       2     | 0.21191691E-02 | 0.29034337E+02 |   41.559
 BASOPT|        3     |       3     | 0.21649241E-02 | 0.16705708E+01 |   35.581
 BASOPT|        4     |       1     | 0.90293605E-04 | 0.88318721E+02 |   79.731
 BASOPT|        4     |       2     | 0.25620594E-03 | 0.34242602E+02 |   49.005
 BASOPT|        4     |       3     | 0.28056721E-03 | 0.56387494E+01 |   41.052
 BASOPT|        5     |       1     | 0.53349788E-03 | 0.67597834E+02 |   65.681
 BASOPT|        5     |       2     | 0.60259945E-03 | 0.46659969E+02 |   44.500
 BASOPT|        5     |       3     | 0.62628170E-03 | 0.20736967E+01 |   37.582
 BASOPT|        6     |       1     | 0.10884120E-02 | 0.25829378E+02 |   22.090
 BASOPT|        6     |       2     | 0.10884120E-02 | 0.25829378E+02 |   18.866
 BASOPT|        6     |       3     | 0.10897055E-02 | 0.10209644E+01 |   16.484
 BASOPT| -----------------------------------------------------------------------
 BASOPT| Total residuum value: -.90284240E+03

 BASOPT| Information at iteration number:    3800
 BASOPT| Training set | Combination | Rho difference | Condition num. | Time
 BASOPT| -----------------------------------------------------------------------
 BASOPT|        1     |       1     | 0.29872282E-04 | 0.14770920E+02 |   30.066
 BASOPT|        1     |       2     | 0.29872211E-04 | 0.14770920E+02 |   21.430
 BASOPT|        1     |       3     | 0.35069483E-04 | 0.10303621E+01 |   19.267
 BASOPT|        2     |       1     | 0.26790314E-03 | 0.28047583E+02 |   27.909
 BASOPT|        2     |       2     | 0.26790299E-03 | 0.28047583E+02 |   20.405
 BASOPT|        2     |       3     | 0.26812065E-03 | 0.10185699E+01 |   18.224
 BASOPT|        3     |       1     | 0.20383198E-02 | 0.29317737E+02 |   57.563
 BASOPT|        3     |       2     | 0.21192229E-02 | 0.28876185E+02 |   42.684
 BASOPT|        3     |       3     | 0.21651259E-02 | 0.16716146E+01 |   36.547
 BASOPT|        4     |       1     | 0.88898075E-04 | 0.87885057E+02 |   81.890
 BASOPT|        4     |       2     | 0.25453932E-03 | 0.34076019E+02 |   50.269
 BASOPT|        4     |       3     | 0.27893971E-03 | 0.56371244E+01 |   42.115
 BASOPT|        5     |       1     | 0.53312181E-03 | 0.67607762E+02 |   67.462
 BASOPT|        5     |       2     | 0.60203729E-03 | 0.46693317E+02 |   45.707
 BASOPT|        5     |       3     | 0.62065900E-03 | 0.20744220E+01 |   38.600
 BASOPT|        6     |       1     | 0.10884489E-02 | 0.25690674E+02 |   22.690
 BASOPT|        6     |       2     | 0.10884489E-02 | 0.25690674E+02 |   19.383
 BASOPT|        6     |       3     | 0.10897652E-02 | 0.10224654E+01 |   16.932
 BASOPT| -----------------------------------------------------------------------
 BASOPT| Total residuum value: -.90284283E+03

 BASOPT| Information at iteration number:    3900
 BASOPT| Training set | Combination | Rho difference | Condition num. | Time
 BASOPT| -----------------------------------------------------------------------
 BASOPT|        1     |       1     | 0.29533522E-04 | 0.14760589E+02 |   30.864
 BASOPT|        1     |       2     | 0.29533451E-04 | 0.14760589E+02 |   21.999
 BASOPT|        1     |       3     | 0.34904006E-04 | 0.10310028E+01 |   19.777
 BASOPT|        2     |       1     | 0.26783803E-03 | 0.27991571E+02 |   28.648
 BASOPT|        2     |       2     | 0.26783787E-03 | 0.27991571E+02 |   20.946
 BASOPT|        2     |       3     | 0.26813188E-03 | 0.10155778E+01 |   18.710
 BASOPT|        3     |       1     | 0.20387150E-02 | 0.29197097E+02 |   59.083
 BASOPT|        3     |       2     | 0.21195716E-02 | 0.28757010E+02 |   43.807
 BASOPT|        3     |       3     | 0.21652066E-02 | 0.16727800E+01 |   37.510
 BASOPT|        4     |       1     | 0.88277915E-04 | 0.87707881E+02 |   84.048
 BASOPT|        4     |       2     | 0.25384627E-03 | 0.34025695E+02 |   51.532
 BASOPT|        4     |       3     | 0.27754472E-03 | 0.56387245E+01 |   43.179
 BASOPT|        5     |       1     | 0.53301297E-03 | 0.67524778E+02 |   69.242
 BASOPT|        5     |       2     | 0.60190405E-03 | 0.46633688E+02 |   46.913
 BASOPT|        5     |       3     | 0.62083450E-03 | 0.20740936E+01 |   39.618
 BASOPT|        6     |       1     | 0.10886469E-02 | 0.25588781E+02 |   23.289
 BASOPT|        6     |       2     | 0.10886469E-02 | 0.25588781E+02 |   19.898
 BASOPT|        6     |       3     | 0.10899168E-02 | 0.10234714E+01 |   17.382
 BASOPT| -----------------------------------------------------------------------
 BASOPT| Total residuum value: -.90284312E+03

 BASOPT| Information at iteration number:    4000
 BASOPT| Training set | Combination | Rho difference | Condition num. | Time
 BASOPT| -----------------------------------------------------------------------
 BASOPT|        1     |       1     | 0.30193121E-04 | 0.14726764E+02 |   31.663
 BASOPT|        1     |       2     | 0.30193050E-04 | 0.14726764E+02 |   22.568
[...]
 BASOPT| -----------------------------------------------------------------------
 BASOPT|        1     |       1     | 0.33265628E-04 | 0.20906937E+01 |  468.004
 BASOPT|        1     |       2     | 0.33265556E-04 | 0.20906937E+01 |  330.121
 BASOPT|        1     |       3     | 0.47019791E-04 | 0.10000036E+01 |  304.304
 BASOPT|        2     |       1     | 0.26584811E-03 | 0.10000242E+01 |  438.434
 BASOPT|        2     |       2     | 0.26584796E-03 | 0.10000241E+01 |  324.660
 BASOPT|        2     |       3     | 0.26797440E-03 | 0.10000161E+01 |  295.816
 BASOPT|        3     |       1     | 0.20348420E-02 | 0.35738137E+01 |  915.879
 BASOPT|        3     |       2     | 0.21102200E-02 | 0.35116314E+01 |  687.473
 BASOPT|        3     |       3     | 0.21253240E-02 | 0.20684504E+01 |  582.635
 BASOPT|        4     |       1     | 0.14429757E-03 | 0.90349696E+01 | 1286.323
 BASOPT|        4     |       2     | 0.28859621E-03 | 0.72598176E+01 |  759.215
 BASOPT|        4     |       3     | 0.39105003E-03 | 0.27777884E+01 |  639.278
 BASOPT|        5     |       1     | 0.55354955E-03 | 0.53646573E+01 | 1076.361
 BASOPT|        5     |       2     | 0.59131366E-03 | 0.42470385E+01 |  720.817
 BASOPT|        5     |       3     | 0.63226354E-03 | 0.19344371E+01 |  606.929
 BASOPT|        6     |       1     | 0.10889727E-02 | 0.34411149E+01 |  358.458
 BASOPT|        6     |       2     | 0.10889727E-02 | 0.34411149E+01 |  305.841
 BASOPT|        6     |       3     | 0.10905467E-02 | 0.10000106E+01 |  276.728
 BASOPT| -----------------------------------------------------------------------
 BASOPT| Total residuum value: -.90311573E+03

 BASOPT| Information at iteration number:   59300
 BASOPT| Training set | Combination | Rho difference | Condition num. | Time
 BASOPT| -----------------------------------------------------------------------
 BASOPT|        1     |       1     | 0.33272642E-04 | 0.20907035E+01 |  468.795
 BASOPT|        1     |       2     | 0.33272570E-04 | 0.20907035E+01 |  330.689
 BASOPT|        1     |       3     | 0.47032268E-04 | 0.10000089E+01 |  304.822
 BASOPT|        2     |       1     | 0.26581268E-03 | 0.10000145E+01 |  439.180
 BASOPT|        2     |       2     | 0.26581252E-03 | 0.10000145E+01 |  325.210
 BASOPT|        2     |       3     | 0.26791849E-03 | 0.10000071E+01 |  296.324
 BASOPT|        3     |       1     | 0.20348394E-02 | 0.35737842E+01 |  917.433
 BASOPT|        3     |       2     | 0.21102173E-02 | 0.35115937E+01 |  688.636
 BASOPT|        3     |       3     | 0.21253515E-02 | 0.20684515E+01 |  583.624
 BASOPT|        4     |       1     | 0.14431205E-03 | 0.90349673E+01 | 1288.494
 BASOPT|        4     |       2     | 0.28861225E-03 | 0.72598179E+01 |  760.503
 BASOPT|        4     |       3     | 0.39107633E-03 | 0.27777843E+01 |  640.359
 BASOPT|        5     |       1     | 0.55347960E-03 | 0.53646492E+01 | 1078.367
 BASOPT|        5     |       2     | 0.59124619E-03 | 0.42470287E+01 |  722.028
 BASOPT|        5     |       3     | 0.63224000E-03 | 0.19344071E+01 |  607.958
 BASOPT|        6     |       1     | 0.10889713E-02 | 0.34410692E+01 |  359.068
 BASOPT|        6     |       2     | 0.10889713E-02 | 0.34410692E+01 |  306.364
 BASOPT|        6     |       3     | 0.10905612E-02 | 0.10000039E+01 |  277.205
 BASOPT| -----------------------------------------------------------------------
 BASOPT| Total residuum value: -.90311573E+03

 BASOPT| Information at iteration number:   59400
 BASOPT| Training set | Combination | Rho difference | Condition num. | Time
 BASOPT| -----------------------------------------------------------------------
 BASOPT|        1     |       1     | 0.33269939E-04 | 0.20907125E+01 |  469.586
 BASOPT|        1     |       2     | 0.33269867E-04 | 0.20907125E+01 |  331.258
 BASOPT|        1     |       3     | 0.47015165E-04 | 0.10000092E+01 |  305.341
 BASOPT|        2     |       1     | 0.26581746E-03 | 0.10000149E+01 |  439.924
 BASOPT|        2     |       2     | 0.26581731E-03 | 0.10000147E+01 |  325.760
 BASOPT|        2     |       3     | 0.26793180E-03 | 0.10000118E+01 |  296.833
 BASOPT|        3     |       1     | 0.20348375E-02 | 0.35737913E+01 |  918.986
 BASOPT|        3     |       2     | 0.21102157E-02 | 0.35116012E+01 |  689.794
 BASOPT|        3     |       3     | 0.21253751E-02 | 0.20684515E+01 |  584.612
 BASOPT|        4     |       1     | 0.14430594E-03 | 0.90349951E+01 | 1290.663
 BASOPT|        4     |       2     | 0.28860570E-03 | 0.72598325E+01 |  761.790
 BASOPT|        4     |       3     | 0.39104401E-03 | 0.27777935E+01 |  641.439
 BASOPT|        5     |       1     | 0.55348887E-03 | 0.53646508E+01 | 1080.374
 BASOPT|        5     |       2     | 0.59125464E-03 | 0.42470355E+01 |  723.240
 BASOPT|        5     |       3     | 0.63225635E-03 | 0.19344138E+01 |  608.988
 BASOPT|        6     |       1     | 0.10889705E-02 | 0.34410756E+01 |  359.676
 BASOPT|        6     |       2     | 0.10889705E-02 | 0.34410756E+01 |  306.886
 BASOPT|        6     |       3     | 0.10905737E-02 | 0.10000049E+01 |  277.682
 BASOPT| -----------------------------------------------------------------------
 BASOPT| Total residuum value: -.90311573E+03

 BASOPT| Information at iteration number:   59500
 BASOPT| Training set | Combination | Rho difference | Condition num. | Time
 BASOPT| -----------------------------------------------------------------------
 BASOPT|        1     |       1     | 0.33268802E-04 | 0.20907006E+01 |  470.377
 BASOPT|        1     |       2     | 0.33268730E-04 | 0.20907006E+01 |  331.827
 BASOPT|        1     |       3     | 0.47027083E-04 | 0.10000082E+01 |  305.858
 BASOPT|        2     |       1     | 0.26585200E-03 | 0.10000233E+01 |  440.670
 BASOPT|        2     |       2     | 0.26585184E-03 | 0.10000233E+01 |  326.309
 BASOPT|        2     |       3     | 0.26795619E-03 | 0.10000123E+01 |  297.341
 BASOPT|        3     |       1     | 0.20348392E-02 | 0.35737886E+01 |  920.539
 BASOPT|        3     |       2     | 0.21102173E-02 | 0.35116019E+01 |  690.956
 BASOPT|        3     |       3     | 0.21253426E-02 | 0.20684524E+01 |  585.600
 BASOPT|        4     |       1     | 0.14430445E-03 | 0.90349648E+01 | 1292.835
 BASOPT|        4     |       2     | 0.28860410E-03 | 0.72598218E+01 |  763.075
 BASOPT|        4     |       3     | 0.39106527E-03 | 0.27777880E+01 |  642.520
 BASOPT|        5     |       1     | 0.55355696E-03 | 0.53646670E+01 | 1082.380
 BASOPT|        5     |       2     | 0.59132145E-03 | 0.42470377E+01 |  724.453
 BASOPT|        5     |       3     | 0.63231671E-03 | 0.19344095E+01 |  610.016
 BASOPT|        6     |       1     | 0.10889713E-02 | 0.34410824E+01 |  360.285
 BASOPT|        6     |       2     | 0.10889713E-02 | 0.34410824E+01 |  307.408
 BASOPT|        6     |       3     | 0.10905566E-02 | 0.10000026E+01 |  278.159
 BASOPT| -----------------------------------------------------------------------
 BASOPT| Total residuum value: -.90311573E+03


 -------------------------------------------------------------------------------
 -                                                                             -
 -                                DBCSR STATISTICS                             -
 -                                                                             -
 -------------------------------------------------------------------------------
 COUNTER                                    TOTAL       BLAS       SMM       ACC
 flops   116 x   116 x     4               968832       0.0%    100.0%      0.0%
 flops   116 x   116 x     8              5812992       0.0%    100.0%      0.0%
 flops inhomo. stacks                           0       0.0%      0.0%      0.0%
 flops total                         6.781824E+06       0.0%    100.0%      0.0%
 flops max/rank                    430.592000E+03       0.0%    100.0%      0.0%
 matmuls inhomo. stacks                         0       0.0%      0.0%      0.0%
 matmuls total                                 36       0.0%    100.0%      0.0%
 number of processed stacks                    27       0.0%    100.0%      0.0%
 average stack size                                     0.0       1.3       0.0
 marketing flops                     8.719488E+06
 -------------------------------------------------------------------------------
 # multiplications                              1
 max memory usage/rank             606.011392E+06
 # max total images/rank                        2
 # max 3D layers                                1
 # MPI messages exchanged                      36
 MPI messages size (bytes):
  total size                       167.040000E+03
  min size                           0.000000E+00
  max size                          14.848000E+03
  average size                       4.640000E+03
 MPI breakdown and total messages size (bytes):
             size <=      128                  18                        0
       128 < size <=     8192                   9                    33408
      8192 < size <=    32768                   9                   133632
     32768 < size <=   131072                   0                        0
    131072 < size <=  4194304                   0                        0
   4194304 < size <= 16777216                   0                        0
  16777216 < size                               0                        0
 -------------------------------------------------------------------------------

 *** WARNING in dbcsr_mm.F:297 :: Using a non-square number of MPI ranks ***
 *** might lead to poor performance. Used ranks: 2 Suggested: 1 4        ***

 -------------------------------------------------------------------------------
 -                                                                             -
 -                      DBCSR MESSAGE PASSING PERFORMANCE                      -
 -                                                                             -
 -------------------------------------------------------------------------------
 ROUTINE             CALLS      AVE VOLUME [Bytes]
 MP_Bcast                3                     12.
 MP_Allreduce           30                     18.
 MP_Alltoall       3571161                  19346.
 MP_ISend                6                    654.
 MP_IRecv                6                     33.
 -------------------------------------------------------------------------------

 -------------------------------------------------------------------------------
 -                                                                             -
 -                                GRID STATISTICS                              -
 -                                                                             -
 -------------------------------------------------------------------------------
 LP    KERNEL    OPERATION                                     COUNT     PERCENT
 0     general   collocate                                        27       0.18%
 2     ortho     integrate                                      3177      20.98%
 2     ortho     collocate                                      3177      20.98%
 5     ortho     integrate                                      3462      22.87%
 5     ortho     collocate                                      3462      22.87%
 8     ortho     integrate                                       918       6.06%
 8     ortho     collocate                                       918       6.06%
 -------------------------------------------------------------------------------

 MEMORY| Estimated peak process memory [MiB]                                1296

 -------------------------------------------------------------------------------
 -                                                                             -
 -                         MESSAGE PASSING PERFORMANCE                         -
 -                                                                             -
 -------------------------------------------------------------------------------

 ROUTINE             CALLS      AVE VOLUME [Bytes]
 MP_Bcast            59547                    202.
 MP_Allreduce       416758                    229.
 MP_Sync             59519
 MP_Alltoall            18              129829589.
 MP_ISendRecv            9                9129216.
 MP_Wait                 9
 MP_comm_split           1
 -------------------------------------------------------------------------------


 -------------------------------------------------------------------------------
 -                                                                             -
 -                           R E F E R E N C E S                               -
 -                                                                             -
 -------------------------------------------------------------------------------
 
 CP2K version 8.0 (Development Version), the CP2K developers group (2020).
 CP2K is freely available from https://www.cp2k.org/ .

 Kuehne,Thomas D.; Iannuzzi,Marcella; Del Ben,Mauro;
 Rybkin,Vladimir V.; Seewald,Patrick; Stein,Frederick; Laino,Teodoro;
 Khaliullin,Rustam Z.; Schuett,Ole; Schiffmann,Florian; Golze,Dorothea;
 Wilhelm,Jan; Chulkov,Sergey; Bani-Hashemian,Mohammad Hossein;
 Weber,Valery; Borstnik,Urban; Taillefumier,Mathieu;
 Jakobovits,Alice Shoshana; Lazzaro,Alfio; Pabst,Hans; Mueller,Tiziano;
 Schade,Robert; Guidon,Manuel; Andermatt,Samuel; Holmberg,Nico;
 Schenter,Gregory K.; Hehn,Anna; Bussy,Augustin; Belleflamme,Fabian;
 Tabacchi,Gloria; Gloess,Andreas; Lass,Michael; Bethune,Iain;
 Mundy,Christopher J.; Plessl,Christian; Watkins,Matt;
 VandeVondele,Joost; Krack,Matthias; Hutter,Juerg. 
 The Journal of Chemical Physics, 152 (19), (2020). 
 CP2K: An electronic structure and molecular dynamics software package -
 Quickstep: Efficient and accurate electronic structure calculations.
 https://doi.org/10.1063/5.0007045

 Schuett, Ole; Messmer, Peter; Hutter, Juerg; VandeVondele, Joost. 
 Electronic Structure Calculations on Graphics Processing Units, John
 Wiley & Sons, Ltd, 173-190 (2016). 
 GPU-Accelerated Sparse Matrix-Matrix Multiplication for
 Linear Scaling Density Functional Theory.
 https://doi.org/10.1002/9781118670712.ch8

 Borstnik, U; VandeVondele, J; Weber, V; Hutter, J. 
 PARALLEL COMPUTING, 40 (5-6), 47-58 (2014). 
 Sparse matrix multiplication: The distributed block-compressed sparse
 row library.
 https://doi.org/10.1016/j.parco.2014.03.012

 Hutter, J; Iannuzzi, M; Schiffmann, F; VandeVondele, J. 
 WIREs Comput Mol Sci., 4 (1), 15-25 (2014). 
 CP2K: atomistic simulations of condensed matter systems.
 https://doi.org/10.1002/wcms.1159

 Marek, A; Blum, V; Johanni, R; Havu, V; Lang, B; Auckenthaler, T;
 Heinecke, A; Bungartz, H; Lederer, H. 
 Journal of Physics: Condensed Matter, 26 (21), (2014). 
 The ELPA library: scalable parallel eigenvalue solutions for
 electronic structure
 theory and computational science.
 https://doi.org/10.1088/0953-8984/26/21/213201

 Guidon, M; Hutter, J; VandeVondele, J. 
 JOURNAL OF CHEMICAL THEORY AND COMPUTATION, 6 (8), 2348-2364 (2010). 
 Auxiliary Density Matrix Methods for Hartree-Fock Exchange Calculations.
 https://doi.org/10.1021/ct1002225

 VandeVondele, J; Hutter, J. 
 JOURNAL OF CHEMICAL PHYSICS, 127 (11), 114105 (2007). 
 Gaussian basis sets for accurate calculations on molecular systems in
 gas and condensed phases.
 https://doi.org/10.1063/1.2770708

 Krack, M. 
 THEORETICAL CHEMISTRY ACCOUNTS, 114 (1-3), 145-152 (2005). 
 Pseudopotentials for H to Kr optimized for gradient-corrected
 exchange-correlation functionals.
 https://doi.org/10.1007/s00214-005-0655-y

 VandeVondele, J; Krack, M; Mohamed, F; Parrinello, M; Chassaing, T;
 Hutter, J. COMPUTER PHYSICS COMMUNICATIONS, 167 (2), 103-128 (2005). 
 QUICKSTEP: Fast and accurate density functional calculations using a
 mixed Gaussian and plane waves approach.
 https://doi.org/10.1016/j.cpc.2004.12.014

 Frigo, M; Johnson, SG. 
 PROCEEDINGS OF THE IEEE, 93 (2), 216-231 (2005). 
 The design and implementation of FFTW3.
 https://doi.org/10.1109/JPROC.2004.840301

 Hartwigsen, C; Goedecker, S; Hutter, J. 
 PHYSICAL REVIEW B, 58 (7), 3641-3662 (1998). 
 Relativistic separable dual-space Gaussian pseudopotentials from H to Rn.
 https://doi.org/10.1103/PhysRevB.58.3641

 Lippert, G; Hutter, J; Parrinello, M. 
 MOLECULAR PHYSICS, 92 (3), 477-487 (1997). 
 A hybrid Gaussian and plane wave density functional scheme.
 https://doi.org/10.1080/002689797170220

 Perdew, JP; Burke, K; Ernzerhof, M. 
 PHYSICAL REVIEW LETTERS, 77 (18), 3865-3868 (1996). 
 Generalized gradient approximation made simple.
 https://doi.org/10.1103/PhysRevLett.77.3865

 Goedecker, S; Teter, M; Hutter, J. 
 PHYSICAL REVIEW B, 54 (3), 1703-1710 (1996). 
 Separable dual-space Gaussian pseudopotentials.
 https://doi.org/10.1103/PhysRevB.54.1703


 -------------------------------------------------------------------------------
 -                                                                             -
 -                                T I M I N G                                  -
 -                                                                             -
 -------------------------------------------------------------------------------
 SUBROUTINE                       CALLS  ASD         SELF TIME        TOTAL TIME
                                MAXIMUM       AVERAGE  MAXIMUM  AVERAGE  MAXIMUM
 CP2K                                 1  1.0    0.002    0.004 1386.556 1386.578
 run_optimize_basis                   1  2.0    0.001    0.002 1386.546 1386.568
 driver_para_opt_basis                1  3.0    0.000    0.000 1386.540 1386.561
 driver_optimization_para_low         1  4.0    0.517    0.921 1386.539 1386.561
 compute_residuum_vectors         59519  5.0    2.868    3.552 1299.158 1300.078
 mp_sum_dv                       297596  5.8  719.014 1020.657  719.014 1020.657
 cp_gemm                         714228  7.2    0.968    1.059  284.840  666.765
 cp_gemm_fm_gemm                 714228  8.2    0.625    0.732  283.872  665.827
 cp_fm_gemm                      714228  9.2  283.247  665.219  283.247  665.219
 admm_fit_mo_coeffs               59519  6.0    0.117    0.156  186.200  406.666
 build_overlap_matrix_low        119042  6.0   66.196  322.224   68.218  324.426
 fit_mo_coeffs                    59519  7.0    0.460    0.551  106.403  305.287
 copy_dbcsr_to_fm                297596  6.8    2.672    2.994  101.792  214.766
 dbcsr_desymmetrize_deep         297596  7.8    5.270    7.754   35.854  156.387
 mp_alltoall_i22                 595193  8.8   19.197  143.086   19.197  143.086
 cp_fm_syevd                     119038  7.0    0.336    0.414   67.687  122.627
 cp_fm_syevd_base                119038  8.0   67.241  122.109   67.241  122.109
 purify_mo_diag                   59519  7.0    0.631    0.750   79.679  101.712
 mp_bcast_i                       59547  5.0   76.574   78.895   76.574   78.895
 powell_optimize                  59520  5.0    2.172   78.210    2.172   78.210
 dbcsr_complete_redistribute     297597  7.8   14.479   20.033   52.687   65.615
 cp_fm_upper_to_full             178559  7.3   24.516   44.551   24.516   44.551
 -------------------------------------------------------------------------------

 The number of warnings for this run is : 1
 
 -------------------------------------------------------------------------------
  **** **** ******  **  PROGRAM ENDED AT                 2020-12-02 23:39:32.041
 ***** ** ***  *** **   PROGRAM RAN ON                                   tcopt10
 **    ****   ******    PROGRAM RAN BY                                    hutter
 ***** **    ** ** **   PROGRAM PROCESS ID                                 41702
  **** **  *******  **  PROGRAM STOPPED IN /data/hutter/GITHUB/BASIS/MOLOPT/PBE0
                                           /noble/q8
