
  **** **** ******  **  PROGRAM STARTED AT               2020-12-02 20:34:48.984
 ***** ** ***  *** **   PROGRAM STARTED ON                               tcopt10
 **    ****   ******    PROGRAM STARTED BY                                hutter
 ***** **    ** ** **   PROGRAM PROCESS ID                                 19467
  **** **  *******  **  PROGRAM STARTED IN /data/hutter/GITHUB/BASIS/MOLOPT/PBE0
                                           /noble/q8

 CP2K| version string:                    CP2K version 8.0 (Development Version)
 CP2K| source code revision number:                                  git:afc71fa
 CP2K| cp2kflags: omp libint fftw3 libxc elpa parallel mpi3 scalapack xsmm spgli
 CP2K|            b sirius
 CP2K| is freely available from                            https://www.cp2k.org/
 CP2K| Program compiled at                          Tue Nov 17 10:27:14 CET 2020
 CP2K| Program compiled on                                               tcopt10
 CP2K| Program compiled for                                                local
 CP2K| Data directory path                 /data/hutter/GITHUB/CURRENT/cp2k/data
 CP2K| Input file name                                          opt-dzvp_kr8.inp

 GLOBAL| Method name                                              OPTIMIZE_BASIS
 GLOBAL| Project name                                                     molopt
 GLOBAL| Preferred FFT library                                             FFTW3
 GLOBAL| Preferred diagonalization lib.                                     ELPA
 GLOBAL| Run type                                                   ENERGY_FORCE
 GLOBAL| All-to-all communication in single precision                          F
 GLOBAL| FFTs using library dependent lengths                                  F
 GLOBAL| Global print level                                               MEDIUM
 GLOBAL| MPI I/O enabled                                                       T
 GLOBAL| Total number of message passing processes                            36
 GLOBAL| Number of threads for this process                                    1
 GLOBAL| This output is from process                                           0
 GLOBAL| CPU model name                          AMD EPYC 7401 24-Core Processor
 GLOBAL| CPUID                                                              1002

 MEMORY| system memory details [Kb]
 MEMORY|                        rank 0           min           max       average
 MEMORY| MemTotal            263987256     263987256     263987256     263987256
 MEMORY| MemFree             257644692     257644692     257644692     257644692
 MEMORY| Buffers                    32            32            32            32
 MEMORY| Cached                2700812       2700812       2700812       2700812
 MEMORY| Slab                   801852        801852        801852        801852
 MEMORY| SReclaimable           301984        301984        301984        301984
 MEMORY| MemLikelyFree       260647520     260647520     260647520     260647520


 *** Fundamental physical constants (SI units) ***

 *** Literature: B. J. Mohr and B. N. Taylor,
 ***             CODATA recommended values of the fundamental physical
 ***             constants: 2006, Web Version 5.1
 ***             http://physics.nist.gov/constants

 Speed of light in vacuum [m/s]                             2.99792458000000E+08
 Magnetic constant or permeability of vacuum [N/A**2]       1.25663706143592E-06
 Electric constant or permittivity of vacuum [F/m]          8.85418781762039E-12
 Planck constant (h) [J*s]                                  6.62606896000000E-34
 Planck constant (h-bar) [J*s]                              1.05457162825177E-34
 Elementary charge [C]                                      1.60217648700000E-19
 Electron mass [kg]                                         9.10938215000000E-31
 Electron g factor [ ]                                     -2.00231930436220E+00
 Proton mass [kg]                                           1.67262163700000E-27
 Fine-structure constant                                    7.29735253760000E-03
 Rydberg constant [1/m]                                     1.09737315685270E+07
 Avogadro constant [1/mol]                                  6.02214179000000E+23
 Boltzmann constant [J/K]                                   1.38065040000000E-23
 Atomic mass unit [kg]                                      1.66053878200000E-27
 Bohr radius [m]                                            5.29177208590000E-11

 *** Conversion factors ***

 [u] -> [a.u.]                                              1.82288848426455E+03
 [Angstrom] -> [Bohr] = [a.u.]                              1.88972613288564E+00
 [a.u.] = [Bohr] -> [Angstrom]                              5.29177208590000E-01
 [a.u.] -> [s]                                              2.41888432650478E-17
 [a.u.] -> [fs]                                             2.41888432650478E-02
 [a.u.] -> [J]                                              4.35974393937059E-18
 [a.u.] -> [N]                                              8.23872205491840E-08
 [a.u.] -> [K]                                              3.15774647902944E+05
 [a.u.] -> [kJ/mol]                                         2.62549961709828E+03
 [a.u.] -> [kcal/mol]                                       6.27509468713739E+02
 [a.u.] -> [Pa]                                             2.94210107994716E+13
 [a.u.] -> [bar]                                            2.94210107994716E+08
 [a.u.] -> [atm]                                            2.90362800883016E+08
 [a.u.] -> [eV]                                             2.72113838565563E+01
 [a.u.] -> [Hz]                                             6.57968392072181E+15
 [a.u.] -> [1/cm] (wave numbers)                            2.19474631370540E+05
 [a.u./Bohr**2] -> [1/cm]                                   5.14048714338585E+03
 
 DBCSR| CPU Multiplication driver                                           XSMM
 DBCSR| Multrec recursion limit                                              512
 DBCSR| Multiplication stack size                                           1000
 DBCSR| Maximum elements for images                                    UNLIMITED
 DBCSR| Multiplicative factor virtual images                                   1
 DBCSR| Use multiplication densification                                       T
 DBCSR| Multiplication size stacks                                             3
 DBCSR| Use memory pool for CPU allocation                                     F
 DBCSR| Number of 3D layers                                               SINGLE
 DBCSR| Use MPI memory allocation                                              F
 DBCSR| Use RMA algorithm                                                      F
 DBCSR| Use Communication thread                                               T
 DBCSR| Communication thread load                                             87
 DBCSR| Split modifier for TAS multiplication algorithm                  1.0E+00

 BASOPT| Total number of calculations      7

 BASOPT| Content of basis combination      1
 BASOPT|     Element:   KR    Basis set:    DZVP-MOLOPT-PBE0-GTH-Q8
 BASOPT|     Element:   XE    Basis set:    DZVP-MOLOPT-PBE0-GTH-Q8
 BASOPT|     Element:   RN    Basis set:    DZVP-MOLOPT-PBE0-GTH-Q8

 BASOPT| Information at iteration number:       0
 BASOPT| Training set | Combination | Rho difference | Condition num. | Time
 BASOPT| -----------------------------------------------------------------------
 BASOPT|        1     |       1     | 0.25827934E-02 | 0.38434788E+01 |    0.013
 BASOPT|        2     |       1     | 0.13784993E-02 | 0.53255386E+01 |    0.010
 BASOPT|        3     |       1     | 0.11422458E-02 | 0.76455283E+01 |    0.017
 BASOPT|        4     |       1     | 0.10497021E+00 | 0.60644016E+02 |    0.054
 BASOPT|        5     |       1     | 0.49803744E-02 | 0.66729079E+01 |    0.016
 BASOPT|        6     |       1     | 0.27626615E-02 | 0.93408770E+01 |    0.015
 BASOPT|        7     |       1     | 0.53623869E-03 | 0.40605380E+01 |    0.010
 BASOPT| -----------------------------------------------------------------------
 BASOPT| Total residuum value: -.43944936E+03

 BASOPT| Information at iteration number:     100
 BASOPT| Training set | Combination | Rho difference | Condition num. | Time
 BASOPT| -----------------------------------------------------------------------
 BASOPT|        1     |       1     | 0.25827934E-02 | 0.38434788E+01 |    0.698
 BASOPT|        2     |       1     | 0.13784993E-02 | 0.53255386E+01 |    0.708
 BASOPT|        3     |       1     | 0.11455255E-02 | 0.69252523E+01 |    1.199
 BASOPT|        4     |       1     | 0.10502230E+00 | 0.46989751E+02 |    4.858
 BASOPT|        5     |       1     | 0.49803744E-02 | 0.66729079E+01 |    1.264
 BASOPT|        6     |       1     | 0.27626615E-02 | 0.93408770E+01 |    1.256
 BASOPT|        7     |       1     | 0.53784612E-03 | 0.35080162E+01 |    0.681
 BASOPT| -----------------------------------------------------------------------
 BASOPT| Total residuum value: -.43953684E+03

 BASOPT| Information at iteration number:     200
 BASOPT| Training set | Combination | Rho difference | Condition num. | Time
 BASOPT| -----------------------------------------------------------------------
 BASOPT|        1     |       1     | 0.21913259E-02 | 0.56855460E+01 |    1.389
 BASOPT|        2     |       1     | 0.10337297E-02 | 0.53919262E+01 |    1.431

  **** **** ******  **  PROGRAM STARTED AT               2020-12-02 20:38:43.299
 ***** ** ***  *** **   PROGRAM STARTED ON                               tcopt10
 **    ****   ******    PROGRAM STARTED BY                                hutter
 ***** **    ** ** **   PROGRAM PROCESS ID                                 19938
  **** **  *******  **  PROGRAM STARTED IN /data/hutter/GITHUB/BASIS/MOLOPT/PBE0
                                           /noble/q8

 CP2K| version string:                    CP2K version 8.0 (Development Version)
 CP2K| source code revision number:                                  git:afc71fa
 CP2K| cp2kflags: omp libint fftw3 libxc elpa parallel mpi3 scalapack xsmm spgli
 CP2K|            b sirius
 CP2K| is freely available from                            https://www.cp2k.org/
 CP2K| Program compiled at                          Tue Nov 17 10:27:14 CET 2020
 CP2K| Program compiled on                                               tcopt10
 CP2K| Program compiled for                                                local
 CP2K| Data directory path                 /data/hutter/GITHUB/CURRENT/cp2k/data
 CP2K| Input file name                                          opt-dzvp_kr8.inp

 GLOBAL| Method name                                              OPTIMIZE_BASIS
 GLOBAL| Project name                                                     molopt
 GLOBAL| Preferred FFT library                                             FFTW3
 GLOBAL| Preferred diagonalization lib.                                     ELPA
 GLOBAL| Run type                                                   ENERGY_FORCE
 GLOBAL| All-to-all communication in single precision                          F
 GLOBAL| FFTs using library dependent lengths                                  F
 GLOBAL| Global print level                                               MEDIUM
 GLOBAL| MPI I/O enabled                                                       T
 GLOBAL| Total number of message passing processes                            36
 GLOBAL| Number of threads for this process                                    1
 GLOBAL| This output is from process                                           0
 GLOBAL| CPU model name                          AMD EPYC 7401 24-Core Processor
 GLOBAL| CPUID                                                              1002

 MEMORY| system memory details [Kb]
 MEMORY|                        rank 0           min           max       average
 MEMORY| MemTotal            263987256     263987256     263987256     263987256
 MEMORY| MemFree             257645856     257645856     257645856     257645856
 MEMORY| Buffers                    32            32            32            32
 MEMORY| Cached                2701320       2701320       2701320       2701320
 MEMORY| Slab                   801488        801488        801488        801488
 MEMORY| SReclaimable           302208        302208        302208        302208
 MEMORY| MemLikelyFree       260649416     260649416     260649416     260649416


 *** Fundamental physical constants (SI units) ***

 *** Literature: B. J. Mohr and B. N. Taylor,
 ***             CODATA recommended values of the fundamental physical
 ***             constants: 2006, Web Version 5.1
 ***             http://physics.nist.gov/constants

 Speed of light in vacuum [m/s]                             2.99792458000000E+08
 Magnetic constant or permeability of vacuum [N/A**2]       1.25663706143592E-06
 Electric constant or permittivity of vacuum [F/m]          8.85418781762039E-12
 Planck constant (h) [J*s]                                  6.62606896000000E-34
 Planck constant (h-bar) [J*s]                              1.05457162825177E-34
 Elementary charge [C]                                      1.60217648700000E-19
 Electron mass [kg]                                         9.10938215000000E-31
 Electron g factor [ ]                                     -2.00231930436220E+00
 Proton mass [kg]                                           1.67262163700000E-27
 Fine-structure constant                                    7.29735253760000E-03
 Rydberg constant [1/m]                                     1.09737315685270E+07
 Avogadro constant [1/mol]                                  6.02214179000000E+23
 Boltzmann constant [J/K]                                   1.38065040000000E-23
 Atomic mass unit [kg]                                      1.66053878200000E-27
 Bohr radius [m]                                            5.29177208590000E-11

 *** Conversion factors ***

 [u] -> [a.u.]                                              1.82288848426455E+03
 [Angstrom] -> [Bohr] = [a.u.]                              1.88972613288564E+00
 [a.u.] = [Bohr] -> [Angstrom]                              5.29177208590000E-01
 [a.u.] -> [s]                                              2.41888432650478E-17
 [a.u.] -> [fs]                                             2.41888432650478E-02
 [a.u.] -> [J]                                              4.35974393937059E-18
 [a.u.] -> [N]                                              8.23872205491840E-08
 [a.u.] -> [K]                                              3.15774647902944E+05
 [a.u.] -> [kJ/mol]                                         2.62549961709828E+03
 [a.u.] -> [kcal/mol]                                       6.27509468713739E+02
 [a.u.] -> [Pa]                                             2.94210107994716E+13
 [a.u.] -> [bar]                                            2.94210107994716E+08
 [a.u.] -> [atm]                                            2.90362800883016E+08
 [a.u.] -> [eV]                                             2.72113838565563E+01
 [a.u.] -> [Hz]                                             6.57968392072181E+15
 [a.u.] -> [1/cm] (wave numbers)                            2.19474631370540E+05
 [a.u./Bohr**2] -> [1/cm]                                   5.14048714338585E+03
 
 DBCSR| CPU Multiplication driver                                           XSMM
 DBCSR| Multrec recursion limit                                              512
 DBCSR| Multiplication stack size                                           1000
 DBCSR| Maximum elements for images                                    UNLIMITED
 DBCSR| Multiplicative factor virtual images                                   1
 DBCSR| Use multiplication densification                                       T
 DBCSR| Multiplication size stacks                                             3
 DBCSR| Use memory pool for CPU allocation                                     F
 DBCSR| Number of 3D layers                                               SINGLE
 DBCSR| Use MPI memory allocation                                              F
 DBCSR| Use RMA algorithm                                                      F
 DBCSR| Use Communication thread                                               T
 DBCSR| Communication thread load                                             87
 DBCSR| Split modifier for TAS multiplication algorithm                  1.0E+00

 BASOPT| Total number of calculations      6

 BASOPT| Content of basis combination      1
 BASOPT|     Element:   KR    Basis set:    DZVP-MOLOPT-PBE0-GTH-Q8
 BASOPT|     Element:   XE    Basis set:    DZVP-MOLOPT-PBE0-GTH-Q8
 BASOPT|     Element:   RN    Basis set:    DZVP-MOLOPT-PBE0-GTH-Q8

 BASOPT| Information at iteration number:       0
 BASOPT| Training set | Combination | Rho difference | Condition num. | Time
 BASOPT| -----------------------------------------------------------------------
 BASOPT|        1     |       1     | 0.25827934E-02 | 0.38434788E+01 |    0.010
 BASOPT|        2     |       1     | 0.13784993E-02 | 0.53255386E+01 |    0.009
 BASOPT|        3     |       1     | 0.11422458E-02 | 0.76455283E+01 |    0.017
 BASOPT|        4     |       1     | 0.49803744E-02 | 0.66729079E+01 |    0.016
 BASOPT|        5     |       1     | 0.27626615E-02 | 0.93408770E+01 |    0.015
 BASOPT|        6     |       1     | 0.53623869E-03 | 0.40605380E+01 |    0.009
 BASOPT| -----------------------------------------------------------------------
 BASOPT| Total residuum value: -.30036819E+03

 BASOPT| Information at iteration number:     100
 BASOPT| Training set | Combination | Rho difference | Condition num. | Time
 BASOPT| -----------------------------------------------------------------------
 BASOPT|        1     |       1     | 0.25827934E-02 | 0.38434788E+01 |    0.706
 BASOPT|        2     |       1     | 0.13784993E-02 | 0.53255386E+01 |    0.694
 BASOPT|        3     |       1     | 0.11455255E-02 | 0.69252523E+01 |    1.229
 BASOPT|        4     |       1     | 0.49803744E-02 | 0.66729079E+01 |    1.360
 BASOPT|        5     |       1     | 0.27626615E-02 | 0.93408770E+01 |    1.341
 BASOPT|        6     |       1     | 0.53784612E-03 | 0.35080162E+01 |    0.673
 BASOPT| -----------------------------------------------------------------------
 BASOPT| Total residuum value: -.30037047E+03

 BASOPT| Information at iteration number:     200
 BASOPT| Training set | Combination | Rho difference | Condition num. | Time
 BASOPT| -----------------------------------------------------------------------
 BASOPT|        1     |       1     | 0.13305590E-02 | 0.32400288E+01 |    1.410
 BASOPT|        2     |       1     | 0.56338017E-03 | 0.46799262E+01 |    1.404
 BASOPT|        3     |       1     | 0.12206124E-02 | 0.75540340E+01 |    2.465
 BASOPT|        4     |       1     | 0.26405655E-02 | 0.58777331E+01 |    2.730
 BASOPT|        5     |       1     | 0.11649704E-02 | 0.83643130E+01 |    2.760
 BASOPT|        6     |       1     | 0.58651021E-03 | 0.38620285E+01 |    1.344
 BASOPT| -----------------------------------------------------------------------
 BASOPT| Total residuum value: -.30054655E+03

 BASOPT| Information at iteration number:     300
 BASOPT| Training set | Combination | Rho difference | Condition num. | Time
 BASOPT| -----------------------------------------------------------------------
 BASOPT|        1     |       1     | 0.12923543E-02 | 0.33778422E+01 |    2.110
 BASOPT|        2     |       1     | 0.46519446E-03 | 0.45917752E+01 |    2.090
 BASOPT|        3     |       1     | 0.10496313E-02 | 0.71080426E+01 |    3.678
 BASOPT|        4     |       1     | 0.25763745E-02 | 0.60137250E+01 |    4.079
 BASOPT|        5     |       1     | 0.98354481E-03 | 0.84761493E+01 |    4.084
 BASOPT|        6     |       1     | 0.49713392E-03 | 0.36419590E+01 |    2.009
 BASOPT| -----------------------------------------------------------------------
 BASOPT| Total residuum value: -.30057875E+03

 BASOPT| Information at iteration number:     400
 BASOPT| Training set | Combination | Rho difference | Condition num. | Time
 BASOPT| -----------------------------------------------------------------------
 BASOPT|        1     |       1     | 0.12310912E-02 | 0.32359776E+01 |    2.808
 BASOPT|        2     |       1     | 0.45763561E-03 | 0.48470419E+01 |    2.775
 BASOPT|        3     |       1     | 0.99537088E-03 | 0.70949974E+01 |    4.885
 BASOPT|        4     |       1     | 0.24649761E-02 | 0.58546204E+01 |    5.424
 BASOPT|        5     |       1     | 0.96699506E-03 | 0.90484808E+01 |    5.398
 BASOPT|        6     |       1     | 0.46675965E-03 | 0.37906682E+01 |    2.673
 BASOPT| -----------------------------------------------------------------------
 BASOPT| Total residuum value: -.30059598E+03

 BASOPT| Information at iteration number:     500
 BASOPT| Training set | Combination | Rho difference | Condition num. | Time
 BASOPT| -----------------------------------------------------------------------
 BASOPT|        1     |       1     | 0.12517057E-02 | 0.27512079E+01 |    3.508
 BASOPT|        2     |       1     | 0.35467148E-03 | 0.43614752E+01 |    3.462
 BASOPT|        3     |       1     | 0.10237101E-02 | 0.65122038E+01 |    6.091
 BASOPT|        4     |       1     | 0.25023561E-02 | 0.50578046E+01 |    6.767
 BASOPT|        5     |       1     | 0.78748488E-03 | 0.88414180E+01 |    6.721
 BASOPT|        6     |       1     | 0.48440069E-03 | 0.33979908E+01 |    3.337
 BASOPT| -----------------------------------------------------------------------
 BASOPT| Total residuum value: -.30064496E+03

 BASOPT| Information at iteration number:     600
 BASOPT| Training set | Combination | Rho difference | Condition num. | Time
 BASOPT| -----------------------------------------------------------------------
 BASOPT|        1     |       1     | 0.11905960E-02 | 0.22638813E+01 |    4.208
 BASOPT|        2     |       1     | 0.37624075E-03 | 0.40450660E+01 |    4.149
 BASOPT|        3     |       1     | 0.10774230E-02 | 0.63579659E+01 |    7.298
 BASOPT|        4     |       1     | 0.23816524E-02 | 0.44389058E+01 |    8.112
 BASOPT|        5     |       1     | 0.84245876E-03 | 0.87527345E+01 |    8.061
 BASOPT|        6     |       1     | 0.51296809E-03 | 0.33551110E+01 |    4.001
 BASOPT| -----------------------------------------------------------------------
 BASOPT| Total residuum value: -.30066719E+03

 BASOPT| Information at iteration number:     700
 BASOPT| Training set | Combination | Rho difference | Condition num. | Time
 BASOPT| -----------------------------------------------------------------------
 BASOPT|        1     |       1     | 0.11582847E-02 | 0.18223803E+01 |    4.907
 BASOPT|        2     |       1     | 0.37762034E-03 | 0.36384831E+01 |    4.837
 BASOPT|        3     |       1     | 0.11766698E-02 | 0.61199283E+01 |    8.504
 BASOPT|        4     |       1     | 0.23361840E-02 | 0.40037673E+01 |    9.454
 BASOPT|        5     |       1     | 0.85336766E-03 | 0.80919058E+01 |    9.400
 BASOPT|        6     |       1     | 0.57173616E-03 | 0.31174813E+01 |    4.665
 BASOPT| -----------------------------------------------------------------------
 BASOPT| Total residuum value: -.30065791E+03

 BASOPT| Information at iteration number:     800
 BASOPT| Training set | Combination | Rho difference | Condition num. | Time
 BASOPT| -----------------------------------------------------------------------
 BASOPT|        1     |       1     | 0.10833320E-02 | 0.15346437E+01 |    5.606
 BASOPT|        2     |       1     | 0.38252383E-03 | 0.33706660E+01 |    5.525
 BASOPT|        3     |       1     | 0.10508430E-02 | 0.61679439E+01 |    9.711
 BASOPT|        4     |       1     | 0.21682355E-02 | 0.37854985E+01 |   10.802
 BASOPT|        5     |       1     | 0.86702867E-03 | 0.74361406E+01 |   10.769
 BASOPT|        6     |       1     | 0.49646365E-03 | 0.30530498E+01 |    5.328
 BASOPT| -----------------------------------------------------------------------
 BASOPT| Total residuum value: -.30069104E+03

 BASOPT| Information at iteration number:     900
 BASOPT| Training set | Combination | Rho difference | Condition num. | Time
 BASOPT| -----------------------------------------------------------------------
 BASOPT|        1     |       1     | 0.10521192E-02 | 0.13399928E+01 |    6.304
 BASOPT|        2     |       1     | 0.43497131E-03 | 0.29115895E+01 |    6.210
 BASOPT|        3     |       1     | 0.10537944E-02 | 0.59029021E+01 |   10.916
 BASOPT|        4     |       1     | 0.21083766E-02 | 0.36705650E+01 |   12.153
 BASOPT|        5     |       1     | 0.97147153E-03 | 0.68826347E+01 |   12.164
 BASOPT|        6     |       1     | 0.50072255E-03 | 0.28508736E+01 |    5.990
 BASOPT| -----------------------------------------------------------------------
 BASOPT| Total residuum value: -.30070657E+03

 BASOPT| Information at iteration number:    1000
 BASOPT| Training set | Combination | Rho difference | Condition num. | Time
 BASOPT| -----------------------------------------------------------------------
 BASOPT|        1     |       1     | 0.94451910E-03 | 0.11190363E+01 |    7.002
 BASOPT|        2     |       1     | 0.47258237E-03 | 0.26094698E+01 |    6.896
 BASOPT|        3     |       1     | 0.10128652E-02 | 0.58683647E+01 |   12.121
 BASOPT|        4     |       1     | 0.19394587E-02 | 0.36950177E+01 |   13.503
 BASOPT|        5     |       1     | 0.10386532E-02 | 0.60883670E+01 |   13.522
 BASOPT|        6     |       1     | 0.48180154E-03 | 0.27108440E+01 |    6.650
 BASOPT| -----------------------------------------------------------------------
 BASOPT| Total residuum value: -.30071648E+03

 BASOPT| Information at iteration number:    1100
 BASOPT| Training set | Combination | Rho difference | Condition num. | Time
 BASOPT| -----------------------------------------------------------------------
 BASOPT|        1     |       1     | 0.94555463E-03 | 0.11130204E+01 |    7.700
 BASOPT|        2     |       1     | 0.41294167E-03 | 0.24564472E+01 |    7.582
 BASOPT|        3     |       1     | 0.10498594E-02 | 0.56831345E+01 |   13.325
 BASOPT|        4     |       1     | 0.19267816E-02 | 0.36668583E+01 |   14.855
 BASOPT|        5     |       1     | 0.92050688E-03 | 0.56859650E+01 |   14.864
 BASOPT|        6     |       1     | 0.50511268E-03 | 0.26950063E+01 |    7.312
 BASOPT| -----------------------------------------------------------------------
 BASOPT| Total residuum value: -.30072708E+03

 BASOPT| Information at iteration number:    1200
 BASOPT| Training set | Combination | Rho difference | Condition num. | Time
 BASOPT| -----------------------------------------------------------------------
 BASOPT|        1     |       1     | 0.87116842E-03 | 0.10625834E+01 |    8.399
 BASOPT|        2     |       1     | 0.42302209E-03 | 0.22784295E+01 |    8.267
 BASOPT|        3     |       1     | 0.10894728E-02 | 0.54462319E+01 |   14.528
 BASOPT|        4     |       1     | 0.18046627E-02 | 0.37011467E+01 |   16.207
 BASOPT|        5     |       1     | 0.94230564E-03 | 0.53300202E+01 |   16.204
 BASOPT|        6     |       1     | 0.52523284E-03 | 0.26668874E+01 |    7.971
 BASOPT| -----------------------------------------------------------------------
 BASOPT| Total residuum value: -.30074323E+03

 BASOPT| Information at iteration number:    1300
 BASOPT| Training set | Combination | Rho difference | Condition num. | Time
 BASOPT| -----------------------------------------------------------------------
 BASOPT|        1     |       1     | 0.82642041E-03 | 0.10941262E+01 |    9.099
 BASOPT|        2     |       1     | 0.45230430E-03 | 0.21628244E+01 |    8.952
 BASOPT|        3     |       1     | 0.10902276E-02 | 0.52613244E+01 |   15.732
 BASOPT|        4     |       1     | 0.17268957E-02 | 0.37497063E+01 |   17.561
 BASOPT|        5     |       1     | 0.10015587E-02 | 0.52613730E+01 |   17.545
 BASOPT|        6     |       1     | 0.52804178E-03 | 0.25881878E+01 |    8.631
 BASOPT| -----------------------------------------------------------------------
 BASOPT| Total residuum value: -.30075549E+03

 BASOPT| Information at iteration number:    1400
 BASOPT| Training set | Combination | Rho difference | Condition num. | Time
 BASOPT| -----------------------------------------------------------------------
 BASOPT|        1     |       1     | 0.71544116E-03 | 0.11310068E+01 |    9.809
 BASOPT|        2     |       1     | 0.47459951E-03 | 0.20534156E+01 |    9.636
 BASOPT|        3     |       1     | 0.11295108E-02 | 0.50827307E+01 |   16.933
 BASOPT|        4     |       1     | 0.15599291E-02 | 0.38858513E+01 |   18.939
 BASOPT|        5     |       1     | 0.10480776E-02 | 0.51822575E+01 |   18.884
 BASOPT|        6     |       1     | 0.54905816E-03 | 0.25589261E+01 |    9.291
 BASOPT| -----------------------------------------------------------------------
 BASOPT| Total residuum value: -.30076283E+03

 BASOPT| Information at iteration number:    1500
 BASOPT| Training set | Combination | Rho difference | Condition num. | Time
 BASOPT| -----------------------------------------------------------------------
 BASOPT|        1     |       1     | 0.61583025E-03 | 0.12721187E+01 |   10.520
 BASOPT|        2     |       1     | 0.42834334E-03 | 0.18609858E+01 |   10.318
 BASOPT|        3     |       1     | 0.11342028E-02 | 0.47637794E+01 |   18.129
 BASOPT|        4     |       1     | 0.13900751E-02 | 0.41026211E+01 |   20.318
 BASOPT|        5     |       1     | 0.95009470E-03 | 0.47538453E+01 |   20.223
 BASOPT|        6     |       1     | 0.55299853E-03 | 0.23992878E+01 |    9.947
 BASOPT| -----------------------------------------------------------------------
 BASOPT| Total residuum value: -.30078110E+03

 BASOPT| Information at iteration number:    1600
 BASOPT| Training set | Combination | Rho difference | Condition num. | Time
 BASOPT| -----------------------------------------------------------------------
 BASOPT|        1     |       1     | 0.55250803E-03 | 0.13132363E+01 |   11.229
 BASOPT|        2     |       1     | 0.40599761E-03 | 0.17601146E+01 |   11.000
 BASOPT|        3     |       1     | 0.11684427E-02 | 0.45981724E+01 |   19.316
 BASOPT|        4     |       1     | 0.13202692E-02 | 0.42527503E+01 |   21.698
 BASOPT|        5     |       1     | 0.90015718E-03 | 0.46227624E+01 |   21.560
 BASOPT|        6     |       1     | 0.57168115E-03 | 0.23535646E+01 |   10.599
 BASOPT| -----------------------------------------------------------------------
 BASOPT| Total residuum value: -.30079078E+03

 BASOPT| Information at iteration number:    1700
 BASOPT| Training set | Combination | Rho difference | Condition num. | Time
 BASOPT| -----------------------------------------------------------------------
 BASOPT|        1     |       1     | 0.50178644E-03 | 0.13405574E+01 |   11.939
 BASOPT|        2     |       1     | 0.38633555E-03 | 0.16848969E+01 |   11.682
 BASOPT|        3     |       1     | 0.13067231E-02 | 0.43258101E+01 |   20.500
 BASOPT|        4     |       1     | 0.12052774E-02 | 0.43495434E+01 |   23.079
 BASOPT|        5     |       1     | 0.85164484E-03 | 0.42863921E+01 |   22.895
 BASOPT|        6     |       1     | 0.64590407E-03 | 0.22762937E+01 |   11.249
 BASOPT| -----------------------------------------------------------------------
 BASOPT| Total residuum value: -.30078135E+03

 BASOPT| Information at iteration number:    1800
 BASOPT| Training set | Combination | Rho difference | Condition num. | Time
 BASOPT| -----------------------------------------------------------------------
 BASOPT|        1     |       1     | 0.40788554E-03 | 0.12847078E+01 |   12.649
 BASOPT|        2     |       1     | 0.39996695E-03 | 0.16284865E+01 |   12.365
 BASOPT|        3     |       1     | 0.14457540E-02 | 0.38856682E+01 |   21.682
 BASOPT|        4     |       1     | 0.10931608E-02 | 0.46285495E+01 |   24.460
 BASOPT|        5     |       1     | 0.86628843E-03 | 0.40908474E+01 |   24.229
 BASOPT|        6     |       1     | 0.72132946E-03 | 0.21224534E+01 |   11.900
 BASOPT| -----------------------------------------------------------------------
 BASOPT| Total residuum value: -.30082459E+03

 BASOPT| Information at iteration number:    1900
 BASOPT| Training set | Combination | Rho difference | Condition num. | Time
 BASOPT| -----------------------------------------------------------------------
 BASOPT|        1     |       1     | 0.36641345E-03 | 0.12693098E+01 |   13.359
 BASOPT|        2     |       1     | 0.39411702E-03 | 0.15147146E+01 |   13.047
 BASOPT|        3     |       1     | 0.15566640E-02 | 0.36534076E+01 |   22.865
 BASOPT|        4     |       1     | 0.98876238E-03 | 0.48145432E+01 |   25.846
 BASOPT|        5     |       1     | 0.85747309E-03 | 0.42295301E+01 |   25.561
 BASOPT|        6     |       1     | 0.77874295E-03 | 0.20334644E+01 |   12.552
 BASOPT| -----------------------------------------------------------------------
 BASOPT| Total residuum value: -.30084468E+03

 BASOPT| Information at iteration number:    2000
 BASOPT| Training set | Combination | Rho difference | Condition num. | Time
 BASOPT| -----------------------------------------------------------------------
 BASOPT|        1     |       1     | 0.33107342E-03 | 0.12940178E+01 |   14.069
 BASOPT|        2     |       1     | 0.41960416E-03 | 0.14571810E+01 |   13.727
 BASOPT|        3     |       1     | 0.15611132E-02 | 0.35466904E+01 |   24.046
 BASOPT|        4     |       1     | 0.10087072E-02 | 0.51669440E+01 |   27.253
 BASOPT|        5     |       1     | 0.89725023E-03 | 0.41540309E+01 |   26.892
 BASOPT|        6     |       1     | 0.78178763E-03 | 0.19781490E+01 |   13.203
 BASOPT| -----------------------------------------------------------------------
 BASOPT| Total residuum value: -.30084926E+03

 BASOPT| Information at iteration number:    2100
 BASOPT| Training set | Combination | Rho difference | Condition num. | Time
 BASOPT| -----------------------------------------------------------------------
 BASOPT|        1     |       1     | 0.32618665E-03 | 0.12874068E+01 |   14.780
 BASOPT|        2     |       1     | 0.44007808E-03 | 0.15355552E+01 |   14.408
 BASOPT|        3     |       1     | 0.15313143E-02 | 0.35083917E+01 |   25.229
 BASOPT|        4     |       1     | 0.93719687E-03 | 0.50578454E+01 |   28.676
 BASOPT|        5     |       1     | 0.93512865E-03 | 0.42131838E+01 |   28.223
 BASOPT|        6     |       1     | 0.76723450E-03 | 0.19450397E+01 |   13.855
 BASOPT| -----------------------------------------------------------------------
 BASOPT| Total residuum value: -.30085203E+03

 BASOPT| Information at iteration number:    2200
 BASOPT| Training set | Combination | Rho difference | Condition num. | Time
 BASOPT| -----------------------------------------------------------------------
 BASOPT|        1     |       1     | 0.25812689E-03 | 0.13300842E+01 |   15.488
 BASOPT|        2     |       1     | 0.42855243E-03 | 0.16019866E+01 |   15.089
 BASOPT|        3     |       1     | 0.15006834E-02 | 0.34291490E+01 |   26.411
 BASOPT|        4     |       1     | 0.78668594E-03 | 0.53234167E+01 |   30.099
 BASOPT|        5     |       1     | 0.91439798E-03 | 0.43311197E+01 |   29.544
 BASOPT|        6     |       1     | 0.74838881E-03 | 0.18724401E+01 |   14.506
 BASOPT| -----------------------------------------------------------------------
 BASOPT| Total residuum value: -.30087557E+03

 BASOPT| Information at iteration number:    2300
 BASOPT| Training set | Combination | Rho difference | Condition num. | Time
 BASOPT| -----------------------------------------------------------------------
 BASOPT|        1     |       1     | 0.26099679E-03 | 0.13452972E+01 |   16.196
 BASOPT|        2     |       1     | 0.41754608E-03 | 0.15285768E+01 |   15.770
 BASOPT|        3     |       1     | 0.15296591E-02 | 0.33749025E+01 |   27.594
 BASOPT|        4     |       1     | 0.79224861E-03 | 0.53766029E+01 |   31.530
 BASOPT|        5     |       1     | 0.89812275E-03 | 0.42687497E+01 |   30.865
 BASOPT|        6     |       1     | 0.76468036E-03 | 0.18517057E+01 |   15.158
 BASOPT| -----------------------------------------------------------------------
 BASOPT| Total residuum value: -.30088145E+03

 BASOPT| Information at iteration number:    2400
 BASOPT| Training set | Combination | Rho difference | Condition num. | Time
 BASOPT| -----------------------------------------------------------------------
 BASOPT|        1     |       1     | 0.24501445E-03 | 0.13260470E+01 |   16.904
 BASOPT|        2     |       1     | 0.41014915E-03 | 0.14397723E+01 |   16.452
 BASOPT|        3     |       1     | 0.15488291E-02 | 0.33359272E+01 |   28.776
 BASOPT|        4     |       1     | 0.73172878E-03 | 0.54417293E+01 |   32.978
 BASOPT|        5     |       1     | 0.89222271E-03 | 0.42883075E+01 |   32.184
 BASOPT|        6     |       1     | 0.77483814E-03 | 0.18435053E+01 |   15.810
 BASOPT| -----------------------------------------------------------------------
 BASOPT| Total residuum value: -.30089060E+03

 BASOPT| Information at iteration number:    2500
 BASOPT| Training set | Combination | Rho difference | Condition num. | Time
 BASOPT| -----------------------------------------------------------------------
 BASOPT|        1     |       1     | 0.25296097E-03 | 0.12918536E+01 |   17.611
 BASOPT|        2     |       1     | 0.39539453E-03 | 0.13489049E+01 |   17.135
 BASOPT|        3     |       1     | 0.15668888E-02 | 0.33147008E+01 |   29.959
 BASOPT|        4     |       1     | 0.71195501E-03 | 0.54481777E+01 |   34.465
 BASOPT|        5     |       1     | 0.86392756E-03 | 0.41288794E+01 |   33.504
 BASOPT|        6     |       1     | 0.78320316E-03 | 0.18699101E+01 |   16.463
 BASOPT| -----------------------------------------------------------------------
 BASOPT| Total residuum value: -.30089520E+03

 BASOPT| Information at iteration number:    2600
 BASOPT| Training set | Combination | Rho difference | Condition num. | Time
 BASOPT| -----------------------------------------------------------------------
 BASOPT|        1     |       1     | 0.21720223E-03 | 0.12768879E+01 |   18.319
 BASOPT|        2     |       1     | 0.38955125E-03 | 0.12896733E+01 |   17.816
 BASOPT|        3     |       1     | 0.15604573E-02 | 0.32625169E+01 |   31.141
 BASOPT|        4     |       1     | 0.66221722E-03 | 0.56142869E+01 |   35.969
 BASOPT|        5     |       1     | 0.84932126E-03 | 0.40392645E+01 |   34.824
 BASOPT|        6     |       1     | 0.77919341E-03 | 0.18244502E+01 |   17.115
 BASOPT| -----------------------------------------------------------------------
 BASOPT| Total residuum value: -.30090147E+03

 BASOPT| Information at iteration number:    2700
 BASOPT| Training set | Combination | Rho difference | Condition num. | Time
 BASOPT| -----------------------------------------------------------------------
 BASOPT|        1     |       1     | 0.12247760E-03 | 0.12727347E+01 |   19.031
 BASOPT|        2     |       1     | 0.41603791E-03 | 0.11685723E+01 |   18.499
 BASOPT|        3     |       1     | 0.15516235E-02 | 0.32977736E+01 |   32.323
 BASOPT|        4     |       1     | 0.49050048E-03 | 0.62136395E+01 |   37.475
 BASOPT|        5     |       1     | 0.89964181E-03 | 0.39338662E+01 |   36.142
 BASOPT|        6     |       1     | 0.77740761E-03 | 0.18273972E+01 |   17.769
 BASOPT| -----------------------------------------------------------------------
 BASOPT| Total residuum value: -.30091731E+03

 BASOPT| Information at iteration number:    2800
 BASOPT| Training set | Combination | Rho difference | Condition num. | Time
 BASOPT| -----------------------------------------------------------------------
 BASOPT|        1     |       1     | 0.15588173E-03 | 0.12705133E+01 |   19.751
 BASOPT|        2     |       1     | 0.41559996E-03 | 0.11584723E+01 |   19.182
 BASOPT|        3     |       1     | 0.16514085E-02 | 0.32118772E+01 |   33.506
 BASOPT|        4     |       1     | 0.67930125E-03 | 0.66507507E+01 |   38.993
 BASOPT|        5     |       1     | 0.90174634E-03 | 0.38340695E+01 |   37.462
 BASOPT|        6     |       1     | 0.82714887E-03 | 0.18331689E+01 |   18.421
 BASOPT| -----------------------------------------------------------------------
 BASOPT| Total residuum value: -.30090733E+03

 BASOPT| Information at iteration number:    2900
 BASOPT| Training set | Combination | Rho difference | Condition num. | Time
 BASOPT| -----------------------------------------------------------------------
 BASOPT|        1     |       1     | 0.40930752E-04 | 0.12832463E+01 |   20.481
 BASOPT|        2     |       1     | 0.38904935E-03 | 0.11326113E+01 |   19.865
 BASOPT|        3     |       1     | 0.17045442E-02 | 0.31659943E+01 |   34.688
 BASOPT|        4     |       1     | 0.43238316E-03 | 0.70748519E+01 |   40.532
 BASOPT|        5     |       1     | 0.83659000E-03 | 0.37337195E+01 |   38.781
 BASOPT|        6     |       1     | 0.85172334E-03 | 0.18375512E+01 |   19.074
 BASOPT| -----------------------------------------------------------------------
 BASOPT| Total residuum value: -.30092881E+03

 BASOPT| Information at iteration number:    3000
 BASOPT| Training set | Combination | Rho difference | Condition num. | Time
 BASOPT| -----------------------------------------------------------------------
 BASOPT|        1     |       1     | 0.53311621E-04 | 0.12245181E+01 |   21.208
 BASOPT|        2     |       1     | 0.39340612E-03 | 0.11122517E+01 |   20.546
 BASOPT|        3     |       1     | 0.16101154E-02 | 0.31721653E+01 |   35.871
 BASOPT|        4     |       1     | 0.44328435E-03 | 0.71481905E+01 |   42.072
 BASOPT|        5     |       1     | 0.84556280E-03 | 0.37030228E+01 |   40.101
 BASOPT|        6     |       1     | 0.80448084E-03 | 0.17912305E+01 |   19.727
 BASOPT| -----------------------------------------------------------------------
 BASOPT| Total residuum value: -.30093099E+03

 BASOPT| Information at iteration number:    3100
 BASOPT| Training set | Combination | Rho difference | Condition num. | Time
 BASOPT| -----------------------------------------------------------------------
 BASOPT|        1     |       1     | 0.12603600E-03 | 0.12021698E+01 |   21.940
 BASOPT|        2     |       1     | 0.38974593E-03 | 0.11385821E+01 |   21.229
 BASOPT|        3     |       1     | 0.16716684E-02 | 0.31656944E+01 |   37.054
 BASOPT|        4     |       1     | 0.46973791E-03 | 0.67330301E+01 |   43.612
 BASOPT|        5     |       1     | 0.84092792E-03 | 0.35966928E+01 |   41.421
 BASOPT|        6     |       1     | 0.83560536E-03 | 0.18235711E+01 |   20.381
 BASOPT| -----------------------------------------------------------------------
 BASOPT| Total residuum value: -.30092632E+03

 BASOPT| Information at iteration number:    3200
 BASOPT| Training set | Combination | Rho difference | Condition num. | Time
 BASOPT| -----------------------------------------------------------------------
 BASOPT|        1     |       1     | 0.68091015E-04 | 0.11543205E+01 |   22.669
 BASOPT|        2     |       1     | 0.40526057E-03 | 0.11138197E+01 |   21.912
 BASOPT|        3     |       1     | 0.16809206E-02 | 0.31268452E+01 |   38.236
 BASOPT|        4     |       1     | 0.42224905E-03 | 0.67206353E+01 |   45.153
 BASOPT|        5     |       1     | 0.86883622E-03 | 0.36743917E+01 |   42.742
 BASOPT|        6     |       1     | 0.84269673E-03 | 0.17891343E+01 |   21.034
 BASOPT| -----------------------------------------------------------------------
 BASOPT| Total residuum value: -.30093827E+03

 BASOPT| Information at iteration number:    3300
 BASOPT| Training set | Combination | Rho difference | Condition num. | Time
 BASOPT| -----------------------------------------------------------------------
 BASOPT|        1     |       1     | 0.62507368E-04 | 0.11652982E+01 |   23.399
 BASOPT|        2     |       1     | 0.39996181E-03 | 0.11149141E+01 |   22.596
 BASOPT|        3     |       1     | 0.17139654E-02 | 0.31140326E+01 |   39.419
 BASOPT|        4     |       1     | 0.43088170E-03 | 0.67571501E+01 |   46.693
 BASOPT|        5     |       1     | 0.86203812E-03 | 0.36135693E+01 |   44.065
 BASOPT|        6     |       1     | 0.85961490E-03 | 0.17944249E+01 |   21.688
 BASOPT| -----------------------------------------------------------------------
 BASOPT| Total residuum value: -.30093815E+03

 BASOPT| Information at iteration number:    3400
 BASOPT| Training set | Combination | Rho difference | Condition num. | Time
 BASOPT| -----------------------------------------------------------------------
 BASOPT|        1     |       1     | 0.43140645E-04 | 0.11516995E+01 |   24.126
 BASOPT|        2     |       1     | 0.41060481E-03 | 0.11209037E+01 |   23.279
 BASOPT|        3     |       1     | 0.16670068E-02 | 0.31764826E+01 |   40.601
 BASOPT|        4     |       1     | 0.41345927E-03 | 0.69414827E+01 |   48.232
 BASOPT|        5     |       1     | 0.88145698E-03 | 0.35768902E+01 |   45.395
 BASOPT|        6     |       1     | 0.83445416E-03 | 0.18201425E+01 |   22.342
 BASOPT| -----------------------------------------------------------------------
 BASOPT| Total residuum value: -.30094307E+03

 BASOPT| Information at iteration number:    3500
 BASOPT| Training set | Combination | Rho difference | Condition num. | Time
 BASOPT| -----------------------------------------------------------------------
 BASOPT|        1     |       1     | 0.51335254E-04 | 0.11343277E+01 |   24.854
 BASOPT|        2     |       1     | 0.41179284E-03 | 0.11279048E+01 |   23.962
 BASOPT|        3     |       1     | 0.16452194E-02 | 0.32062363E+01 |   41.783
 BASOPT|        4     |       1     | 0.40829424E-03 | 0.67992328E+01 |   49.772
 BASOPT|        5     |       1     | 0.88286063E-03 | 0.36450573E+01 |   46.724
 BASOPT|        6     |       1     | 0.82321981E-03 | 0.18344494E+01 |   22.995
 BASOPT| -----------------------------------------------------------------------
 BASOPT| Total residuum value: -.30094461E+03

 BASOPT| Information at iteration number:    3600
 BASOPT| Training set | Combination | Rho difference | Condition num. | Time
 BASOPT| -----------------------------------------------------------------------
 BASOPT|        1     |       1     | 0.46962970E-04 | 0.10917088E+01 |   25.583
 BASOPT|        2     |       1     | 0.40673701E-03 | 0.11349738E+01 |   24.644
 BASOPT|        3     |       1     | 0.16285739E-02 | 0.32668336E+01 |   42.966
 BASOPT|        4     |       1     | 0.40112817E-03 | 0.65363082E+01 |   51.312
 BASOPT|        5     |       1     | 0.87465868E-03 | 0.37143966E+01 |   48.054
 BASOPT|        6     |       1     | 0.81504773E-03 | 0.18617754E+01 |   23.649
 BASOPT| -----------------------------------------------------------------------
 BASOPT| Total residuum value: -.30094723E+03

 BASOPT| Information at iteration number:    3700
 BASOPT| Training set | Combination | Rho difference | Condition num. | Time
 BASOPT| -----------------------------------------------------------------------
 BASOPT|        1     |       1     | 0.48529401E-04 | 0.10383577E+01 |   26.310
 BASOPT|        2     |       1     | 0.40143418E-03 | 0.11451063E+01 |   25.328
 BASOPT|        3     |       1     | 0.16554239E-02 | 0.33035717E+01 |   44.149
 BASOPT|        4     |       1     | 0.40689909E-03 | 0.62797625E+01 |   52.846
 BASOPT|        5     |       1     | 0.86473626E-03 | 0.38095102E+01 |   49.385
 BASOPT|        6     |       1     | 0.82939603E-03 | 0.18992713E+01 |   24.303
 BASOPT| -----------------------------------------------------------------------
 BASOPT| Total residuum value: -.30095046E+03

 BASOPT| Information at iteration number:    3800
 BASOPT| Training set | Combination | Rho difference | Condition num. | Time
 BASOPT| -----------------------------------------------------------------------
 BASOPT|        1     |       1     | 0.43778437E-04 | 0.10063748E+01 |   27.025
 BASOPT|        2     |       1     | 0.41250367E-03 | 0.11513360E+01 |   26.012
 BASOPT|        3     |       1     | 0.16710588E-02 | 0.33320503E+01 |   45.330
 BASOPT|        4     |       1     | 0.41532035E-03 | 0.62580544E+01 |   54.358
 BASOPT|        5     |       1     | 0.88368630E-03 | 0.37861005E+01 |   50.715
 BASOPT|        6     |       1     | 0.83748597E-03 | 0.19230520E+01 |   24.958
 BASOPT| -----------------------------------------------------------------------
 BASOPT| Total residuum value: -.30095367E+03

 BASOPT| Information at iteration number:    3900
 BASOPT| Training set | Combination | Rho difference | Condition num. | Time
 BASOPT| -----------------------------------------------------------------------
 BASOPT|        1     |       1     | 0.42357556E-04 | 0.10312207E+01 |   27.747
 BASOPT|        2     |       1     | 0.42277943E-03 | 0.11362204E+01 |   26.696
 BASOPT|        3     |       1     | 0.16923138E-02 | 0.33350264E+01 |   46.512
 BASOPT|        4     |       1     | 0.39728901E-03 | 0.62974304E+01 |   55.882
 BASOPT|        5     |       1     | 0.90139699E-03 | 0.37229785E+01 |   52.046
 BASOPT|        6     |       1     | 0.84945100E-03 | 0.19360073E+01 |   25.612
 BASOPT| -----------------------------------------------------------------------
 BASOPT| Total residuum value: -.30095600E+03

 BASOPT| Information at iteration number:    4000
 BASOPT| Training set | Combination | Rho difference | Condition num. | Time
 BASOPT| -----------------------------------------------------------------------
 BASOPT|        1     |       1     | 0.35767762E-04 | 0.10440254E+01 |   28.475
 BASOPT|        2     |       1     | 0.44728536E-03 | 0.11360048E+01 |   27.379
 BASOPT|        3     |       1     | 0.17126396E-02 | 0.33181710E+01 |   47.694
 BASOPT|        4     |       1     | 0.38566109E-03 | 0.64173561E+01 |   57.421
 BASOPT|        5     |       1     | 0.94229926E-03 | 0.37020557E+01 |   53.375
 BASOPT|        6     |       1     | 0.85985022E-03 | 0.19353276E+01 |   26.266
 BASOPT| -----------------------------------------------------------------------
 BASOPT| Total residuum value: -.30095786E+03

 BASOPT| Information at iteration number:    4100
 BASOPT| Training set | Combination | Rho difference | Condition num. | Time
 BASOPT| -----------------------------------------------------------------------
 BASOPT|        1     |       1     | 0.35714448E-04 | 0.10505490E+01 |   29.204
 BASOPT|        2     |       1     | 0.43993177E-03 | 0.11280429E+01 |   28.063
 BASOPT|        3     |       1     | 0.16983144E-02 | 0.33012792E+01 |   48.876
 BASOPT|        4     |       1     | 0.39137622E-03 | 0.64439861E+01 |   58.959
 BASOPT|        5     |       1     | 0.92944347E-03 | 0.36683962E+01 |   54.706
 BASOPT|        6     |       1     | 0.85205461E-03 | 0.19199082E+01 |   26.919
 BASOPT| -----------------------------------------------------------------------
 BASOPT| Total residuum value: -.30095965E+03

 BASOPT| Information at iteration number:    4200
 BASOPT| Training set | Combination | Rho difference | Condition num. | Time
 BASOPT| -----------------------------------------------------------------------
 BASOPT|        1     |       1     | 0.38779114E-04 | 0.10740898E+01 |   29.932
 BASOPT|        2     |       1     | 0.43726712E-03 | 0.11314488E+01 |   28.747
 BASOPT|        3     |       1     | 0.17374295E-02 | 0.32476729E+01 |   50.056
 BASOPT|        4     |       1     | 0.38259876E-03 | 0.63935383E+01 |   60.499
 BASOPT|        5     |       1     | 0.92373373E-03 | 0.36233655E+01 |   56.037
 BASOPT|        6     |       1     | 0.87236484E-03 | 0.19038625E+01 |   27.573
 BASOPT| -----------------------------------------------------------------------
 BASOPT| Total residuum value: -.30096272E+03

 BASOPT| Information at iteration number:    4300
 BASOPT| Training set | Combination | Rho difference | Condition num. | Time
 BASOPT| -----------------------------------------------------------------------
 BASOPT|        1     |       1     | 0.35403759E-04 | 0.10607973E+01 |   30.660
 BASOPT|        2     |       1     | 0.43081546E-03 | 0.11190058E+01 |   29.432
 BASOPT|        3     |       1     | 0.17727084E-02 | 0.32118208E+01 |   51.237
 BASOPT|        4     |       1     | 0.38528371E-03 | 0.64391070E+01 |   62.037
 BASOPT|        5     |       1     | 0.91259860E-03 | 0.35624966E+01 |   57.369
 BASOPT|        6     |       1     | 0.89091981E-03 | 0.19004801E+01 |   28.227
 BASOPT| -----------------------------------------------------------------------
 BASOPT| Total residuum value: -.30096512E+03

 BASOPT| Information at iteration number:    4400
 BASOPT| Training set | Combination | Rho difference | Condition num. | Time
 BASOPT| -----------------------------------------------------------------------
 BASOPT|        1     |       1     | 0.42424783E-04 | 0.10614199E+01 |   31.389
 BASOPT|        2     |       1     | 0.42959862E-03 | 0.11097882E+01 |   30.116
 BASOPT|        3     |       1     | 0.18058502E-02 | 0.31829543E+01 |   52.419
 BASOPT|        4     |       1     | 0.38176290E-03 | 0.63641163E+01 |   63.575
 BASOPT|        5     |       1     | 0.90603403E-03 | 0.34884306E+01 |   58.700
 BASOPT|        6     |       1     | 0.90848086E-03 | 0.18969452E+01 |   28.881
 BASOPT| -----------------------------------------------------------------------
 BASOPT| Total residuum value: -.30096692E+03

 BASOPT| Information at iteration number:    4500
 BASOPT| Training set | Combination | Rho difference | Condition num. | Time
 BASOPT| -----------------------------------------------------------------------
 BASOPT|        1     |       1     | 0.40140337E-04 | 0.10435754E+01 |   32.116
 BASOPT|        2     |       1     | 0.43688503E-03 | 0.10922946E+01 |   30.800
 BASOPT|        3     |       1     | 0.18330015E-02 | 0.31496928E+01 |   53.600
 BASOPT|        4     |       1     | 0.38471867E-03 | 0.63666832E+01 |   65.109
 BASOPT|        5     |       1     | 0.92088176E-03 | 0.34528229E+01 |   60.032
 BASOPT|        6     |       1     | 0.92249511E-03 | 0.18871138E+01 |   29.535
 BASOPT| -----------------------------------------------------------------------
 BASOPT| Total residuum value: -.30096871E+03

 BASOPT| Information at iteration number:    4600
 BASOPT| Training set | Combination | Rho difference | Condition num. | Time
 BASOPT| -----------------------------------------------------------------------
 BASOPT|        1     |       1     | 0.53881879E-04 | 0.10495438E+01 |   32.833
 BASOPT|        2     |       1     | 0.43525609E-03 | 0.10701048E+01 |   31.484
 BASOPT|        3     |       1     | 0.18853780E-02 | 0.30868046E+01 |   54.783
 BASOPT|        4     |       1     | 0.39340201E-03 | 0.62431760E+01 |   66.620
 BASOPT|        5     |       1     | 0.91713515E-03 | 0.33938831E+01 |   61.364
 BASOPT|        6     |       1     | 0.94984974E-03 | 0.18641243E+01 |   30.190
 BASOPT| -----------------------------------------------------------------------
 BASOPT| Total residuum value: -.30097086E+03

 BASOPT| Information at iteration number:    4700
 BASOPT| Training set | Combination | Rho difference | Condition num. | Time
 BASOPT| -----------------------------------------------------------------------
 BASOPT|        1     |       1     | 0.41724589E-04 | 0.10360291E+01 |   33.548
 BASOPT|        2     |       1     | 0.43619468E-03 | 0.10600666E+01 |   32.169
 BASOPT|        3     |       1     | 0.18664990E-02 | 0.30592008E+01 |   55.965
 BASOPT|        4     |       1     | 0.39846539E-03 | 0.63256856E+01 |   68.130
 BASOPT|        5     |       1     | 0.91957362E-03 | 0.33792246E+01 |   62.696
 BASOPT|        6     |       1     | 0.94006242E-03 | 0.18398380E+01 |   30.844
 BASOPT| -----------------------------------------------------------------------
 BASOPT| Total residuum value: -.30097265E+03

 BASOPT| Information at iteration number:    4800
 BASOPT| Training set | Combination | Rho difference | Condition num. | Time
 BASOPT| -----------------------------------------------------------------------
 BASOPT|        1     |       1     | 0.46297725E-04 | 0.10448094E+01 |   34.265
 BASOPT|        2     |       1     | 0.44191640E-03 | 0.10483872E+01 |   32.854
 BASOPT|        3     |       1     | 0.18782589E-02 | 0.30295627E+01 |   57.147
 BASOPT|        4     |       1     | 0.38099224E-03 | 0.62966101E+01 |   69.639
 BASOPT|        5     |       1     | 0.93019176E-03 | 0.33979455E+01 |   64.028
 BASOPT|        6     |       1     | 0.94582037E-03 | 0.18221876E+01 |   31.500
 BASOPT| -----------------------------------------------------------------------
 BASOPT| Total residuum value: -.30097422E+03

 BASOPT| Information at iteration number:    4900
 BASOPT| Training set | Combination | Rho difference | Condition num. | Time
 BASOPT| -----------------------------------------------------------------------
 BASOPT|        1     |       1     | 0.42610281E-04 | 0.10342718E+01 |   34.981
 BASOPT|        2     |       1     | 0.44810301E-03 | 0.10449695E+01 |   33.538
 BASOPT|        3     |       1     | 0.19139321E-02 | 0.29372042E+01 |   58.328
 BASOPT|        4     |       1     | 0.38867499E-03 | 0.63809667E+01 |   71.147
 BASOPT|        5     |       1     | 0.94212041E-03 | 0.33633211E+01 |   65.360
 BASOPT|        6     |       1     | 0.96339839E-03 | 0.17654258E+01 |   32.155
 BASOPT| -----------------------------------------------------------------------
 BASOPT| Total residuum value: -.30097730E+03

 BASOPT| Information at iteration number:    5000
 BASOPT| Training set | Combination | Rho difference | Condition num. | Time
 BASOPT| -----------------------------------------------------------------------
 BASOPT|        1     |       1     | 0.45133691E-04 | 0.10192382E+01 |   35.697
 BASOPT|        2     |       1     | 0.44771564E-03 | 0.10564802E+01 |   34.223
 BASOPT|        3     |       1     | 0.19529989E-02 | 0.28696309E+01 |   59.510
 BASOPT|        4     |       1     | 0.39385141E-03 | 0.64551527E+01 |   72.655
 BASOPT|        5     |       1     | 0.93878286E-03 | 0.33094516E+01 |   66.692
 BASOPT|        6     |       1     | 0.98365027E-03 | 0.17324559E+01 |   32.810
 BASOPT| -----------------------------------------------------------------------
 BASOPT| Total residuum value: -.30097929E+03

 BASOPT| Information at iteration number:    5100
 BASOPT| Training set | Combination | Rho difference | Condition num. | Time
 BASOPT| -----------------------------------------------------------------------
 BASOPT|        1     |       1     | 0.41397306E-04 | 0.10121724E+01 |   36.414
 BASOPT|        2     |       1     | 0.45082458E-03 | 0.10391557E+01 |   34.908
 BASOPT|        3     |       1     | 0.19715300E-02 | 0.28358764E+01 |   60.691
 BASOPT|        4     |       1     | 0.37818049E-03 | 0.65270277E+01 |   74.164
 BASOPT|        5     |       1     | 0.94265104E-03 | 0.32970333E+01 |   68.023
 BASOPT|        6     |       1     | 0.99327353E-03 | 0.17081577E+01 |   33.466
 BASOPT| -----------------------------------------------------------------------
 BASOPT| Total residuum value: -.30098080E+03

 BASOPT| Information at iteration number:    5200
 BASOPT| Training set | Combination | Rho difference | Condition num. | Time
 BASOPT| -----------------------------------------------------------------------
 BASOPT|        1     |       1     | 0.44514324E-04 | 0.10121086E+01 |   37.128
 BASOPT|        2     |       1     | 0.44850724E-03 | 0.10091085E+01 |   35.592
 BASOPT|        3     |       1     | 0.20038909E-02 | 0.27925661E+01 |   61.873
 BASOPT|        4     |       1     | 0.38516764E-03 | 0.65324723E+01 |   75.674
 BASOPT|        5     |       1     | 0.93717925E-03 | 0.32603445E+01 |   69.347
 BASOPT|        6     |       1     | 0.10101021E-02 | 0.16789517E+01 |   34.121
 BASOPT| -----------------------------------------------------------------------
 BASOPT| Total residuum value: -.30098260E+03

 BASOPT| Information at iteration number:    5300
 BASOPT| Training set | Combination | Rho difference | Condition num. | Time
 BASOPT| -----------------------------------------------------------------------
 BASOPT|        1     |       1     | 0.43682522E-04 | 0.10074195E+01 |   37.842
 BASOPT|        2     |       1     | 0.45097549E-03 | 0.10069239E+01 |   36.277
 BASOPT|        3     |       1     | 0.20065617E-02 | 0.27858332E+01 |   63.056
 BASOPT|        4     |       1     | 0.36496410E-03 | 0.64904514E+01 |   77.185
 BASOPT|        5     |       1     | 0.94287079E-03 | 0.32554452E+01 |   70.668
 BASOPT|        6     |       1     | 0.10112889E-02 | 0.16695212E+01 |   34.777
 BASOPT| -----------------------------------------------------------------------
 BASOPT| Total residuum value: -.30098314E+03

 BASOPT| Information at iteration number:    5400
 BASOPT| Training set | Combination | Rho difference | Condition num. | Time
 BASOPT| -----------------------------------------------------------------------
 BASOPT|        1     |       1     | 0.39379172E-04 | 0.10086295E+01 |   38.557
 BASOPT|        2     |       1     | 0.45858627E-03 | 0.10164888E+01 |   36.961
 BASOPT|        3     |       1     | 0.20359225E-02 | 0.27279024E+01 |   64.239
 BASOPT|        4     |       1     | 0.37061402E-03 | 0.64927629E+01 |   78.696
 BASOPT|        5     |       1     | 0.95510158E-03 | 0.32243111E+01 |   71.990
 BASOPT|        6     |       1     | 0.10260043E-02 | 0.16304417E+01 |   35.432
 BASOPT| -----------------------------------------------------------------------
 BASOPT| Total residuum value: -.30098533E+03

 BASOPT| Information at iteration number:    5500
 BASOPT| Training set | Combination | Rho difference | Condition num. | Time
 BASOPT| -----------------------------------------------------------------------
 BASOPT|        1     |       1     | 0.37208280E-04 | 0.10112402E+01 |   39.273
 BASOPT|        2     |       1     | 0.47538611E-03 | 0.10207342E+01 |   37.647
 BASOPT|        3     |       1     | 0.20762097E-02 | 0.25968370E+01 |   65.421
 BASOPT|        4     |       1     | 0.36158706E-03 | 0.64084089E+01 |   80.207
 BASOPT|        5     |       1     | 0.98486368E-03 | 0.30984129E+01 |   73.312
 BASOPT|        6     |       1     | 0.10453916E-02 | 0.15175704E+01 |   36.088
 BASOPT| -----------------------------------------------------------------------
 BASOPT| Total residuum value: -.30098987E+03

 BASOPT| Information at iteration number:    5600
 BASOPT| Training set | Combination | Rho difference | Condition num. | Time
 BASOPT| -----------------------------------------------------------------------
 BASOPT|        1     |       1     | 0.34263134E-04 | 0.10039012E+01 |   39.986
 BASOPT|        2     |       1     | 0.47090343E-03 | 0.10134281E+01 |   38.332
 BASOPT|        3     |       1     | 0.20742387E-02 | 0.25632811E+01 |   66.603
 BASOPT|        4     |       1     | 0.35339856E-03 | 0.63789992E+01 |   81.719
 BASOPT|        5     |       1     | 0.97315851E-03 | 0.30596802E+01 |   74.633
 BASOPT|        6     |       1     | 0.10434085E-02 | 0.14828553E+01 |   36.745
 BASOPT| -----------------------------------------------------------------------
 BASOPT| Total residuum value: -.30099132E+03

 BASOPT| Information at iteration number:    5700
 BASOPT| Training set | Combination | Rho difference | Condition num. | Time
 BASOPT| -----------------------------------------------------------------------
 BASOPT|        1     |       1     | 0.40513110E-04 | 0.10052464E+01 |   40.701
 BASOPT|        2     |       1     | 0.47018494E-03 | 0.10115391E+01 |   39.016
 BASOPT|        3     |       1     | 0.20786267E-02 | 0.25531334E+01 |   67.785
 BASOPT|        4     |       1     | 0.35423427E-03 | 0.63296132E+01 |   83.230
 BASOPT|        5     |       1     | 0.97317200E-03 | 0.30577858E+01 |   75.955
 BASOPT|        6     |       1     | 0.10454224E-02 | 0.14817080E+01 |   37.401
 BASOPT| -----------------------------------------------------------------------
 BASOPT| Total residuum value: -.30099130E+03

 BASOPT| Information at iteration number:    5800
 BASOPT| Training set | Combination | Rho difference | Condition num. | Time
 BASOPT| -----------------------------------------------------------------------
 BASOPT|        1     |       1     | 0.36314009E-04 | 0.10033533E+01 |   41.418
 BASOPT|        2     |       1     | 0.47108441E-03 | 0.10061935E+01 |   39.702
 BASOPT|        3     |       1     | 0.20589786E-02 | 0.25505842E+01 |   68.967
 BASOPT|        4     |       1     | 0.35456098E-03 | 0.63089537E+01 |   84.740
 BASOPT|        5     |       1     | 0.97468456E-03 | 0.30454149E+01 |   77.277
 BASOPT|        6     |       1     | 0.10354228E-02 | 0.14834704E+01 |   38.057
 BASOPT| -----------------------------------------------------------------------
 BASOPT| Total residuum value: -.30099180E+03

 BASOPT| Information at iteration number:    5900
 BASOPT| Training set | Combination | Rho difference | Condition num. | Time
 BASOPT| -----------------------------------------------------------------------
 BASOPT|        1     |       1     | 0.36087710E-04 | 0.10015460E+01 |   42.132
 BASOPT|        2     |       1     | 0.46685169E-03 | 0.10055050E+01 |   40.386
 BASOPT|        3     |       1     | 0.20649505E-02 | 0.25424245E+01 |   70.149
 BASOPT|        4     |       1     | 0.35827691E-03 | 0.62740068E+01 |   86.249
 BASOPT|        5     |       1     | 0.96704969E-03 | 0.30418147E+01 |   78.600
 BASOPT|        6     |       1     | 0.10385426E-02 | 0.14841621E+01 |   38.714
 BASOPT| -----------------------------------------------------------------------
 BASOPT| Total residuum value: -.30099207E+03

 BASOPT| Information at iteration number:    6000
 BASOPT| Training set | Combination | Rho difference | Condition num. | Time
 BASOPT| -----------------------------------------------------------------------
 BASOPT|        1     |       1     | 0.37057352E-04 | 0.10025934E+01 |   42.849
 BASOPT|        2     |       1     | 0.46430512E-03 | 0.10007420E+01 |   41.071
 BASOPT|        3     |       1     | 0.20767809E-02 | 0.25236092E+01 |   71.330
 BASOPT|        4     |       1     | 0.36463617E-03 | 0.62300408E+01 |   87.760
 BASOPT|        5     |       1     | 0.96119427E-03 | 0.30324433E+01 |   79.922
 BASOPT|        6     |       1     | 0.10445694E-02 | 0.14869878E+01 |   39.370
 BASOPT| -----------------------------------------------------------------------
 BASOPT| Total residuum value: -.30099252E+03

 BASOPT| Information at iteration number:    6100
 BASOPT| Training set | Combination | Rho difference | Condition num. | Time
 BASOPT| -----------------------------------------------------------------------
 BASOPT|        1     |       1     | 0.36169207E-04 | 0.10091396E+01 |   43.563
 BASOPT|        2     |       1     | 0.46782534E-03 | 0.10050773E+01 |   41.756
 BASOPT|        3     |       1     | 0.20965869E-02 | 0.25011939E+01 |   72.514
 BASOPT|        4     |       1     | 0.36348756E-03 | 0.62408418E+01 |   89.272
 BASOPT|        5     |       1     | 0.96718932E-03 | 0.30175579E+01 |   81.244
 BASOPT|        6     |       1     | 0.10547119E-02 | 0.14867764E+01 |   40.026
 BASOPT| -----------------------------------------------------------------------
 BASOPT| Total residuum value: -.30099292E+03

 BASOPT| Information at iteration number:    6200
 BASOPT| Training set | Combination | Rho difference | Condition num. | Time
 BASOPT| -----------------------------------------------------------------------
 BASOPT|        1     |       1     | 0.37484511E-04 | 0.10118028E+01 |   44.279
 BASOPT|        2     |       1     | 0.46904004E-03 | 0.10108775E+01 |   42.441
 BASOPT|        3     |       1     | 0.21062512E-02 | 0.24774390E+01 |   73.697
 BASOPT|        4     |       1     | 0.35461509E-03 | 0.61908475E+01 |   90.784
 BASOPT|        5     |       1     | 0.96934901E-03 | 0.30044304E+01 |   82.566
 BASOPT|        6     |       1     | 0.10595879E-02 | 0.14872093E+01 |   40.683
 BASOPT| -----------------------------------------------------------------------
 BASOPT| Total residuum value: -.30099348E+03

 BASOPT| Information at iteration number:    6300
 BASOPT| Training set | Combination | Rho difference | Condition num. | Time
 BASOPT| -----------------------------------------------------------------------
 BASOPT|        1     |       1     | 0.36351858E-04 | 0.10120377E+01 |   44.996
 BASOPT|        2     |       1     | 0.46761301E-03 | 0.10103778E+01 |   43.129
 BASOPT|        3     |       1     | 0.21083515E-02 | 0.24547656E+01 |   74.881
 BASOPT|        4     |       1     | 0.35050804E-03 | 0.61634948E+01 |   92.295
 BASOPT|        5     |       1     | 0.96578001E-03 | 0.29762064E+01 |   83.897
 BASOPT|        6     |       1     | 0.10602497E-02 | 0.14844590E+01 |   41.340
 BASOPT| -----------------------------------------------------------------------
 BASOPT| Total residuum value: -.30099396E+03

 BASOPT| Information at iteration number:    6400
 BASOPT| Training set | Combination | Rho difference | Condition num. | Time
 BASOPT| -----------------------------------------------------------------------
 BASOPT|        1     |       1     | 0.35318280E-04 | 0.10093085E+01 |   45.714
 BASOPT|        2     |       1     | 0.47071368E-03 | 0.10065263E+01 |   43.813
 BASOPT|        3     |       1     | 0.21044286E-02 | 0.24377663E+01 |   76.063
 BASOPT|        4     |       1     | 0.35282283E-03 | 0.61637390E+01 |   93.806
 BASOPT|        5     |       1     | 0.97120703E-03 | 0.29502157E+01 |   85.232
 BASOPT|        6     |       1     | 0.10580318E-02 | 0.14823355E+01 |   41.995
 BASOPT| -----------------------------------------------------------------------
 BASOPT| Total residuum value: -.30099459E+03

 BASOPT| Information at iteration number:    6500
 BASOPT| Training set | Combination | Rho difference | Condition num. | Time
 BASOPT| -----------------------------------------------------------------------
 BASOPT|        1     |       1     | 0.33220295E-04 | 0.10054587E+01 |   46.432
 BASOPT|        2     |       1     | 0.46847933E-03 | 0.10038973E+01 |   44.499
 BASOPT|        3     |       1     | 0.21050800E-02 | 0.24343145E+01 |   77.246
 BASOPT|        4     |       1     | 0.34979324E-03 | 0.61795206E+01 |   95.317
 BASOPT|        5     |       1     | 0.96728544E-03 | 0.29504691E+01 |   86.567
 BASOPT|        6     |       1     | 0.10582907E-02 | 0.14765035E+01 |   42.652
 BASOPT| -----------------------------------------------------------------------
 BASOPT| Total residuum value: -.30099480E+03

 BASOPT| Information at iteration number:    6600
 BASOPT| Training set | Combination | Rho difference | Condition num. | Time
 BASOPT| -----------------------------------------------------------------------
 BASOPT|        1     |       1     | 0.33697982E-04 | 0.10043414E+01 |   47.149
 BASOPT|        2     |       1     | 0.47577218E-03 | 0.10014141E+01 |   45.184
 BASOPT|        3     |       1     | 0.21084820E-02 | 0.24123666E+01 |   78.428
 BASOPT|        4     |       1     | 0.35056052E-03 | 0.61361381E+01 |   96.829
 BASOPT|        5     |       1     | 0.98064862E-03 | 0.29212375E+01 |   87.902
 BASOPT|        6     |       1     | 0.10601160E-02 | 0.14701693E+01 |   43.308
 BASOPT| -----------------------------------------------------------------------
 BASOPT| Total residuum value: -.30099546E+03

 BASOPT| Information at iteration number:    6700
 BASOPT| Training set | Combination | Rho difference | Condition num. | Time
 BASOPT| -----------------------------------------------------------------------
 BASOPT|        1     |       1     | 0.31049379E-04 | 0.10054616E+01 |   47.865
 BASOPT|        2     |       1     | 0.47798112E-03 | 0.10047876E+01 |   45.871
 BASOPT|        3     |       1     | 0.21065636E-02 | 0.23945235E+01 |   79.612
 BASOPT|        4     |       1     | 0.34588686E-03 | 0.60907560E+01 |   98.340
 BASOPT|        5     |       1     | 0.98482930E-03 | 0.29107141E+01 |   89.236
 BASOPT|        6     |       1     | 0.10587558E-02 | 0.14632082E+01 |   43.964
 BASOPT| -----------------------------------------------------------------------
 BASOPT| Total residuum value: -.30099589E+03

 BASOPT| Information at iteration number:    6800
 BASOPT| Training set | Combination | Rho difference | Condition num. | Time
 BASOPT| -----------------------------------------------------------------------
 BASOPT|        1     |       1     | 0.34656608E-04 | 0.10125120E+01 |   48.583
 BASOPT|        2     |       1     | 0.47399576E-03 | 0.10051124E+01 |   46.556
 BASOPT|        3     |       1     | 0.21076964E-02 | 0.23677762E+01 |   80.795
 BASOPT|        4     |       1     | 0.35438912E-03 | 0.59919385E+01 |   99.851
 BASOPT|        5     |       1     | 0.97828478E-03 | 0.29109714E+01 |   90.570
 BASOPT|        6     |       1     | 0.10591298E-02 | 0.14501989E+01 |   44.621
 BASOPT| -----------------------------------------------------------------------
 BASOPT| Total residuum value: -.30099667E+03

 BASOPT| Information at iteration number:    6900
 BASOPT| Training set | Combination | Rho difference | Condition num. | Time
 BASOPT| -----------------------------------------------------------------------
 BASOPT|        1     |       1     | 0.32140534E-04 | 0.10147528E+01 |   49.299
 BASOPT|        2     |       1     | 0.47160682E-03 | 0.10042333E+01 |   47.241
 BASOPT|        3     |       1     | 0.21153292E-02 | 0.23567566E+01 |   81.979
 BASOPT|        4     |       1     | 0.35089139E-03 | 0.59747211E+01 |  101.363
 BASOPT|        5     |       1     | 0.97494031E-03 | 0.29117678E+01 |   91.904
 BASOPT|        6     |       1     | 0.10630956E-02 | 0.14420902E+01 |   45.277
 BASOPT| -----------------------------------------------------------------------
 BASOPT| Total residuum value: -.30099707E+03

 BASOPT| Information at iteration number:    7000
 BASOPT| Training set | Combination | Rho difference | Condition num. | Time
 BASOPT| -----------------------------------------------------------------------
 BASOPT|        1     |       1     | 0.29570194E-04 | 0.10190224E+01 |   50.017
 BASOPT|        2     |       1     | 0.46842228E-03 | 0.10026317E+01 |   47.927
 BASOPT|        3     |       1     | 0.21162149E-02 | 0.23410983E+01 |   83.162
 BASOPT|        4     |       1     | 0.34430252E-03 | 0.59861678E+01 |  102.874
 BASOPT|        5     |       1     | 0.96881908E-03 | 0.29016851E+01 |   93.238
 BASOPT|        6     |       1     | 0.10634390E-02 | 0.14356333E+01 |   45.933
 BASOPT| -----------------------------------------------------------------------
 BASOPT| Total residuum value: -.30099751E+03

 BASOPT| Information at iteration number:    7100
 BASOPT| Training set | Combination | Rho difference | Condition num. | Time
 BASOPT| -----------------------------------------------------------------------
 BASOPT|        1     |       1     | 0.27420972E-04 | 0.10233602E+01 |   50.734
 BASOPT|        2     |       1     | 0.46767630E-03 | 0.10023514E+01 |   48.614
 BASOPT|        3     |       1     | 0.21120249E-02 | 0.23250163E+01 |   84.346
 BASOPT|        4     |       1     | 0.34192844E-03 | 0.59924743E+01 |  104.386
 BASOPT|        5     |       1     | 0.96905814E-03 | 0.28940725E+01 |   94.573
 BASOPT|        6     |       1     | 0.10609459E-02 | 0.14232438E+01 |   46.590
 BASOPT| -----------------------------------------------------------------------
 BASOPT| Total residuum value: -.30099796E+03

 BASOPT| Information at iteration number:    7200
 BASOPT| Training set | Combination | Rho difference | Condition num. | Time
 BASOPT| -----------------------------------------------------------------------
 BASOPT|        1     |       1     | 0.26819276E-04 | 0.10259379E+01 |   51.450
 BASOPT|        2     |       1     | 0.46459981E-03 | 0.10053280E+01 |   49.299
 BASOPT|        3     |       1     | 0.21225585E-02 | 0.23132517E+01 |   85.529
 BASOPT|        4     |       1     | 0.33927809E-03 | 0.60151108E+01 |  105.899
 BASOPT|        5     |       1     | 0.96358680E-03 | 0.28874528E+01 |   95.908
 BASOPT|        6     |       1     | 0.10663134E-02 | 0.14199944E+01 |   47.246
 BASOPT| -----------------------------------------------------------------------
 BASOPT| Total residuum value: -.30099825E+03

 BASOPT| Information at iteration number:    7300
 BASOPT| Training set | Combination | Rho difference | Condition num. | Time
 BASOPT| -----------------------------------------------------------------------
 BASOPT|        1     |       1     | 0.28260357E-04 | 0.10254844E+01 |   52.169
 BASOPT|        2     |       1     | 0.46588827E-03 | 0.10054456E+01 |   49.986
 BASOPT|        3     |       1     | 0.21276307E-02 | 0.23111707E+01 |   86.713
 BASOPT|        4     |       1     | 0.34133258E-03 | 0.59942400E+01 |  107.412
 BASOPT|        5     |       1     | 0.96494279E-03 | 0.28815534E+01 |   97.243
 BASOPT|        6     |       1     | 0.10686886E-02 | 0.14165560E+01 |   47.903
 BASOPT| -----------------------------------------------------------------------
 BASOPT| Total residuum value: -.30099836E+03

 BASOPT| Information at iteration number:    7400
 BASOPT| Training set | Combination | Rho difference | Condition num. | Time
 BASOPT| -----------------------------------------------------------------------
 BASOPT|        1     |       1     | 0.30180430E-04 | 0.10303608E+01 |   52.887
 BASOPT|        2     |       1     | 0.46563392E-03 | 0.10093067E+01 |   50.673
 BASOPT|        3     |       1     | 0.21261913E-02 | 0.22969661E+01 |   87.897
 BASOPT|        4     |       1     | 0.33444310E-03 | 0.59729915E+01 |  108.923
 BASOPT|        5     |       1     | 0.96615940E-03 | 0.28938834E+01 |   98.576
 BASOPT|        6     |       1     | 0.10684987E-02 | 0.14041822E+01 |   48.560
 BASOPT| -----------------------------------------------------------------------
 BASOPT| Total residuum value: -.30099871E+03

 BASOPT| Information at iteration number:    7500
 BASOPT| Training set | Combination | Rho difference | Condition num. | Time
 BASOPT| -----------------------------------------------------------------------
 BASOPT|        1     |       1     | 0.28044669E-04 | 0.10292213E+01 |   53.605
 BASOPT|        2     |       1     | 0.46490059E-03 | 0.10077303E+01 |   51.360
 BASOPT|        3     |       1     | 0.21227181E-02 | 0.22860747E+01 |   89.082
 BASOPT|        4     |       1     | 0.33684424E-03 | 0.59879030E+01 |  110.436
 BASOPT|        5     |       1     | 0.96345698E-03 | 0.28667885E+01 |   99.911
 BASOPT|        6     |       1     | 0.10663190E-02 | 0.13969551E+01 |   49.217
 BASOPT| -----------------------------------------------------------------------
 BASOPT| Total residuum value: -.30099932E+03

 BASOPT| Information at iteration number:    7600
 BASOPT| Training set | Combination | Rho difference | Condition num. | Time
 BASOPT| -----------------------------------------------------------------------
 BASOPT|        1     |       1     | 0.30434113E-04 | 0.10340333E+01 |   54.322
 BASOPT|        2     |       1     | 0.46522152E-03 | 0.10033678E+01 |   52.048
 BASOPT|        3     |       1     | 0.21293360E-02 | 0.22695313E+01 |   90.266
 BASOPT|        4     |       1     | 0.34044930E-03 | 0.59569862E+01 |  111.948
 BASOPT|        5     |       1     | 0.96394608E-03 | 0.28554235E+01 |  101.245
[...]
 BASOPT| Total residuum value: -.30106214E+03

 BASOPT| Information at iteration number:   99300
 BASOPT| Training set | Combination | Rho difference | Condition num. | Time
 BASOPT| -----------------------------------------------------------------------
 BASOPT|        1     |       1     | 0.32091397E-04 | 0.10000325E+01 |  718.711
 BASOPT|        2     |       1     | 0.26598654E-03 | 0.10000370E+01 |  688.140
 BASOPT|        3     |       1     | 0.21648571E-02 | 0.16510667E+01 | 1198.333
 BASOPT|        4     |       1     | 0.27720655E-03 | 0.55775948E+01 | 1498.236
 BASOPT|        5     |       1     | 0.61617995E-03 | 0.20836129E+01 | 1337.522
 BASOPT|        6     |       1     | 0.10895103E-02 | 0.10000234E+01 |  660.807
 BASOPT| -----------------------------------------------------------------------
 BASOPT| Total residuum value: -.30106214E+03

 BASOPT| Information at iteration number:   99400
 BASOPT| Training set | Combination | Rho difference | Condition num. | Time
 BASOPT| -----------------------------------------------------------------------
 BASOPT|        1     |       1     | 0.32187897E-04 | 0.10000049E+01 |  719.414
 BASOPT|        2     |       1     | 0.26629266E-03 | 0.10000164E+01 |  688.840
 BASOPT|        3     |       1     | 0.21644453E-02 | 0.16511796E+01 | 1199.550
 BASOPT|        4     |       1     | 0.27738113E-03 | 0.55779426E+01 | 1499.762
 BASOPT|        5     |       1     | 0.61674029E-03 | 0.20838707E+01 | 1338.857
 BASOPT|        6     |       1     | 0.10893340E-02 | 0.10000582E+01 |  661.482
 BASOPT| -----------------------------------------------------------------------
 BASOPT| Total residuum value: -.30106214E+03

 BASOPT| Information at iteration number:   99500
 BASOPT| Training set | Combination | Rho difference | Condition num. | Time
 BASOPT| -----------------------------------------------------------------------
 BASOPT|        1     |       1     | 0.32187944E-04 | 0.10000027E+01 |  720.116
 BASOPT|        2     |       1     | 0.26624712E-03 | 0.10000068E+01 |  689.539
 BASOPT|        3     |       1     | 0.21646396E-02 | 0.16511439E+01 | 1200.768
 BASOPT|        4     |       1     | 0.27738700E-03 | 0.55782290E+01 | 1501.287
 BASOPT|        5     |       1     | 0.61667009E-03 | 0.20838200E+01 | 1340.194
 BASOPT|        6     |       1     | 0.10894250E-02 | 0.10000484E+01 |  662.156
 BASOPT| -----------------------------------------------------------------------
 BASOPT| Total residuum value: -.30106214E+03

 BASOPT| Information at iteration number:   99600
 BASOPT| Training set | Combination | Rho difference | Condition num. | Time
 BASOPT| -----------------------------------------------------------------------
 BASOPT|        1     |       1     | 0.31994568E-04 | 0.10000075E+01 |  720.819
 BASOPT|        2     |       1     | 0.26631833E-03 | 0.10000048E+01 |  690.239
 BASOPT|        3     |       1     | 0.21651660E-02 | 0.16510775E+01 | 1201.982
 BASOPT|        4     |       1     | 0.27694462E-03 | 0.55791153E+01 | 1502.814
 BASOPT|        5     |       1     | 0.61686530E-03 | 0.20838871E+01 | 1341.531
 BASOPT|        6     |       1     | 0.10896978E-02 | 0.10000349E+01 |  662.830
 BASOPT| -----------------------------------------------------------------------
 BASOPT| Total residuum value: -.30106214E+03

 BASOPT| Information at iteration number:   99700
 BASOPT| Training set | Combination | Rho difference | Condition num. | Time
 BASOPT| -----------------------------------------------------------------------
 BASOPT|        1     |       1     | 0.31931922E-04 | 0.10000045E+01 |  721.521
 BASOPT|        2     |       1     | 0.26617222E-03 | 0.10000113E+01 |  690.938
 BASOPT|        3     |       1     | 0.21653615E-02 | 0.16510601E+01 | 1203.198
 BASOPT|        4     |       1     | 0.27685837E-03 | 0.55798838E+01 | 1504.340
 BASOPT|        5     |       1     | 0.61658551E-03 | 0.20838269E+01 | 1342.866
 BASOPT|        6     |       1     | 0.10898069E-02 | 0.10000147E+01 |  663.504
 BASOPT| -----------------------------------------------------------------------
 BASOPT| Total residuum value: -.30106214E+03

 BASOPT| Information at iteration number:   99800
 BASOPT| Training set | Combination | Rho difference | Condition num. | Time
 BASOPT| -----------------------------------------------------------------------
 BASOPT|        1     |       1     | 0.32003943E-04 | 0.10000048E+01 |  722.224
 BASOPT|        2     |       1     | 0.26625792E-03 | 0.10000514E+01 |  691.639
 BASOPT|        3     |       1     | 0.21655499E-02 | 0.16510393E+01 | 1204.414
 BASOPT|        4     |       1     | 0.27698290E-03 | 0.55804132E+01 | 1505.866
 BASOPT|        5     |       1     | 0.61684781E-03 | 0.20837051E+01 | 1344.201
 BASOPT|        6     |       1     | 0.10899134E-02 | 0.10000079E+01 |  664.178
 BASOPT| -----------------------------------------------------------------------
 BASOPT| Total residuum value: -.30106214E+03

 BASOPT| Information at iteration number:   99900
 BASOPT| Training set | Combination | Rho difference | Condition num. | Time
 BASOPT| -----------------------------------------------------------------------
 BASOPT|        1     |       1     | 0.32163105E-04 | 0.10000123E+01 |  722.927
 BASOPT|        2     |       1     | 0.26594870E-03 | 0.10000073E+01 |  692.339
 BASOPT|        3     |       1     | 0.21655662E-02 | 0.16510140E+01 | 1205.629
 BASOPT|        4     |       1     | 0.27722890E-03 | 0.55809572E+01 | 1507.391
 BASOPT|        5     |       1     | 0.61610026E-03 | 0.20836108E+01 | 1345.536
 BASOPT|        6     |       1     | 0.10899252E-02 | 0.10000055E+01 |  664.851
 BASOPT| -----------------------------------------------------------------------
 BASOPT| Total residuum value: -.30106215E+03

 BASOPT| Information at iteration number:  100000
 BASOPT| Training set | Combination | Rho difference | Condition num. | Time
 BASOPT| -----------------------------------------------------------------------
 BASOPT|        1     |       1     | 0.32161347E-04 | 0.10000113E+01 |  723.629
 BASOPT|        2     |       1     | 0.26593034E-03 | 0.10000190E+01 |  693.039
 BASOPT|        3     |       1     | 0.21656787E-02 | 0.16509833E+01 | 1206.846
 BASOPT|        4     |       1     | 0.27720901E-03 | 0.55810939E+01 | 1508.919
 BASOPT|        5     |       1     | 0.61611164E-03 | 0.20836045E+01 | 1346.869
 BASOPT|        6     |       1     | 0.10899824E-02 | 0.10000194E+01 |  665.529
 BASOPT| -----------------------------------------------------------------------
 BASOPT| Total residuum value: -.30106215E+03


 -------------------------------------------------------------------------------
 -                                                                             -
 -                                DBCSR STATISTICS                             -
 -                                                                             -
 -------------------------------------------------------------------------------
 COUNTER                                    TOTAL       BLAS       SMM       ACC
 flops   116 x   116 x     4               322944       0.0%    100.0%      0.0%
 flops   116 x   116 x     8              1937664       0.0%    100.0%      0.0%
 flops inhomo. stacks                           0       0.0%      0.0%      0.0%
 flops total                         2.260608E+06       0.0%    100.0%      0.0%
 flops max/rank                    645.888000E+03       0.0%    100.0%      0.0%
 matmuls inhomo. stacks                         0       0.0%      0.0%      0.0%
 matmuls total                                 12       0.0%    100.0%      0.0%
 number of processed stacks                     6       0.0%    100.0%      0.0%
 average stack size                                     0.0       2.0       0.0
 marketing flops                     2.906496E+06
 -------------------------------------------------------------------------------
 # multiplications                              1
 max memory usage/rank             347.185152E+06
 # max total images/rank                        3
 # max 3D layers                                1
 # MPI messages exchanged                     252
 MPI messages size (bytes):
  total size                       167.040000E+03
  min size                           0.000000E+00
  max size                          14.848000E+03
  average size                     662.857117E+00
 MPI breakdown and total messages size (bytes):
             size <=      128                 234                        0
       128 < size <=     8192                   9                    33408
      8192 < size <=    32768                   9                   133632
     32768 < size <=   131072                   0                        0
    131072 < size <=  4194304                   0                        0
   4194304 < size <= 16777216                   0                        0
  16777216 < size                               0                        0
 -------------------------------------------------------------------------------

 *** WARNING in dbcsr_mm.F:297 :: Using a non-square number of MPI ranks ***
 *** might lead to poor performance. Used ranks: 6 Suggested: 4 9        ***

 -------------------------------------------------------------------------------
 -                                                                             -
 -                      DBCSR MESSAGE PASSING PERFORMANCE                      -
 -                                                                             -
 -------------------------------------------------------------------------------
 ROUTINE             CALLS      AVE VOLUME [Bytes]
 MP_Bcast                3                     12.
 MP_Allreduce           30                     18.
 MP_Alltoall       6000081                  12968.
 MP_ISend               18                    466.
 MP_IRecv               18                     52.
 -------------------------------------------------------------------------------

 -------------------------------------------------------------------------------
 -                                                                             -
 -                                GRID STATISTICS                              -
 -                                                                             -
 -------------------------------------------------------------------------------
 LP    KERNEL    OPERATION                                     COUNT     PERCENT
 0     general   collocate                                         9       0.18%
 2     ortho     integrate                                      1059      20.98%
 2     ortho     collocate                                      1059      20.98%
 5     ortho     integrate                                      1154      22.87%
 5     ortho     collocate                                      1154      22.87%
 8     ortho     integrate                                       306       6.06%
 8     ortho     collocate                                       306       6.06%
 -------------------------------------------------------------------------------

 MEMORY| Estimated peak process memory [MiB]                                 681

 -------------------------------------------------------------------------------
 -                                                                             -
 -                         MESSAGE PASSING PERFORMANCE                         -
 -                                                                             -
 -------------------------------------------------------------------------------

 ROUTINE             CALLS      AVE VOLUME [Bytes]
 MP_Bcast           300031                     65.
 MP_Allreduce      1300138                     73.
 MP_Sync            300003
 MP_Alltoall            18               43277013.
 MP_ISendRecv           45                3043072.
 MP_Wait                45
 MP_comm_split      200003
 -------------------------------------------------------------------------------


 -------------------------------------------------------------------------------
 -                                                                             -
 -                           R E F E R E N C E S                               -
 -                                                                             -
 -------------------------------------------------------------------------------
 
 CP2K version 8.0 (Development Version), the CP2K developers group (2020).
 CP2K is freely available from https://www.cp2k.org/ .

 Kuehne,Thomas D.; Iannuzzi,Marcella; Del Ben,Mauro;
 Rybkin,Vladimir V.; Seewald,Patrick; Stein,Frederick; Laino,Teodoro;
 Khaliullin,Rustam Z.; Schuett,Ole; Schiffmann,Florian; Golze,Dorothea;
 Wilhelm,Jan; Chulkov,Sergey; Bani-Hashemian,Mohammad Hossein;
 Weber,Valery; Borstnik,Urban; Taillefumier,Mathieu;
 Jakobovits,Alice Shoshana; Lazzaro,Alfio; Pabst,Hans; Mueller,Tiziano;
 Schade,Robert; Guidon,Manuel; Andermatt,Samuel; Holmberg,Nico;
 Schenter,Gregory K.; Hehn,Anna; Bussy,Augustin; Belleflamme,Fabian;
 Tabacchi,Gloria; Gloess,Andreas; Lass,Michael; Bethune,Iain;
 Mundy,Christopher J.; Plessl,Christian; Watkins,Matt;
 VandeVondele,Joost; Krack,Matthias; Hutter,Juerg. 
 The Journal of Chemical Physics, 152 (19), (2020). 
 CP2K: An electronic structure and molecular dynamics software package -
 Quickstep: Efficient and accurate electronic structure calculations.
 https://doi.org/10.1063/5.0007045

 Schuett, Ole; Messmer, Peter; Hutter, Juerg; VandeVondele, Joost. 
 Electronic Structure Calculations on Graphics Processing Units, John
 Wiley & Sons, Ltd, 173-190 (2016). 
 GPU-Accelerated Sparse Matrix-Matrix Multiplication for
 Linear Scaling Density Functional Theory.
 https://doi.org/10.1002/9781118670712.ch8

 Borstnik, U; VandeVondele, J; Weber, V; Hutter, J. 
 PARALLEL COMPUTING, 40 (5-6), 47-58 (2014). 
 Sparse matrix multiplication: The distributed block-compressed sparse
 row library.
 https://doi.org/10.1016/j.parco.2014.03.012

 Hutter, J; Iannuzzi, M; Schiffmann, F; VandeVondele, J. 
 WIREs Comput Mol Sci., 4 (1), 15-25 (2014). 
 CP2K: atomistic simulations of condensed matter systems.
 https://doi.org/10.1002/wcms.1159

 Marek, A; Blum, V; Johanni, R; Havu, V; Lang, B; Auckenthaler, T;
 Heinecke, A; Bungartz, H; Lederer, H. 
 Journal of Physics: Condensed Matter, 26 (21), (2014). 
 The ELPA library: scalable parallel eigenvalue solutions for
 electronic structure
 theory and computational science.
 https://doi.org/10.1088/0953-8984/26/21/213201

 Guidon, M; Hutter, J; VandeVondele, J. 
 JOURNAL OF CHEMICAL THEORY AND COMPUTATION, 6 (8), 2348-2364 (2010). 
 Auxiliary Density Matrix Methods for Hartree-Fock Exchange Calculations.
 https://doi.org/10.1021/ct1002225

 VandeVondele, J; Hutter, J. 
 JOURNAL OF CHEMICAL PHYSICS, 127 (11), 114105 (2007). 
 Gaussian basis sets for accurate calculations on molecular systems in
 gas and condensed phases.
 https://doi.org/10.1063/1.2770708

 Krack, M. 
 THEORETICAL CHEMISTRY ACCOUNTS, 114 (1-3), 145-152 (2005). 
 Pseudopotentials for H to Kr optimized for gradient-corrected
 exchange-correlation functionals.
 https://doi.org/10.1007/s00214-005-0655-y

 VandeVondele, J; Krack, M; Mohamed, F; Parrinello, M; Chassaing, T;
 Hutter, J. COMPUTER PHYSICS COMMUNICATIONS, 167 (2), 103-128 (2005). 
 QUICKSTEP: Fast and accurate density functional calculations using a
 mixed Gaussian and plane waves approach.
 https://doi.org/10.1016/j.cpc.2004.12.014

 Frigo, M; Johnson, SG. 
 PROCEEDINGS OF THE IEEE, 93 (2), 216-231 (2005). 
 The design and implementation of FFTW3.
 https://doi.org/10.1109/JPROC.2004.840301

 Hartwigsen, C; Goedecker, S; Hutter, J. 
 PHYSICAL REVIEW B, 58 (7), 3641-3662 (1998). 
 Relativistic separable dual-space Gaussian pseudopotentials from H to Rn.
 https://doi.org/10.1103/PhysRevB.58.3641

 Lippert, G; Hutter, J; Parrinello, M. 
 MOLECULAR PHYSICS, 92 (3), 477-487 (1997). 
 A hybrid Gaussian and plane wave density functional scheme.
 https://doi.org/10.1080/002689797170220

 Perdew, JP; Burke, K; Ernzerhof, M. 
 PHYSICAL REVIEW LETTERS, 77 (18), 3865-3868 (1996). 
 Generalized gradient approximation made simple.
 https://doi.org/10.1103/PhysRevLett.77.3865

 Goedecker, S; Teter, M; Hutter, J. 
 PHYSICAL REVIEW B, 54 (3), 1703-1710 (1996). 
 Separable dual-space Gaussian pseudopotentials.
 https://doi.org/10.1103/PhysRevB.54.1703


 -------------------------------------------------------------------------------
 -                                                                             -
 -                                T I M I N G                                  -
 -                                                                             -
 -------------------------------------------------------------------------------
 SUBROUTINE                       CALLS  ASD         SELF TIME        TOTAL TIME
                                MAXIMUM       AVERAGE  MAXIMUM  AVERAGE  MAXIMUM
 CP2K                                 1  1.0    0.002    0.004 1581.071 1581.093
 run_optimize_basis                   1  2.0    0.001    0.001 1581.063 1581.085
 driver_para_opt_basis                1  3.0    0.000    0.000 1581.057 1581.079
 driver_optimization_para_low         1  4.0    0.369    0.824 1581.057 1581.078
 compute_residuum_vectors        100001  5.0    3.636    5.114 1516.410 1516.813
 mp_sum_dv                       500006  5.8  491.861  851.011  491.861  851.011
 admm_fit_mo_coeffs              100001  6.0    0.168    0.232  481.503  796.756
 cp_gemm                        1200012  7.2    1.478    1.803  387.268  623.465
 cp_gemm_fm_gemm                1200012  8.2    0.985    1.224  385.790  621.788
 cp_fm_gemm                     1200012  9.2  384.804  620.718  384.804  620.718
 fit_mo_coeffs                   100001  7.0    0.746    0.921  280.863  555.463
 copy_dbcsr_to_fm                500006  6.8    4.293    4.819  305.198  524.054
 dbcsr_desymmetrize_deep         500006  7.8    6.653   14.426  152.888  348.778
 mp_alltoall_i22                1000013  8.8  120.053  313.462  120.053  313.462
 build_overlap_matrix_low        200006  6.0   23.986  290.242   26.419  294.100
 cp_fm_syevd                     200002  7.0    0.505    0.696  216.028  260.436
 purify_mo_diag                  100001  7.0    0.934    1.213  200.472  244.067
 cp_fm_redistribute_end          200002  8.0   71.947  187.121   73.840  189.909
 dbcsr_complete_redistribute     500007  7.8   16.170   29.823  133.834  155.995
 cp_fm_syevd_base                200002  8.0   72.147  149.077   72.147  149.077
 cp_fm_redistribute_start        200002  8.0   56.876   60.467   69.536   74.537
 mp_alltoall_d11v               3000039  9.3   40.065   63.770   40.065   63.770
 mp_bcast_i                      100029  5.0   57.841   59.693   57.841   59.693
 powell_optimize                 100002  5.0    1.624   58.460    1.624   58.460
 cp_fm_upper_to_full             300005  7.3   27.935   50.788   27.935   50.788
 mp_cart_sub                    1000014  8.8   36.679   37.167   36.679   37.167
 mp_cart_create                  500007  8.8   27.530   34.923   27.530   34.923
 -------------------------------------------------------------------------------

 The number of warnings for this run is : 1
 
 -------------------------------------------------------------------------------
  **** **** ******  **  PROGRAM ENDED AT                 2020-12-02 21:05:05.077
 ***** ** ***  *** **   PROGRAM RAN ON                                   tcopt10
 **    ****   ******    PROGRAM RAN BY                                    hutter
 ***** **    ** ** **   PROGRAM PROCESS ID                                 19938
  **** **  *******  **  PROGRAM STOPPED IN /data/hutter/GITHUB/BASIS/MOLOPT/PBE0
                                           /noble/q8
