
  **** **** ******  **  PROGRAM STARTED AT               2020-12-02 21:14:54.760
 ***** ** ***  *** **   PROGRAM STARTED ON                               tcopt10
 **    ****   ******    PROGRAM STARTED BY                                hutter
 ***** **    ** ** **   PROGRAM PROCESS ID                                 22854
  **** **  *******  **  PROGRAM STARTED IN /data/hutter/GITHUB/BASIS/MOLOPT/PBE0
                                           /noble/q8

 CP2K| version string:                    CP2K version 8.0 (Development Version)
 CP2K| source code revision number:                                  git:afc71fa
 CP2K| cp2kflags: omp libint fftw3 libxc elpa parallel mpi3 scalapack xsmm spgli
 CP2K|            b sirius
 CP2K| is freely available from                            https://www.cp2k.org/
 CP2K| Program compiled at                          Tue Nov 17 10:27:14 CET 2020
 CP2K| Program compiled on                                               tcopt10
 CP2K| Program compiled for                                                local
 CP2K| Data directory path                 /data/hutter/GITHUB/CURRENT/cp2k/data
 CP2K| Input file name                                        opt-all_henear.inp

 GLOBAL| Method name                                              OPTIMIZE_BASIS
 GLOBAL| Project name                                                     molopt
 GLOBAL| Preferred FFT library                                             FFTW3
 GLOBAL| Preferred diagonalization lib.                                     ELPA
 GLOBAL| Run type                                                   ENERGY_FORCE
 GLOBAL| All-to-all communication in single precision                          F
 GLOBAL| FFTs using library dependent lengths                                  F
 GLOBAL| Global print level                                               MEDIUM
 GLOBAL| MPI I/O enabled                                                       T
 GLOBAL| Total number of message passing processes                            36
 GLOBAL| Number of threads for this process                                    1
 GLOBAL| This output is from process                                           0
 GLOBAL| CPU model name                          AMD EPYC 7401 24-Core Processor
 GLOBAL| CPUID                                                              1002

 MEMORY| system memory details [Kb]
 MEMORY|                        rank 0           min           max       average
 MEMORY| MemTotal            263987256     263987256     263987256     263987256
 MEMORY| MemFree             257649244     257649244     257649244     257649244
 MEMORY| Buffers                    32            32            32            32
 MEMORY| Cached                2700032       2700032       2700032       2700032
 MEMORY| Slab                   798536        798536        798536        798536
 MEMORY| SReclaimable           301408        301408        301408        301408
 MEMORY| MemLikelyFree       260650716     260650716     260650716     260650716


 *** Fundamental physical constants (SI units) ***

 *** Literature: B. J. Mohr and B. N. Taylor,
 ***             CODATA recommended values of the fundamental physical
 ***             constants: 2006, Web Version 5.1
 ***             http://physics.nist.gov/constants

 Speed of light in vacuum [m/s]                             2.99792458000000E+08
 Magnetic constant or permeability of vacuum [N/A**2]       1.25663706143592E-06
 Electric constant or permittivity of vacuum [F/m]          8.85418781762039E-12
 Planck constant (h) [J*s]                                  6.62606896000000E-34
 Planck constant (h-bar) [J*s]                              1.05457162825177E-34
 Elementary charge [C]                                      1.60217648700000E-19
 Electron mass [kg]                                         9.10938215000000E-31
 Electron g factor [ ]                                     -2.00231930436220E+00
 Proton mass [kg]                                           1.67262163700000E-27
 Fine-structure constant                                    7.29735253760000E-03
 Rydberg constant [1/m]                                     1.09737315685270E+07
 Avogadro constant [1/mol]                                  6.02214179000000E+23
 Boltzmann constant [J/K]                                   1.38065040000000E-23
 Atomic mass unit [kg]                                      1.66053878200000E-27
 Bohr radius [m]                                            5.29177208590000E-11

 *** Conversion factors ***

 [u] -> [a.u.]                                              1.82288848426455E+03
 [Angstrom] -> [Bohr] = [a.u.]                              1.88972613288564E+00
 [a.u.] = [Bohr] -> [Angstrom]                              5.29177208590000E-01
 [a.u.] -> [s]                                              2.41888432650478E-17
 [a.u.] -> [fs]                                             2.41888432650478E-02
 [a.u.] -> [J]                                              4.35974393937059E-18
 [a.u.] -> [N]                                              8.23872205491840E-08
 [a.u.] -> [K]                                              3.15774647902944E+05
 [a.u.] -> [kJ/mol]                                         2.62549961709828E+03
 [a.u.] -> [kcal/mol]                                       6.27509468713739E+02
 [a.u.] -> [Pa]                                             2.94210107994716E+13
 [a.u.] -> [bar]                                            2.94210107994716E+08
 [a.u.] -> [atm]                                            2.90362800883016E+08
 [a.u.] -> [eV]                                             2.72113838565563E+01
 [a.u.] -> [Hz]                                             6.57968392072181E+15
 [a.u.] -> [1/cm] (wave numbers)                            2.19474631370540E+05
 [a.u./Bohr**2] -> [1/cm]                                   5.14048714338585E+03
 
 DBCSR| CPU Multiplication driver                                           XSMM
 DBCSR| Multrec recursion limit                                              512
 DBCSR| Multiplication stack size                                           1000
 DBCSR| Maximum elements for images                                    UNLIMITED
 DBCSR| Multiplicative factor virtual images                                   1
 DBCSR| Use multiplication densification                                       T
 DBCSR| Multiplication size stacks                                             3
 DBCSR| Use memory pool for CPU allocation                                     F
 DBCSR| Number of 3D layers                                               SINGLE
 DBCSR| Use MPI memory allocation                                              F
 DBCSR| Use RMA algorithm                                                      F
 DBCSR| Use Communication thread                                               T
 DBCSR| Communication thread load                                             87
 DBCSR| Split modifier for TAS multiplication algorithm                  1.0E+00


 *******************************************************************************
 *   ___                                                                       *
 *  /   \                                                                      *
 * [ABORT]                                                                     *
 *  \___/  The requested basis set <TZV2P-MOLOPT-PBE0-GTH-Q2> for element <HE> *
 *    |                was not found in the template basis set file            *
 *  O/|                                                                        *
 * /| |                                                                        *
 * / \                                             optimize_basis_utils.F:1073 *
 *******************************************************************************


 ===== Routine Calling Stack ===== 

            2 run_optimize_basis
            1 CP2K

  **** **** ******  **  PROGRAM STARTED AT               2020-12-02 21:16:06.704
 ***** ** ***  *** **   PROGRAM STARTED ON                               tcopt10
 **    ****   ******    PROGRAM STARTED BY                                hutter
 ***** **    ** ** **   PROGRAM PROCESS ID                                 23121
  **** **  *******  **  PROGRAM STARTED IN /data/hutter/GITHUB/BASIS/MOLOPT/PBE0
                                           /noble/q8

 CP2K| version string:                    CP2K version 8.0 (Development Version)
 CP2K| source code revision number:                                  git:afc71fa
 CP2K| cp2kflags: omp libint fftw3 libxc elpa parallel mpi3 scalapack xsmm spgli
 CP2K|            b sirius
 CP2K| is freely available from                            https://www.cp2k.org/
 CP2K| Program compiled at                          Tue Nov 17 10:27:14 CET 2020
 CP2K| Program compiled on                                               tcopt10
 CP2K| Program compiled for                                                local
 CP2K| Data directory path                 /data/hutter/GITHUB/CURRENT/cp2k/data
 CP2K| Input file name                                        opt-all_henear.inp

 GLOBAL| Method name                                              OPTIMIZE_BASIS
 GLOBAL| Project name                                                     molopt
 GLOBAL| Preferred FFT library                                             FFTW3
 GLOBAL| Preferred diagonalization lib.                                     ELPA
 GLOBAL| Run type                                                   ENERGY_FORCE
 GLOBAL| All-to-all communication in single precision                          F
 GLOBAL| FFTs using library dependent lengths                                  F
 GLOBAL| Global print level                                               MEDIUM
 GLOBAL| MPI I/O enabled                                                       T
 GLOBAL| Total number of message passing processes                            36
 GLOBAL| Number of threads for this process                                    1
 GLOBAL| This output is from process                                           0
 GLOBAL| CPU model name                          AMD EPYC 7401 24-Core Processor
 GLOBAL| CPUID                                                              1002

 MEMORY| system memory details [Kb]
 MEMORY|                        rank 0           min           max       average
 MEMORY| MemTotal            263987256     263987256     263987256     263987256
 MEMORY| MemFree             257626656     257626656     257626656     257626656
 MEMORY| Buffers                    32            32            32            32
 MEMORY| Cached                2700188       2700188       2700188       2700188
 MEMORY| Slab                   799804        799804        799804        799804
 MEMORY| SReclaimable           301536        301536        301536        301536
 MEMORY| MemLikelyFree       260628412     260628412     260628412     260628412


 *** Fundamental physical constants (SI units) ***

 *** Literature: B. J. Mohr and B. N. Taylor,
 ***             CODATA recommended values of the fundamental physical
 ***             constants: 2006, Web Version 5.1
 ***             http://physics.nist.gov/constants

 Speed of light in vacuum [m/s]                             2.99792458000000E+08
 Magnetic constant or permeability of vacuum [N/A**2]       1.25663706143592E-06
 Electric constant or permittivity of vacuum [F/m]          8.85418781762039E-12
 Planck constant (h) [J*s]                                  6.62606896000000E-34
 Planck constant (h-bar) [J*s]                              1.05457162825177E-34
 Elementary charge [C]                                      1.60217648700000E-19
 Electron mass [kg]                                         9.10938215000000E-31
 Electron g factor [ ]                                     -2.00231930436220E+00
 Proton mass [kg]                                           1.67262163700000E-27
 Fine-structure constant                                    7.29735253760000E-03
 Rydberg constant [1/m]                                     1.09737315685270E+07
 Avogadro constant [1/mol]                                  6.02214179000000E+23
 Boltzmann constant [J/K]                                   1.38065040000000E-23
 Atomic mass unit [kg]                                      1.66053878200000E-27
 Bohr radius [m]                                            5.29177208590000E-11

 *** Conversion factors ***

 [u] -> [a.u.]                                              1.82288848426455E+03
 [Angstrom] -> [Bohr] = [a.u.]                              1.88972613288564E+00
 [a.u.] = [Bohr] -> [Angstrom]                              5.29177208590000E-01
 [a.u.] -> [s]                                              2.41888432650478E-17
 [a.u.] -> [fs]                                             2.41888432650478E-02
 [a.u.] -> [J]                                              4.35974393937059E-18
 [a.u.] -> [N]                                              8.23872205491840E-08
 [a.u.] -> [K]                                              3.15774647902944E+05
 [a.u.] -> [kJ/mol]                                         2.62549961709828E+03
 [a.u.] -> [kcal/mol]                                       6.27509468713739E+02
 [a.u.] -> [Pa]                                             2.94210107994716E+13
 [a.u.] -> [bar]                                            2.94210107994716E+08
 [a.u.] -> [atm]                                            2.90362800883016E+08
 [a.u.] -> [eV]                                             2.72113838565563E+01
 [a.u.] -> [Hz]                                             6.57968392072181E+15
 [a.u.] -> [1/cm] (wave numbers)                            2.19474631370540E+05
 [a.u./Bohr**2] -> [1/cm]                                   5.14048714338585E+03
 
 DBCSR| CPU Multiplication driver                                           XSMM
 DBCSR| Multrec recursion limit                                              512
 DBCSR| Multiplication stack size                                           1000
 DBCSR| Maximum elements for images                                    UNLIMITED
 DBCSR| Multiplicative factor virtual images                                   1
 DBCSR| Use multiplication densification                                       T
 DBCSR| Multiplication size stacks                                             3
 DBCSR| Use memory pool for CPU allocation                                     F
 DBCSR| Number of 3D layers                                               SINGLE
 DBCSR| Use MPI memory allocation                                              F
 DBCSR| Use RMA algorithm                                                      F
 DBCSR| Use Communication thread                                               T
 DBCSR| Communication thread load                                             87
 DBCSR| Split modifier for TAS multiplication algorithm                  1.0E+00

 BASOPT| Total number of calculations     21

 BASOPT| Content of basis combination      1
 BASOPT|     Element:   HE    Basis set:    TZV2P-MOLOPT-PBE0-GTH-Q2
 BASOPT|     Element:   NE    Basis set:    TZV2P-MOLOPT-PBE0-GTH-Q8
 BASOPT|     Element:   AR    Basis set:    TZV2P-MOLOPT-PBE0-GTH-Q8

 BASOPT| Content of basis combination      2
 BASOPT|     Element:   HE    Basis set:    TZVP-MOLOPT-PBE0-GTH-q2
 BASOPT|     Element:   NE    Basis set:    TZVP-MOLOPT-PBE0-GTH-q8
 BASOPT|     Element:   AR    Basis set:    TZVP-MOLOPT-PBE0-GTH-q8

 BASOPT| Content of basis combination      3
 BASOPT|     Element:   HE    Basis set:    DZVP-MOLOPT-PBE0-GTH-q2
 BASOPT|     Element:   NE    Basis set:    DZVP-MOLOPT-PBE0-GTH-q8
 BASOPT|     Element:   AR    Basis set:    DZVP-MOLOPT-PBE0-GTH-q8

 BASOPT| Information at iteration number:       0
 BASOPT| Training set | Combination | Rho difference | Condition num. | Time
 BASOPT| -----------------------------------------------------------------------
 BASOPT|        1     |       1     | 0.37762048E-03 | 0.19038394E+02 |    0.017
 BASOPT|        1     |       2     | 0.37991388E-03 | 0.18485273E+02 |    0.014
 BASOPT|        1     |       3     | 0.41120962E-03 | 0.12625957E+01 |    0.012
 BASOPT|        2     |       1     | 0.11832345E-03 | 0.76194713E+01 |    0.008
 BASOPT|        2     |       2     | 0.11832921E-03 | 0.76194713E+01 |    0.009
 BASOPT|        2     |       3     | 0.28251014E-03 | 0.10000482E+01 |    0.007
 BASOPT|        3     |       1     | 0.19882429E-03 | 0.16120507E+02 |    0.008
 BASOPT|        3     |       2     | 0.19882429E-03 | 0.16120507E+02 |    0.006
 BASOPT|        3     |       3     | 0.21112220E-03 | 0.10000059E+01 |    0.007
 BASOPT|        4     |       1     | 0.16158841E-04 | 0.19928138E+02 |    0.009
 BASOPT|        4     |       2     | 0.19588541E-04 | 0.82739705E+01 |    0.007
 BASOPT|        4     |       3     | 0.25698150E-04 | 0.13704010E+01 |    0.007
 BASOPT|        5     |       1     | 0.32154243E-03 | 0.65083985E+03 |    0.051
 BASOPT|        5     |       2     | 0.38239511E-03 | 0.34063261E+02 |    0.035
 BASOPT|        5     |       3     | 0.55671482E-03 | 0.56910963E+01 |    0.026
 BASOPT|        6     |       1     | 0.92463250E-05 | 0.71894420E+01 |    0.003
 BASOPT|        6     |       2     | 0.92463250E-05 | 0.71894420E+01 |    0.003
 BASOPT|        6     |       3     | 0.12750972E-04 | 0.10000151E+01 |    0.003
 BASOPT|        7     |       1     | 0.23008637E-03 | 0.10431756E+02 |    0.014
 BASOPT|        7     |       2     | 0.23111314E-03 | 0.93014746E+01 |    0.010
 BASOPT|        7     |       3     | 0.54701314E-03 | 0.11117980E+01 |    0.008
 BASOPT| -----------------------------------------------------------------------
 BASOPT| Total residuum value: -.13063294E+04

 BASOPT| Information at iteration number:     100
 BASOPT| Training set | Combination | Rho difference | Condition num. | Time
 BASOPT| -----------------------------------------------------------------------
 BASOPT|        1     |       1     | 0.37585131E-03 | 0.19129609E+02 |    1.437
 BASOPT|        1     |       2     | 0.37816424E-03 | 0.18545348E+02 |    1.096
 BASOPT|        1     |       3     | 0.41120962E-03 | 0.12625957E+01 |    0.930
 BASOPT|        2     |       1     | 0.11832345E-03 | 0.76194713E+01 |    0.603
 BASOPT|        2     |       2     | 0.11832921E-03 | 0.76194713E+01 |    0.530
 BASOPT|        2     |       3     | 0.28251014E-03 | 0.10000482E+01 |    0.497
 BASOPT|        3     |       1     | 0.19785992E-03 | 0.16120507E+02 |    0.612
 BASOPT|        3     |       2     | 0.19785992E-03 | 0.16120507E+02 |    0.489
 BASOPT|        3     |       3     | 0.21112220E-03 | 0.10000059E+01 |    0.485
 BASOPT|        4     |       1     | 0.16158841E-04 | 0.19928138E+02 |    0.657
 BASOPT|        4     |       2     | 0.19588541E-04 | 0.82739705E+01 |    0.496
 BASOPT|        4     |       3     | 0.25698150E-04 | 0.13704010E+01 |    0.468
 BASOPT|        5     |       1     | 0.32059349E-03 | 0.65136893E+03 |    4.803
 BASOPT|        5     |       2     | 0.38185441E-03 | 0.34248619E+02 |    2.903
 BASOPT|        5     |       3     | 0.55671482E-03 | 0.56910963E+01 |    2.318
 BASOPT|        6     |       1     | 0.92463250E-05 | 0.71894420E+01 |    0.235
 BASOPT|        6     |       2     | 0.92463250E-05 | 0.71894420E+01 |    0.218
 BASOPT|        6     |       3     | 0.12750972E-04 | 0.10000151E+01 |    0.247
 BASOPT|        7     |       1     | 0.23008637E-03 | 0.10431756E+02 |    1.319
 BASOPT|        7     |       2     | 0.23111314E-03 | 0.93014746E+01 |    0.927
 BASOPT|        7     |       3     | 0.54701314E-03 | 0.11117980E+01 |    0.769
 BASOPT| -----------------------------------------------------------------------
 BASOPT| Total residuum value: -.13063292E+04

 BASOPT| Information at iteration number:     200
 BASOPT| Training set | Combination | Rho difference | Condition num. | Time
 BASOPT| -----------------------------------------------------------------------
 BASOPT|        1     |       1     | 0.16360448E-02 | 0.19068830E+02 |    2.858
 BASOPT|        1     |       2     | 0.16408747E-02 | 0.18501465E+02 |    2.180
 BASOPT|        1     |       3     | 0.43106170E-02 | 0.12678913E+01 |    1.846
 BASOPT|        2     |       1     | 0.11832345E-03 | 0.76194713E+01 |    1.195
 BASOPT|        2     |       2     | 0.11832921E-03 | 0.76194713E+01 |    1.050
 BASOPT|        2     |       3     | 0.28251014E-03 | 0.10000482E+01 |    0.987
 BASOPT|        3     |       1     | 0.82842475E-03 | 0.16120507E+02 |    1.215
 BASOPT|        3     |       2     | 0.82842475E-03 | 0.16120507E+02 |    0.970
 BASOPT|        3     |       3     | 0.22026870E-02 | 0.10295455E+01 |    0.960
 BASOPT|        4     |       1     | 0.16158841E-04 | 0.19928138E+02 |    1.302
 BASOPT|        4     |       2     | 0.19588541E-04 | 0.82739705E+01 |    0.983
 BASOPT|        4     |       3     | 0.25698150E-04 | 0.13704010E+01 |    0.927
 BASOPT|        5     |       1     | 0.94201794E-03 | 0.65125795E+03 |    9.560
 BASOPT|        5     |       2     | 0.10127435E-02 | 0.34137942E+02 |    5.771
 BASOPT|        5     |       3     | 0.23393442E-02 | 0.57021151E+01 |    4.610
 BASOPT|        6     |       1     | 0.92463250E-05 | 0.71894420E+01 |    0.467
 BASOPT|        6     |       2     | 0.92463250E-05 | 0.71894420E+01 |    0.432
 BASOPT|        6     |       3     | 0.12750972E-04 | 0.10000151E+01 |    0.491
 BASOPT|        7     |       1     | 0.23008637E-03 | 0.10431756E+02 |    2.624
 BASOPT|        7     |       2     | 0.23111314E-03 | 0.93014746E+01 |    1.842
 BASOPT|        7     |       3     | 0.54701314E-03 | 0.11117980E+01 |    1.532
 BASOPT| -----------------------------------------------------------------------
 BASOPT| Total residuum value: -.13040797E+04

 BASOPT| Information at iteration number:     300
 BASOPT| Training set | Combination | Rho difference | Condition num. | Time
 BASOPT| -----------------------------------------------------------------------
 BASOPT|        1     |       1     | 0.37686848E-03 | 0.18899008E+02 |    4.285
 BASOPT|        1     |       2     | 0.37924459E-03 | 0.18354143E+02 |    3.265
 BASOPT|        1     |       3     | 0.40674291E-03 | 0.12621531E+01 |    2.763
 BASOPT|        2     |       1     | 0.11824475E-03 | 0.76038410E+01 |    1.787
 BASOPT|        2     |       2     | 0.11825051E-03 | 0.76038410E+01 |    1.570
 BASOPT|        2     |       3     | 0.25506723E-03 | 0.10019491E+01 |    1.476
 BASOPT|        3     |       1     | 0.19872047E-03 | 0.16018370E+02 |    1.818
 BASOPT|        3     |       2     | 0.19872047E-03 | 0.16018370E+02 |    1.450
 BASOPT|        3     |       3     | 0.20792062E-03 | 0.10055924E+01 |    1.440
 BASOPT|        4     |       1     | 0.16560631E-04 | 0.19730469E+02 |    1.949
 BASOPT|        4     |       2     | 0.20093931E-04 | 0.81054873E+01 |    1.470
 BASOPT|        4     |       3     | 0.36496809E-04 | 0.13735619E+01 |    1.385
 BASOPT|        5     |       1     | 0.31983528E-03 | 0.62730665E+03 |   14.327
 BASOPT|        5     |       2     | 0.38248478E-03 | 0.33707581E+02 |    8.641
 BASOPT|        5     |       3     | 0.55005701E-03 | 0.57147213E+01 |    6.902
 BASOPT|        6     |       1     | 0.94858275E-05 | 0.70431667E+01 |    0.700
 BASOPT|        6     |       2     | 0.94858275E-05 | 0.70431667E+01 |    0.647
 BASOPT|        6     |       3     | 0.18563441E-04 | 0.10022459E+01 |    0.736
 BASOPT|        7     |       1     | 0.22990662E-03 | 0.10565066E+02 |    3.931
 BASOPT|        7     |       2     | 0.23088906E-03 | 0.93738165E+01 |    2.759
 BASOPT|        7     |       3     | 0.49521219E-03 | 0.11103348E+01 |    2.294
 BASOPT| -----------------------------------------------------------------------
 BASOPT| Total residuum value: -.13063432E+04

 BASOPT| Information at iteration number:     400
 BASOPT| Training set | Combination | Rho difference | Condition num. | Time
 BASOPT| -----------------------------------------------------------------------
 BASOPT|        1     |       1     | 0.37770373E-03 | 0.18897985E+02 |    5.714
 BASOPT|        1     |       2     | 0.38013583E-03 | 0.18349448E+02 |    4.355
 BASOPT|        1     |       3     | 0.41099913E-03 | 0.12631116E+01 |    3.679
 BASOPT|        2     |       1     | 0.11917949E-03 | 0.76265814E+01 |    2.380
 BASOPT|        2     |       2     | 0.11918512E-03 | 0.76265814E+01 |    2.091
 BASOPT|        2     |       3     | 0.24312866E-03 | 0.10146531E+01 |    1.966
 BASOPT|        3     |       1     | 0.19930339E-03 | 0.16029768E+02 |    2.423
 BASOPT|        3     |       2     | 0.19930339E-03 | 0.16029768E+02 |    1.932
 BASOPT|        3     |       3     | 0.21110189E-03 | 0.10028331E+01 |    1.923
 BASOPT|        4     |       1     | 0.14547373E-04 | 0.19673578E+02 |    2.596
 BASOPT|        4     |       2     | 0.17745787E-04 | 0.80826088E+01 |    1.959
 BASOPT|        4     |       3     | 0.28308347E-04 | 0.13736594E+01 |    1.844
 BASOPT|        5     |       1     | 0.31925784E-03 | 0.61636523E+03 |   19.116
 BASOPT|        5     |       2     | 0.38203063E-03 | 0.33594922E+02 |   11.513
 BASOPT|        5     |       3     | 0.53061793E-03 | 0.57314829E+01 |    9.195
 BASOPT|        6     |       1     | 0.83570167E-05 | 0.70246376E+01 |    0.934
 BASOPT|        6     |       2     | 0.83570167E-05 | 0.70246376E+01 |    0.862
 BASOPT|        6     |       3     | 0.14313397E-04 | 0.10008059E+01 |    0.981
 BASOPT|        7     |       1     | 0.23195468E-03 | 0.10581186E+02 |    5.237
 BASOPT|        7     |       2     | 0.23288816E-03 | 0.93989788E+01 |    3.674
 BASOPT|        7     |       3     | 0.47270106E-03 | 0.11096844E+01 |    3.057
 BASOPT| -----------------------------------------------------------------------
 BASOPT| Total residuum value: -.13063434E+04

 BASOPT| Information at iteration number:     500
 BASOPT| Training set | Combination | Rho difference | Condition num. | Time
 BASOPT| -----------------------------------------------------------------------
 BASOPT|        1     |       1     | 0.37753605E-03 | 0.18735611E+02 |    7.144
 BASOPT|        1     |       2     | 0.37989315E-03 | 0.18196850E+02 |    5.447
 BASOPT|        1     |       3     | 0.40428584E-03 | 0.12637344E+01 |    4.595
 BASOPT|        2     |       1     | 0.11762190E-03 | 0.76605563E+01 |    2.974
 BASOPT|        2     |       2     | 0.11762755E-03 | 0.76605563E+01 |    2.611
 BASOPT|        2     |       3     | 0.24797835E-03 | 0.10142405E+01 |    2.456
 BASOPT|        3     |       1     | 0.19905102E-03 | 0.15898544E+02 |    3.029
 BASOPT|        3     |       2     | 0.19905102E-03 | 0.15898544E+02 |    2.415
 BASOPT|        3     |       3     | 0.20666308E-03 | 0.10116839E+01 |    2.405
 BASOPT|        4     |       1     | 0.15568451E-04 | 0.19651123E+02 |    3.245
 BASOPT|        4     |       2     | 0.18958972E-04 | 0.80190152E+01 |    2.448
 BASOPT|        4     |       3     | 0.35265871E-04 | 0.13729414E+01 |    2.301
 BASOPT|        5     |       1     | 0.31920188E-03 | 0.60874881E+03 |   23.908
 BASOPT|        5     |       2     | 0.38123037E-03 | 0.33385820E+02 |   14.387
 BASOPT|        5     |       3     | 0.54215435E-03 | 0.57454166E+01 |   11.490
 BASOPT|        6     |       1     | 0.89450749E-05 | 0.69749337E+01 |    1.169
 BASOPT|        6     |       2     | 0.89450749E-05 | 0.69749337E+01 |    1.077
 BASOPT|        6     |       3     | 0.17971525E-04 | 0.10030597E+01 |    1.226
 BASOPT|        7     |       1     | 0.22918274E-03 | 0.10635721E+02 |    6.546
 BASOPT|        7     |       2     | 0.23004763E-03 | 0.94514691E+01 |    4.589
 BASOPT|        7     |       3     | 0.48195116E-03 | 0.11099170E+01 |    3.820
 BASOPT| -----------------------------------------------------------------------
 BASOPT| Total residuum value: -.13063456E+04

 BASOPT| Information at iteration number:     600
 BASOPT| Training set | Combination | Rho difference | Condition num. | Time
 BASOPT| -----------------------------------------------------------------------
 BASOPT|        1     |       1     | 0.38044795E-03 | 0.18645411E+02 |    8.589
 BASOPT|        1     |       2     | 0.38278767E-03 | 0.18111649E+02 |    6.538
 BASOPT|        1     |       3     | 0.41427381E-03 | 0.12649157E+01 |    5.509
 BASOPT|        2     |       1     | 0.11835518E-03 | 0.76718816E+01 |    3.567
 BASOPT|        2     |       2     | 0.11836080E-03 | 0.76718816E+01 |    3.126
 BASOPT|        2     |       3     | 0.24788217E-03 | 0.10128778E+01 |    2.945
 BASOPT|        3     |       1     | 0.20053592E-03 | 0.15833835E+02 |    3.635
 BASOPT|        3     |       2     | 0.20053592E-03 | 0.15833835E+02 |    2.896
 BASOPT|        3     |       3     | 0.21311801E-03 | 0.10154248E+01 |    2.886
 BASOPT|        4     |       1     | 0.15270014E-04 | 0.19619690E+02 |    3.895
 BASOPT|        4     |       2     | 0.18622285E-04 | 0.79914399E+01 |    2.937
 BASOPT|        4     |       3     | 0.34033600E-04 | 0.13737017E+01 |    2.755
 BASOPT|        5     |       1     | 0.32118283E-03 | 0.59801853E+03 |   28.692
 BASOPT|        5     |       2     | 0.38328538E-03 | 0.33236310E+02 |   17.262
 BASOPT|        5     |       3     | 0.54124046E-03 | 0.57644144E+01 |   13.784
 BASOPT|        6     |       1     | 0.87831741E-05 | 0.69575318E+01 |    1.402
 BASOPT|        6     |       2     | 0.87831741E-05 | 0.69575318E+01 |    1.292
 BASOPT|        6     |       3     | 0.17325581E-04 | 0.10003272E+01 |    1.471
 BASOPT|        7     |       1     | 0.23068558E-03 | 0.10648097E+02 |    7.863
 BASOPT|        7     |       2     | 0.23153532E-03 | 0.94734884E+01 |    5.504
 BASOPT|        7     |       3     | 0.48197702E-03 | 0.11100811E+01 |    4.583
 BASOPT| -----------------------------------------------------------------------
 BASOPT| Total residuum value: -.13063454E+04

 BASOPT| Information at iteration number:     700
 BASOPT| Training set | Combination | Rho difference | Condition num. | Time
 BASOPT| -----------------------------------------------------------------------
 BASOPT|        1     |       1     | 0.37043810E-03 | 0.18516153E+02 |   10.036
 BASOPT|        1     |       2     | 0.37278391E-03 | 0.17986974E+02 |    7.632
 BASOPT|        1     |       3     | 0.40072417E-03 | 0.12651648E+01 |    6.425
 BASOPT|        2     |       1     | 0.11775082E-03 | 0.76542355E+01 |    4.162
 BASOPT|        2     |       2     | 0.11775645E-03 | 0.76542355E+01 |    3.640
 BASOPT|        2     |       3     | 0.22621425E-03 | 0.10106687E+01 |    3.436
 BASOPT|        3     |       1     | 0.19532223E-03 | 0.15724968E+02 |    4.243
 BASOPT|        3     |       2     | 0.19532223E-03 | 0.15724968E+02 |    3.379
 BASOPT|        3     |       3     | 0.20513797E-03 | 0.10207541E+01 |    3.368
 BASOPT|        4     |       1     | 0.15259624E-04 | 0.19610873E+02 |    4.546
 BASOPT|        4     |       2     | 0.18604211E-04 | 0.79155670E+01 |    3.428
 BASOPT|        4     |       3     | 0.35930068E-04 | 0.13747667E+01 |    3.213
 BASOPT|        5     |       1     | 0.31582288E-03 | 0.58781038E+03 |   33.471
 BASOPT|        5     |       2     | 0.37798547E-03 | 0.33089776E+02 |   20.139
 BASOPT|        5     |       3     | 0.52289751E-03 | 0.57870607E+01 |   16.080
 BASOPT|        6     |       1     | 0.87798644E-05 | 0.68956760E+01 |    1.636
 BASOPT|        6     |       2     | 0.87798644E-05 | 0.68956760E+01 |    1.507
 BASOPT|        6     |       3     | 0.18342107E-04 | 0.10090387E+01 |    1.715
 BASOPT|        7     |       1     | 0.22951553E-03 | 0.10627347E+02 |    9.180
 BASOPT|        7     |       2     | 0.23035616E-03 | 0.94607847E+01 |    6.420
 BASOPT|        7     |       3     | 0.44010103E-03 | 0.11091287E+01 |    5.348
 BASOPT| -----------------------------------------------------------------------
 BASOPT| Total residuum value: -.13063467E+04

 BASOPT| Information at iteration number:     800
 BASOPT| Training set | Combination | Rho difference | Condition num. | Time
 BASOPT| -----------------------------------------------------------------------
 BASOPT|        1     |       1     | 0.36751105E-03 | 0.18472576E+02 |   11.483
 BASOPT|        1     |       2     | 0.36980175E-03 | 0.17950104E+02 |    8.727
 BASOPT|        1     |       3     | 0.40312061E-03 | 0.12664051E+01 |    7.341
 BASOPT|        2     |       1     | 0.11720383E-03 | 0.76296013E+01 |    4.755
 BASOPT|        2     |       2     | 0.11720945E-03 | 0.76296013E+01 |    4.154
 BASOPT|        2     |       3     | 0.27135506E-03 | 0.10066963E+01 |    3.928
 BASOPT|        3     |       1     | 0.19371335E-03 | 0.15698322E+02 |    4.851
 BASOPT|        3     |       2     | 0.19371335E-03 | 0.15698322E+02 |    3.861
 BASOPT|        3     |       3     | 0.20711604E-03 | 0.10201946E+01 |    3.849
 BASOPT|        4     |       1     | 0.15470571E-04 | 0.19571132E+02 |    5.199
 BASOPT|        4     |       2     | 0.18850089E-04 | 0.78439395E+01 |    3.918
 BASOPT|        4     |       3     | 0.32758996E-04 | 0.13756515E+01 |    3.669
 BASOPT|        5     |       1     | 0.31442952E-03 | 0.55907725E+03 |   38.270
 BASOPT|        5     |       2     | 0.37676909E-03 | 0.32813774E+02 |   23.017
 BASOPT|        5     |       3     | 0.55043224E-03 | 0.58273020E+01 |   18.377
 BASOPT|        6     |       1     | 0.89047371E-05 | 0.68534595E+01 |    1.869
 BASOPT|        6     |       2     | 0.89047371E-05 | 0.68534595E+01 |    1.721
 BASOPT|        6     |       3     | 0.16611152E-04 | 0.10092939E+01 |    1.961
 BASOPT|        7     |       1     | 0.22834592E-03 | 0.10594498E+02 |   10.497
 BASOPT|        7     |       2     | 0.22919939E-03 | 0.94413346E+01 |    7.335
 BASOPT|        7     |       3     | 0.52679879E-03 | 0.11096271E+01 |    6.112
 BASOPT| -----------------------------------------------------------------------
 BASOPT| Total residuum value: -.13063477E+04

 BASOPT| Information at iteration number:     900
 BASOPT| Training set | Combination | Rho difference | Condition num. | Time
 BASOPT| -----------------------------------------------------------------------
 BASOPT|        1     |       1     | 0.37493403E-03 | 0.18500537E+02 |   12.930
 BASOPT|        1     |       2     | 0.37719677E-03 | 0.17978246E+02 |    9.822
 BASOPT|        1     |       3     | 0.40557696E-03 | 0.12661514E+01 |    8.258
 BASOPT|        2     |       1     | 0.11786062E-03 | 0.76360119E+01 |    5.349
 BASOPT|        2     |       2     | 0.11786624E-03 | 0.76360119E+01 |    4.668
 BASOPT|        2     |       3     | 0.25501938E-03 | 0.10088373E+01 |    4.419
 BASOPT|        3     |       1     | 0.19752121E-03 | 0.15717004E+02 |    5.459
 BASOPT|        3     |       2     | 0.19752121E-03 | 0.15717004E+02 |    4.343
 BASOPT|        3     |       3     | 0.20723448E-03 | 0.10212082E+01 |    4.331
 BASOPT|        4     |       1     | 0.15278195E-04 | 0.19591207E+02 |    5.852
 BASOPT|        4     |       2     | 0.18601484E-04 | 0.77914305E+01 |    4.408
 BASOPT|        4     |       3     | 0.34344666E-04 | 0.13747682E+01 |    4.125
 BASOPT|        5     |       1     | 0.31849230E-03 | 0.55643921E+03 |   43.071
 BASOPT|        5     |       2     | 0.38059083E-03 | 0.32837379E+02 |   25.896
 BASOPT|        5     |       3     | 0.54635165E-03 | 0.58156513E+01 |   20.673
 BASOPT|        6     |       1     | 0.87867379E-05 | 0.68022629E+01 |    2.102
 BASOPT|        6     |       2     | 0.87867379E-05 | 0.68022629E+01 |    1.937
 BASOPT|        6     |       3     | 0.17491929E-04 | 0.10056811E+01 |    2.206
 BASOPT|        7     |       1     | 0.22964921E-03 | 0.10608435E+02 |   11.814
 BASOPT|        7     |       2     | 0.23050225E-03 | 0.94499650E+01 |    8.251
 BASOPT|        7     |       3     | 0.49550076E-03 | 0.11093055E+01 |    6.877
 BASOPT| -----------------------------------------------------------------------
 BASOPT| Total residuum value: -.13063476E+04

 BASOPT| Information at iteration number:    1000
 BASOPT| Training set | Combination | Rho difference | Condition num. | Time
 BASOPT| -----------------------------------------------------------------------
 BASOPT|        1     |       1     | 0.37128067E-03 | 0.18378562E+02 |   14.377
 BASOPT|        1     |       2     | 0.37352589E-03 | 0.17861269E+02 |   10.918
 BASOPT|        1     |       3     | 0.39339126E-03 | 0.12673388E+01 |    9.175
 BASOPT|        2     |       1     | 0.11792388E-03 | 0.76219300E+01 |    5.944
 BASOPT|        2     |       2     | 0.11792956E-03 | 0.76219300E+01 |    5.185
 BASOPT|        2     |       3     | 0.24264212E-03 | 0.10066888E+01 |    4.910
 BASOPT|        3     |       1     | 0.19559704E-03 | 0.15628251E+02 |    6.069
 BASOPT|        3     |       2     | 0.19559704E-03 | 0.15628251E+02 |    4.825
 BASOPT|        3     |       3     | 0.20072647E-03 | 0.10177867E+01 |    4.813
 BASOPT|        4     |       1     | 0.15336697E-04 | 0.19506220E+02 |    6.505
 BASOPT|        4     |       2     | 0.18696047E-04 | 0.76126651E+01 |    4.899
 BASOPT|        4     |       3     | 0.41812082E-04 | 0.13738972E+01 |    4.578
 BASOPT|        5     |       1     | 0.31691835E-03 | 0.52512504E+03 |   47.873
 BASOPT|        5     |       2     | 0.37906874E-03 | 0.32340629E+02 |   28.777
 BASOPT|        5     |       3     | 0.54004882E-03 | 0.58443208E+01 |   22.973
 BASOPT|        6     |       1     | 0.88369138E-05 | 0.66579516E+01 |    2.335
 BASOPT|        6     |       2     | 0.88369138E-05 | 0.66579516E+01 |    2.154
 BASOPT|        6     |       3     | 0.21453804E-04 | 0.10038732E+01 |    2.451
 BASOPT|        7     |       1     | 0.22979375E-03 | 0.10607663E+02 |   13.133
 BASOPT|        7     |       2     | 0.23064110E-03 | 0.94489404E+01 |    9.166
 BASOPT|        7     |       3     | 0.47165724E-03 | 0.11084850E+01 |    7.643
 BASOPT| -----------------------------------------------------------------------
 BASOPT| Total residuum value: -.13063492E+04

 BASOPT| Information at iteration number:    1100
 BASOPT| Training set | Combination | Rho difference | Condition num. | Time
 BASOPT| -----------------------------------------------------------------------
 BASOPT|        1     |       1     | 0.36900468E-03 | 0.18206652E+02 |   15.827
 BASOPT|        1     |       2     | 0.37124465E-03 | 0.17688588E+02 |   12.014
 BASOPT|        1     |       3     | 0.38938896E-03 | 0.12697488E+01 |   10.090
 BASOPT|        2     |       1     | 0.11921240E-03 | 0.76084519E+01 |    6.539
 BASOPT|        2     |       2     | 0.11921806E-03 | 0.76084519E+01 |    5.701
 BASOPT|        2     |       3     | 0.25694749E-03 | 0.10091122E+01 |    5.401
 BASOPT|        3     |       1     | 0.19438324E-03 | 0.15475872E+02 |    6.680
 BASOPT|        3     |       2     | 0.19438324E-03 | 0.15475872E+02 |    5.306
 BASOPT|        3     |       3     | 0.19834921E-03 | 0.10293662E+01 |    5.295
 BASOPT|        4     |       1     | 0.14446174E-04 | 0.19545703E+02 |    7.158
 BASOPT|        4     |       2     | 0.17621579E-04 | 0.75976750E+01 |    5.391
 BASOPT|        4     |       3     | 0.31541640E-04 | 0.13766913E+01 |    5.030
 BASOPT|        5     |       1     | 0.31623428E-03 | 0.49982887E+03 |   52.679
 BASOPT|        5     |       2     | 0.37893699E-03 | 0.32106838E+02 |   31.660
 BASOPT|        5     |       3     | 0.53806365E-03 | 0.58913546E+01 |   25.274
 BASOPT|        6     |       1     | 0.83254690E-05 | 0.66620714E+01 |    2.569
 BASOPT|        6     |       2     | 0.83254690E-05 | 0.66620714E+01 |    2.372
 BASOPT|        6     |       3     | 0.16035726E-04 | 0.10050780E+01 |    2.695
 BASOPT|        7     |       1     | 0.23206521E-03 | 0.10580854E+02 |   14.451
 BASOPT|        7     |       2     | 0.23296100E-03 | 0.94389207E+01 |   10.080
 BASOPT|        7     |       3     | 0.49937593E-03 | 0.11092930E+01 |    8.409
 BASOPT| -----------------------------------------------------------------------
 BASOPT| Total residuum value: -.13063487E+04

 BASOPT| Information at iteration number:    1200
 BASOPT| Training set | Combination | Rho difference | Condition num. | Time
 BASOPT| -----------------------------------------------------------------------
 BASOPT|        1     |       1     | 0.36769155E-03 | 0.18023678E+02 |   17.279
 BASOPT|        1     |       2     | 0.36996368E-03 | 0.17503298E+02 |   13.111
 BASOPT|        1     |       3     | 0.39308175E-03 | 0.12713743E+01 |   11.006
 BASOPT|        2     |       1     | 0.11790052E-03 | 0.76244357E+01 |    7.133
 BASOPT|        2     |       2     | 0.11790615E-03 | 0.76244357E+01 |    6.217
 BASOPT|        2     |       3     | 0.23946393E-03 | 0.10104663E+01 |    5.892
 BASOPT|        3     |       1     | 0.19373049E-03 | 0.15322880E+02 |    7.292
 BASOPT|        3     |       2     | 0.19373049E-03 | 0.15322880E+02 |    5.789
 BASOPT|        3     |       3     | 0.20106272E-03 | 0.10322983E+01 |    5.778
 BASOPT|        4     |       1     | 0.14437820E-04 | 0.19411661E+02 |    7.813
 BASOPT|        4     |       2     | 0.17608085E-04 | 0.74296466E+01 |    5.882
 BASOPT|        4     |       3     | 0.36456379E-04 | 0.13765397E+01 |    5.483
 BASOPT|        5     |       1     | 0.31525287E-03 | 0.47569965E+03 |   57.486
 BASOPT|        5     |       2     | 0.37801687E-03 | 0.31644504E+02 |   34.545
 BASOPT|        5     |       3     | 0.52916289E-03 | 0.59203573E+01 |   27.576
 BASOPT|        6     |       1     | 0.83243496E-05 | 0.65250118E+01 |    2.802
 BASOPT|        6     |       2     | 0.83243496E-05 | 0.65250118E+01 |    2.588
 BASOPT|        6     |       3     | 0.18659089E-04 | 0.10031854E+01 |    2.940
 BASOPT|        7     |       1     | 0.22973879E-03 | 0.10588560E+02 |   15.769
 BASOPT|        7     |       2     | 0.23057762E-03 | 0.94536793E+01 |   10.995
 BASOPT|        7     |       3     | 0.46549381E-03 | 0.11086463E+01 |    9.178
 BASOPT| -----------------------------------------------------------------------
 BASOPT| Total residuum value: -.13063509E+04

 BASOPT| Information at iteration number:    1300
 BASOPT| Training set | Combination | Rho difference | Condition num. | Time
 BASOPT| -----------------------------------------------------------------------
 BASOPT|        1     |       1     | 0.37290023E-03 | 0.17743931E+02 |   18.736
 BASOPT|        1     |       2     | 0.37513455E-03 | 0.17224003E+02 |   14.208
 BASOPT|        1     |       3     | 0.39940649E-03 | 0.12733324E+01 |   11.921
 BASOPT|        2     |       1     | 0.12010537E-03 | 0.76678006E+01 |    7.729
 BASOPT|        2     |       2     | 0.12011100E-03 | 0.76678006E+01 |    6.734
 BASOPT|        2     |       3     | 0.23435147E-03 | 0.10135564E+01 |    6.384
 BASOPT|        3     |       1     | 0.19630592E-03 | 0.15077095E+02 |    7.904
 BASOPT|        3     |       2     | 0.19630592E-03 | 0.15077095E+02 |    6.272
 BASOPT|        3     |       3     | 0.20371934E-03 | 0.10447531E+01 |    6.261
 BASOPT|        4     |       1     | 0.15137078E-04 | 0.19409938E+02 |    8.468
 BASOPT|        4     |       2     | 0.18422228E-04 | 0.74171546E+01 |    6.373
 BASOPT|        4     |       3     | 0.30882927E-04 | 0.13775455E+01 |    5.941
 BASOPT|        5     |       1     | 0.32131605E-03 | 0.44223707E+03 |   62.294
 BASOPT|        5     |       2     | 0.38422853E-03 | 0.31343492E+02 |   37.433
 BASOPT|        5     |       3     | 0.52447634E-03 | 0.59794000E+01 |   29.879
 BASOPT|        6     |       1     | 0.87317132E-05 | 0.65369111E+01 |    3.036
 BASOPT|        6     |       2     | 0.87317132E-05 | 0.65369111E+01 |    2.803
 BASOPT|        6     |       3     | 0.15605914E-04 | 0.10051768E+01 |    3.184
 BASOPT|        7     |       1     | 0.23443381E-03 | 0.10649320E+02 |   17.087
 BASOPT|        7     |       2     | 0.23521395E-03 | 0.95083618E+01 |   11.910
 BASOPT|        7     |       3     | 0.45643379E-03 | 0.11083864E+01 |    9.947
 BASOPT| -----------------------------------------------------------------------
 BASOPT| Total residuum value: -.13063508E+04

 BASOPT| Information at iteration number:    1400
 BASOPT| Training set | Combination | Rho difference | Condition num. | Time
 BASOPT| -----------------------------------------------------------------------
 BASOPT|        1     |       1     | 0.37714766E-03 | 0.17757748E+02 |   20.192
 BASOPT|        1     |       2     | 0.37942685E-03 | 0.17237576E+02 |   15.303
 BASOPT|        1     |       3     | 0.41473955E-03 | 0.12741824E+01 |   12.837
 BASOPT|        2     |       1     | 0.11954869E-03 | 0.76479461E+01 |    8.323
 BASOPT|        2     |       2     | 0.11955432E-03 | 0.76479461E+01 |    7.252
 BASOPT|        2     |       3     | 0.23930135E-03 | 0.10142860E+01 |    6.876
 BASOPT|        3     |       1     | 0.19861035E-03 | 0.15092343E+02 |    8.517
 BASOPT|        3     |       2     | 0.19861035E-03 | 0.15092343E+02 |    6.754
 BASOPT|        3     |       3     | 0.21316787E-03 | 0.10421623E+01 |    6.743
 BASOPT|        4     |       1     | 0.15106061E-04 | 0.19409616E+02 |    9.123
 BASOPT|        4     |       2     | 0.18388391E-04 | 0.74773556E+01 |    6.865
 BASOPT|        4     |       3     | 0.27687788E-04 | 0.13771608E+01 |    6.398
 BASOPT|        5     |       1     | 0.32280432E-03 | 0.43366924E+03 |   67.102
 BASOPT|        5     |       2     | 0.38558735E-03 | 0.31359082E+02 |   40.318
 BASOPT|        5     |       3     | 0.52597594E-03 | 0.59784964E+01 |   32.184
 BASOPT|        6     |       1     | 0.87161913E-05 | 0.65930497E+01 |    3.270
 BASOPT|        6     |       2     | 0.87161913E-05 | 0.65930497E+01 |    3.018
 BASOPT|        6     |       3     | 0.13884234E-04 | 0.10056265E+01 |    3.430
 BASOPT|        7     |       1     | 0.23331336E-03 | 0.10616386E+02 |   18.406
 BASOPT|        7     |       2     | 0.23409354E-03 | 0.94855370E+01 |   12.826
 BASOPT|        7     |       3     | 0.46580251E-03 | 0.11091630E+01 |   10.717
 BASOPT| -----------------------------------------------------------------------
 BASOPT| Total residuum value: -.13063510E+04

 BASOPT| Information at iteration number:    1500
 BASOPT| Training set | Combination | Rho difference | Condition num. | Time
 BASOPT| -----------------------------------------------------------------------
 BASOPT|        1     |       1     | 0.37121495E-03 | 0.17468816E+02 |   21.650
 BASOPT|        1     |       2     | 0.37352991E-03 | 0.16946224E+02 |   16.401
 BASOPT|        1     |       3     | 0.39434501E-03 | 0.12773708E+01 |   13.745
 BASOPT|        2     |       1     | 0.11809903E-03 | 0.76217710E+01 |    8.918
 BASOPT|        2     |       2     | 0.11810475E-03 | 0.76217710E+01 |    7.771
 BASOPT|        2     |       3     | 0.22373445E-03 | 0.10149373E+01 |    7.369
 BASOPT|        3     |       1     | 0.19554927E-03 | 0.14847694E+02 |    9.133
 BASOPT|        3     |       2     | 0.19554927E-03 | 0.14847694E+02 |    7.238
 BASOPT|        3     |       3     | 0.20143957E-03 | 0.10506936E+01 |    7.227
 BASOPT|        4     |       1     | 0.14605165E-04 | 0.19378931E+02 |    9.778
 BASOPT|        4     |       2     | 0.17759981E-04 | 0.74015024E+01 |    7.359
 BASOPT|        4     |       3     | 0.25474530E-04 | 0.13779693E+01 |    6.857
 BASOPT|        5     |       1     | 0.31823672E-03 | 0.41219766E+03 |   71.906
 BASOPT|        5     |       2     | 0.38088467E-03 | 0.30995596E+02 |   43.204
 BASOPT|        5     |       3     | 0.50424161E-03 | 0.60393892E+01 |   34.492
 BASOPT|        6     |       1     | 0.84320177E-05 | 0.65391643E+01 |    3.504
 BASOPT|        6     |       2     | 0.84320177E-05 | 0.65391643E+01 |    3.234
 BASOPT|        6     |       3     | 0.12734640E-04 | 0.10161200E+01 |    3.675
 BASOPT|        7     |       1     | 0.23026982E-03 | 0.10593167E+02 |   19.724
 BASOPT|        7     |       2     | 0.23107676E-03 | 0.94594689E+01 |   13.740
 BASOPT|        7     |       3     | 0.43539471E-03 | 0.11075879E+01 |   11.487
 BASOPT| -----------------------------------------------------------------------
 BASOPT| Total residuum value: -.13063533E+04

 BASOPT| Information at iteration number:    1600
 BASOPT| Training set | Combination | Rho difference | Condition num. | Time
 BASOPT| -----------------------------------------------------------------------
 BASOPT|        1     |       1     | 0.36821831E-03 | 0.17508583E+02 |   23.105
 BASOPT|        1     |       2     | 0.37050538E-03 | 0.16983978E+02 |   17.498
 BASOPT|        1     |       3     | 0.39213706E-03 | 0.12769368E+01 |   14.647
 BASOPT|        2     |       1     | 0.11727308E-03 | 0.76059995E+01 |    9.512
 BASOPT|        2     |       2     | 0.11727880E-03 | 0.76059995E+01 |    8.291
 BASOPT|        2     |       3     | 0.20992776E-03 | 0.10155132E+01 |    7.862
 BASOPT|        3     |       1     | 0.19395467E-03 | 0.14871991E+02 |    9.751
 BASOPT|        3     |       2     | 0.19395467E-03 | 0.14871991E+02 |    7.722
 BASOPT|        3     |       3     | 0.19958200E-03 | 0.10489195E+01 |    7.710
 BASOPT|        4     |       1     | 0.16700744E-04 | 0.19378690E+02 |   10.434
 BASOPT|        4     |       2     | 0.20269495E-04 | 0.74265367E+01 |    7.855
 BASOPT|        4     |       3     | 0.33599703E-04 | 0.13785624E+01 |    7.315
 BASOPT|        5     |       1     | 0.31777775E-03 | 0.41265395E+03 |   76.709
 BASOPT|        5     |       2     | 0.38143738E-03 | 0.31034935E+02 |   46.092
 BASOPT|        5     |       3     | 0.50508077E-03 | 0.60189024E+01 |   36.795
 BASOPT|        6     |       1     | 0.96341408E-05 | 0.65599804E+01 |    3.740
 BASOPT|        6     |       2     | 0.96341408E-05 | 0.65599804E+01 |    3.450
 BASOPT|        6     |       3     | 0.16922334E-04 | 0.10127700E+01 |    3.921
 BASOPT|        7     |       1     | 0.22870216E-03 | 0.10572399E+02 |   21.042
 BASOPT|        7     |       2     | 0.22949878E-03 | 0.94377130E+01 |   14.656
 BASOPT|        7     |       3     | 0.40867120E-03 | 0.11081699E+01 |   12.256
 BASOPT| -----------------------------------------------------------------------
 BASOPT| Total residuum value: -.13063474E+04

 BASOPT| Information at iteration number:    1700
 BASOPT| Training set | Combination | Rho difference | Condition num. | Time
 BASOPT| -----------------------------------------------------------------------
 BASOPT|        1     |       1     | 0.36727887E-03 | 0.17384916E+02 |   24.558
 BASOPT|        1     |       2     | 0.36960196E-03 | 0.16865156E+02 |   18.596
 BASOPT|        1     |       3     | 0.39730702E-03 | 0.12780295E+01 |   15.548
 BASOPT|        2     |       1     | 0.11959802E-03 | 0.76137641E+01 |   10.107
 BASOPT|        2     |       2     | 0.11960374E-03 | 0.76137641E+01 |    8.810
 BASOPT|        2     |       3     | 0.24959558E-03 | 0.10167626E+01 |    8.355
 BASOPT|        3     |       1     | 0.19352484E-03 | 0.14774471E+02 |   10.370
 BASOPT|        3     |       2     | 0.19352484E-03 | 0.14774471E+02 |    8.206
 BASOPT|        3     |       3     | 0.20314680E-03 | 0.10528990E+01 |    8.194
 BASOPT|        4     |       1     | 0.15578967E-04 | 0.19451669E+02 |   11.089
 BASOPT|        4     |       2     | 0.18959124E-04 | 0.74903435E+01 |    8.352
 BASOPT|        4     |       3     | 0.24614034E-04 | 0.13776236E+01 |    7.774
 BASOPT|        5     |       1     | 0.31837368E-03 | 0.40775036E+03 |   81.508
 BASOPT|        5     |       2     | 0.38191547E-03 | 0.30961398E+02 |   48.980
 BASOPT|        5     |       3     | 0.52308783E-03 | 0.60179917E+01 |   39.103
 BASOPT|        6     |       1     | 0.90000006E-05 | 0.66230846E+01 |    3.974
 BASOPT|        6     |       2     | 0.90000006E-05 | 0.66230846E+01 |    3.666
 BASOPT|        6     |       3     | 0.12159800E-04 | 0.10139883E+01 |    4.166
 BASOPT|        7     |       1     | 0.23327772E-03 | 0.10571073E+02 |   22.360
 BASOPT|        7     |       2     | 0.23407561E-03 | 0.94456010E+01 |   15.572
 BASOPT|        7     |       3     | 0.48559225E-03 | 0.11080776E+01 |   13.026
 BASOPT| -----------------------------------------------------------------------
 BASOPT| Total residuum value: -.13063526E+04

 BASOPT| Information at iteration number:    1800
 BASOPT| Training set | Combination | Rho difference | Condition num. | Time
 BASOPT| -----------------------------------------------------------------------
 BASOPT|        1     |       1     | 0.37121406E-03 | 0.17353935E+02 |   26.008
 BASOPT|        1     |       2     | 0.37351974E-03 | 0.16832524E+02 |   19.698
 BASOPT|        1     |       3     | 0.39893411E-03 | 0.12788467E+01 |   16.451
 BASOPT|        2     |       1     | 0.11834928E-03 | 0.75944472E+01 |   10.702
 BASOPT|        2     |       2     | 0.11835501E-03 | 0.75944472E+01 |    9.330
 BASOPT|        2     |       3     | 0.25047626E-03 | 0.10163555E+01 |    8.849
 BASOPT|        3     |       1     | 0.19553848E-03 | 0.14749284E+02 |   10.990
 BASOPT|        3     |       2     | 0.19553848E-03 | 0.14749284E+02 |    8.690
 BASOPT|        3     |       3     | 0.20437437E-03 | 0.10558345E+01 |    8.679
 BASOPT|        4     |       1     | 0.15844652E-04 | 0.19445865E+02 |   11.744
 BASOPT|        4     |       2     | 0.19270288E-04 | 0.74501246E+01 |    8.849
 BASOPT|        4     |       3     | 0.27408452E-04 | 0.13778424E+01 |    8.234
 BASOPT|        5     |       1     | 0.31928868E-03 | 0.40167817E+03 |   86.310
 BASOPT|        5     |       2     | 0.38262029E-03 | 0.30881030E+02 |   51.869
 BASOPT|        5     |       3     | 0.52673671E-03 | 0.60349347E+01 |   41.410
 BASOPT|        6     |       1     | 0.91539623E-05 | 0.65869424E+01 |    4.209
 BASOPT|        6     |       2     | 0.91539623E-05 | 0.65869424E+01 |    3.881
 BASOPT|        6     |       3     | 0.13659857E-04 | 0.10098087E+01 |    4.411
 BASOPT|        7     |       1     | 0.23065964E-03 | 0.10545946E+02 |   23.679
 BASOPT|        7     |       2     | 0.23148511E-03 | 0.94222515E+01 |   16.488
 BASOPT|        7     |       3     | 0.48685937E-03 | 0.11076786E+01 |   13.795
 BASOPT| -----------------------------------------------------------------------
 BASOPT| Total residuum value: -.13063546E+04

 BASOPT| Information at iteration number:    1900
 BASOPT| Training set | Combination | Rho difference | Condition num. | Time
 BASOPT| -----------------------------------------------------------------------
 BASOPT|        1     |       1     | 0.37059674E-03 | 0.17352848E+02 |   27.460
 BASOPT|        1     |       2     | 0.37291005E-03 | 0.16830808E+02 |   20.802
 BASOPT|        1     |       3     | 0.39884510E-03 | 0.12787426E+01 |   17.354
 BASOPT|        2     |       1     | 0.11809314E-03 | 0.75853186E+01 |   11.297
 BASOPT|        2     |       2     | 0.11809887E-03 | 0.75853186E+01 |    9.851
 BASOPT|        2     |       3     | 0.25305026E-03 | 0.10164006E+01 |    9.344
 BASOPT|        3     |       1     | 0.19522910E-03 | 0.14747445E+02 |   11.610
 BASOPT|        3     |       2     | 0.19522910E-03 | 0.14747445E+02 |    9.176
 BASOPT|        3     |       3     | 0.20422069E-03 | 0.10543182E+01 |    9.163
 BASOPT|        4     |       1     | 0.15518330E-04 | 0.19420693E+02 |   12.400
 BASOPT|        4     |       2     | 0.18879401E-04 | 0.74242036E+01 |    9.347
 BASOPT|        4     |       3     | 0.27191209E-04 | 0.13778955E+01 |    8.693
 BASOPT|        5     |       1     | 0.31850487E-03 | 0.40024508E+03 |   91.125
 BASOPT|        5     |       2     | 0.38179276E-03 | 0.30851195E+02 |   54.757
 BASOPT|        5     |       3     | 0.52871715E-03 | 0.60376412E+01 |   43.716
 BASOPT|        6     |       1     | 0.89655123E-05 | 0.65634421E+01 |    4.444
 BASOPT|        6     |       2     | 0.89655123E-05 | 0.65634421E+01 |    4.097
 BASOPT|        6     |       3     | 0.13571839E-04 | 0.10090948E+01 |    4.656
 BASOPT|        7     |       1     | 0.23011631E-03 | 0.10536441E+02 |   24.998
 BASOPT|        7     |       2     | 0.23094919E-03 | 0.94122855E+01 |   17.406
 BASOPT|        7     |       3     | 0.49171154E-03 | 0.11077586E+01 |   14.564
 BASOPT| -----------------------------------------------------------------------
 BASOPT| Total residuum value: -.13063547E+04

 BASOPT| Information at iteration number:    2000
 BASOPT| Training set | Combination | Rho difference | Condition num. | Time
 BASOPT| -----------------------------------------------------------------------
 BASOPT|        1     |       1     | 0.37066261E-03 | 0.17128497E+02 |   28.910
 BASOPT|        1     |       2     | 0.37301984E-03 | 0.16605644E+02 |   21.908
 BASOPT|        1     |       3     | 0.39534613E-03 | 0.12808165E+01 |   18.257
 BASOPT|        2     |       1     | 0.11846552E-03 | 0.75756207E+01 |   11.891
 BASOPT|        2     |       2     | 0.11847125E-03 | 0.75756207E+01 |   10.371
 BASOPT|        2     |       3     | 0.25364619E-03 | 0.10157648E+01 |    9.839
 BASOPT|        3     |       1     | 0.19533342E-03 | 0.14555252E+02 |   12.230
 BASOPT|        3     |       2     | 0.19533342E-03 | 0.14555252E+02 |    9.663
 BASOPT|        3     |       3     | 0.20232625E-03 | 0.10667941E+01 |    9.648
 BASOPT|        4     |       1     | 0.15281141E-04 | 0.19477192E+02 |   13.055
 BASOPT|        4     |       2     | 0.18578928E-04 | 0.73480824E+01 |    9.845
 BASOPT|        4     |       3     | 0.28439392E-04 | 0.13771318E+01 |    9.152
 BASOPT|        5     |       1     | 0.31852004E-03 | 0.38825746E+03 |   95.942
 BASOPT|        5     |       2     | 0.38171680E-03 | 0.30580499E+02 |   57.648
 BASOPT|        5     |       3     | 0.52987692E-03 | 0.60453492E+01 |   46.021
 BASOPT|        6     |       1     | 0.88241852E-05 | 0.64958294E+01 |    4.678
 BASOPT|        6     |       2     | 0.88241852E-05 | 0.64958294E+01 |    4.313
 BASOPT|        6     |       3     | 0.14273479E-04 | 0.10026211E+01 |    4.900
 BASOPT|        7     |       1     | 0.23077620E-03 | 0.10512163E+02 |   26.317
 BASOPT|        7     |       2     | 0.23162226E-03 | 0.93966293E+01 |   18.321
 BASOPT|        7     |       3     | 0.49288496E-03 | 0.11072055E+01 |   15.333
 BASOPT| -----------------------------------------------------------------------
 BASOPT| Total residuum value: -.13063557E+04

 BASOPT| Information at iteration number:    2100
 BASOPT| Training set | Combination | Rho difference | Condition num. | Time
 BASOPT| -----------------------------------------------------------------------
 BASOPT|        1     |       1     | 0.37121938E-03 | 0.17005364E+02 |   30.361
 BASOPT|        1     |       2     | 0.37358906E-03 | 0.16480816E+02 |   23.014
 BASOPT|        1     |       3     | 0.40042107E-03 | 0.12822817E+01 |   19.164
 BASOPT|        2     |       1     | 0.11858147E-03 | 0.75723140E+01 |   12.485
 BASOPT|        2     |       2     | 0.11858720E-03 | 0.75723140E+01 |   10.892
 BASOPT|        2     |       3     | 0.25348557E-03 | 0.10156687E+01 |   10.334
 BASOPT|        3     |       1     | 0.19563472E-03 | 0.14448645E+02 |   12.851
 BASOPT|        3     |       2     | 0.19563472E-03 | 0.14448645E+02 |   10.150
 BASOPT|        3     |       3     | 0.20543008E-03 | 0.10718215E+01 |   10.133
 BASOPT|        4     |       1     | 0.15072752E-04 | 0.19438557E+02 |   13.711
 BASOPT|        4     |       2     | 0.18324800E-04 | 0.72907149E+01 |   10.344
 BASOPT|        4     |       3     | 0.28864479E-04 | 0.13773297E+01 |    9.611
 BASOPT|        5     |       1     | 0.31886214E-03 | 0.37864164E+03 |  100.761
 BASOPT|        5     |       2     | 0.38210316E-03 | 0.30376010E+02 |   60.538
 BASOPT|        5     |       3     | 0.53152630E-03 | 0.60549442E+01 |   48.326
 BASOPT|        6     |       1     | 0.87028002E-05 | 0.64486481E+01 |    4.913
 BASOPT|        6     |       2     | 0.87028002E-05 | 0.64486481E+01 |    4.529
 BASOPT|        6     |       3     | 0.14520032E-04 | 0.10010522E+01 |    5.146
 BASOPT|        7     |       1     | 0.23102953E-03 | 0.10503204E+02 |   27.636
 BASOPT|        7     |       2     | 0.23187079E-03 | 0.93894454E+01 |   19.237
 BASOPT|        7     |       3     | 0.49264341E-03 | 0.11069506E+01 |   16.103
 BASOPT| -----------------------------------------------------------------------
 BASOPT| Total residuum value: -.13063563E+04

 BASOPT| Information at iteration number:    2200
 BASOPT| Training set | Combination | Rho difference | Condition num. | Time
 BASOPT| -----------------------------------------------------------------------
 BASOPT|        1     |       1     | 0.37101337E-03 | 0.16816590E+02 |   31.812
 BASOPT|        1     |       2     | 0.37340090E-03 | 0.16292966E+02 |   24.122
 BASOPT|        1     |       3     | 0.39559967E-03 | 0.12829759E+01 |   20.070
 BASOPT|        2     |       1     | 0.11843936E-03 | 0.75577036E+01 |   13.080
 BASOPT|        2     |       2     | 0.11844510E-03 | 0.75577036E+01 |   11.414
 BASOPT|        2     |       3     | 0.25153442E-03 | 0.10164143E+01 |   10.830
 BASOPT|        3     |       1     | 0.19552365E-03 | 0.14287488E+02 |   13.472
 BASOPT|        3     |       2     | 0.19552365E-03 | 0.14287488E+02 |   10.635
 BASOPT|        3     |       3     | 0.20248212E-03 | 0.10766216E+01 |   10.621
 BASOPT|        4     |       1     | 0.14654314E-04 | 0.19449875E+02 |   14.367
 BASOPT|        4     |       2     | 0.17792200E-04 | 0.71973590E+01 |   10.843
 BASOPT|        4     |       3     | 0.30396343E-04 | 0.13773035E+01 |   10.070
 BASOPT|        5     |       1     | 0.31844378E-03 | 0.36393790E+03 |  105.584
 BASOPT|        5     |       2     | 0.38143535E-03 | 0.30129949E+02 |   63.429
 BASOPT|        5     |       3     | 0.53167273E-03 | 0.60722350E+01 |   50.634
 BASOPT|        6     |       1     | 0.84532700E-05 | 0.63666477E+01 |    5.147
 BASOPT|        6     |       2     | 0.84532700E-05 | 0.63666477E+01 |    4.744
 BASOPT|        6     |       3     | 0.15387461E-04 | 0.10005254E+01 |    5.391
 BASOPT|        7     |       1     | 0.23071332E-03 | 0.10483893E+02 |   28.954
 BASOPT|        7     |       2     | 0.23155898E-03 | 0.93745964E+01 |   20.153
 BASOPT|        7     |       3     | 0.48881053E-03 | 0.11068621E+01 |   16.873
 BASOPT| -----------------------------------------------------------------------
 BASOPT| Total residuum value: -.13063573E+04

 BASOPT| Information at iteration number:    2300
 BASOPT| Training set | Combination | Rho difference | Condition num. | Time
 BASOPT| -----------------------------------------------------------------------
 BASOPT|        1     |       1     | 0.37079806E-03 | 0.16280871E+02 |   33.266
 BASOPT|        1     |       2     | 0.37323994E-03 | 0.15753459E+02 |   25.230
 BASOPT|        1     |       3     | 0.39668578E-03 | 0.12896241E+01 |   20.975
 BASOPT|        2     |       1     | 0.11869403E-03 | 0.75433510E+01 |   13.676
 BASOPT|        2     |       2     | 0.11869977E-03 | 0.75433510E+01 |   11.936
 BASOPT|        2     |       3     | 0.25337962E-03 | 0.10183174E+01 |   11.325
 BASOPT|        3     |       1     | 0.19539817E-03 | 0.13815515E+02 |   14.093
 BASOPT|        3     |       2     | 0.19539817E-03 | 0.13815515E+02 |   11.121
 BASOPT|        3     |       3     | 0.20320214E-03 | 0.10968451E+01 |   11.107
 BASOPT|        4     |       1     | 0.14595329E-04 | 0.19482105E+02 |   15.022
 BASOPT|        4     |       2     | 0.17672300E-04 | 0.70856001E+01 |   11.341
 BASOPT|        4     |       3     | 0.30487421E-04 | 0.13774636E+01 |   10.530
 BASOPT|        5     |       1     | 0.31883027E-03 | 0.32812122E+03 |  110.404
 BASOPT|        5     |       2     | 0.38173627E-03 | 0.29546608E+02 |   66.318
 BASOPT|        5     |       3     | 0.53378917E-03 | 0.61124842E+01 |   52.942
 BASOPT|        6     |       1     | 0.84084610E-05 | 0.62774369E+01 |    5.383
 BASOPT|        6     |       2     | 0.84084610E-05 | 0.62774369E+01 |    4.960
 BASOPT|        6     |       3     | 0.15446543E-04 | 0.10060003E+01 |    5.637
 BASOPT|        7     |       1     | 0.23129380E-03 | 0.10470871E+02 |   30.273
 BASOPT|        7     |       2     | 0.23212241E-03 | 0.93617824E+01 |   21.069
 BASOPT|        7     |       3     | 0.49248171E-03 | 0.11065454E+01 |   17.642
 BASOPT| -----------------------------------------------------------------------
 BASOPT| Total residuum value: -.13063598E+04

 BASOPT| Information at iteration number:    2400
 BASOPT| Training set | Combination | Rho difference | Condition num. | Time
 BASOPT| -----------------------------------------------------------------------
 BASOPT|        1     |       1     | 0.37254682E-03 | 0.16097554E+02 |   34.723
 BASOPT|        1     |       2     | 0.37500434E-03 | 0.15570627E+02 |   26.339
 BASOPT|        1     |       3     | 0.40027049E-03 | 0.12924131E+01 |   21.882
 BASOPT|        2     |       1     | 0.11830576E-03 | 0.75282834E+01 |   14.271
 BASOPT|        2     |       2     | 0.11831149E-03 | 0.75282834E+01 |   12.458
 BASOPT|        2     |       3     | 0.25628424E-03 | 0.10183775E+01 |   11.822
 BASOPT|        3     |       1     | 0.19631383E-03 | 0.13656536E+02 |   14.715
 BASOPT|        3     |       2     | 0.19631383E-03 | 0.13656536E+02 |   11.607
 BASOPT|        3     |       3     | 0.20548147E-03 | 0.11021531E+01 |   11.594
 BASOPT|        4     |       1     | 0.14702138E-04 | 0.19449571E+02 |   15.678
 BASOPT|        4     |       2     | 0.17794574E-04 | 0.70349672E+01 |   11.841
 BASOPT|        4     |       3     | 0.32143615E-04 | 0.13777924E+01 |   10.990
 BASOPT|        5     |       1     | 0.31962791E-03 | 0.31316390E+03 |  115.225
 BASOPT|        5     |       2     | 0.38252460E-03 | 0.29306240E+02 |   69.208
 BASOPT|        5     |       3     | 0.53863825E-03 | 0.61380360E+01 |   55.254
 BASOPT|        6     |       1     | 0.84720719E-05 | 0.62374325E+01 |    5.618
 BASOPT|        6     |       2     | 0.84720719E-05 | 0.62374325E+01 |    5.176
 BASOPT|        6     |       3     | 0.16318462E-04 | 0.10073903E+01 |    5.881
 BASOPT|        7     |       1     | 0.23050048E-03 | 0.10448317E+02 |   31.592
 BASOPT|        7     |       2     | 0.23133202E-03 | 0.93444770E+01 |   21.985
 BASOPT|        7     |       3     | 0.49797200E-03 | 0.11062385E+01 |   18.412
 BASOPT| -----------------------------------------------------------------------
 BASOPT| Total residuum value: -.13063609E+04

 BASOPT| Information at iteration number:    2500
 BASOPT| Training set | Combination | Rho difference | Condition num. | Time
 BASOPT| -----------------------------------------------------------------------
 BASOPT|        1     |       1     | 0.37074423E-03 | 0.15862399E+02 |   36.177
 BASOPT|        1     |       2     | 0.37321452E-03 | 0.15326232E+02 |   27.451
 BASOPT|        1     |       3     | 0.39533384E-03 | 0.12968526E+01 |   22.788
 BASOPT|        2     |       1     | 0.11873103E-03 | 0.75339401E+01 |   14.867
 BASOPT|        2     |       2     | 0.11873674E-03 | 0.75339401E+01 |   12.980
 BASOPT|        2     |       3     | 0.25061986E-03 | 0.10192574E+01 |   12.319
 BASOPT|        3     |       1     | 0.19529961E-03 | 0.13429065E+02 |   15.337
 BASOPT|        3     |       2     | 0.19529961E-03 | 0.13429065E+02 |   12.093
 BASOPT|        3     |       3     | 0.20249771E-03 | 0.11153771E+01 |   12.081
 BASOPT|        4     |       1     | 0.15062336E-04 | 0.19456286E+02 |   16.334
 BASOPT|        4     |       2     | 0.18224299E-04 | 0.70355829E+01 |   12.339
 BASOPT|        4     |       3     | 0.29001063E-04 | 0.13780323E+01 |   11.449
 BASOPT|        5     |       1     | 0.31977437E-03 | 0.29638716E+03 |  120.042
 BASOPT|        5     |       2     | 0.38283158E-03 | 0.29065200E+02 |   72.100
 BASOPT|        5     |       3     | 0.52939902E-03 | 0.61506650E+01 |   57.563
 BASOPT|        6     |       1     | 0.86803529E-05 | 0.62494335E+01 |    5.852
 BASOPT|        6     |       2     | 0.86803529E-05 | 0.62494335E+01 |    5.392
 BASOPT|        6     |       3     | 0.14597083E-04 | 0.10092181E+01 |    6.127
 BASOPT|        7     |       1     | 0.23140375E-03 | 0.10460948E+02 |   32.911
 BASOPT|        7     |       2     | 0.23222060E-03 | 0.93562685E+01 |   22.901
 BASOPT|        7     |       3     | 0.48722013E-03 | 0.11057293E+01 |   19.181
 BASOPT| -----------------------------------------------------------------------
 BASOPT| Total residuum value: -.13063620E+04

 BASOPT| Information at iteration number:    2600
 BASOPT| Training set | Combination | Rho difference | Condition num. | Time
 BASOPT| -----------------------------------------------------------------------
 BASOPT|        1     |       1     | 0.37304223E-03 | 0.15611217E+02 |   37.635
 BASOPT|        1     |       2     | 0.37554135E-03 | 0.15076920E+02 |   28.560
 BASOPT|        1     |       3     | 0.39997646E-03 | 0.13004781E+01 |   23.693
 BASOPT|        2     |       1     | 0.11798731E-03 | 0.75136149E+01 |   15.462
 BASOPT|        2     |       2     | 0.11799302E-03 | 0.75136149E+01 |   13.504
 BASOPT|        2     |       3     | 0.25809825E-03 | 0.10211198E+01 |   12.816
 BASOPT|        3     |       1     | 0.19653645E-03 | 0.13208346E+02 |   15.959
 BASOPT|        3     |       2     | 0.19653645E-03 | 0.13208346E+02 |   12.579
 BASOPT|        3     |       3     | 0.20534151E-03 | 0.11227893E+01 |   12.569
 BASOPT|        4     |       1     | 0.15186041E-04 | 0.19408799E+02 |   16.991
 BASOPT|        4     |       2     | 0.18360441E-04 | 0.70204935E+01 |   12.839
 BASOPT|        4     |       3     | 0.27270383E-04 | 0.13786008E+01 |   11.909
 BASOPT|        5     |       1     | 0.32055620E-03 | 0.28071533E+03 |  124.862
 BASOPT|        5     |       2     | 0.38353869E-03 | 0.28764194E+02 |   74.990
 BASOPT|        5     |       3     | 0.53323256E-03 | 0.61775251E+01 |   59.871
 BASOPT|        6     |       1     | 0.87505496E-05 | 0.62453194E+01 |    6.089
 BASOPT|        6     |       2     | 0.87505496E-05 | 0.62453194E+01 |    5.608
 BASOPT|        6     |       3     | 0.13650538E-04 | 0.10097117E+01 |    6.372
 BASOPT|        7     |       1     | 0.22990280E-03 | 0.10441067E+02 |   34.230
 BASOPT|        7     |       2     | 0.23072427E-03 | 0.93373780E+01 |   23.817
 BASOPT|        7     |       3     | 0.50141920E-03 | 0.11054820E+01 |   19.951
 BASOPT| -----------------------------------------------------------------------
 BASOPT| Total residuum value: -.13063634E+04

 BASOPT| Information at iteration number:    2700
 BASOPT| Training set | Combination | Rho difference | Condition num. | Time
 BASOPT| -----------------------------------------------------------------------
 BASOPT|        1     |       1     | 0.36824322E-03 | 0.15497970E+02 |   39.095
 BASOPT|        1     |       2     | 0.37075568E-03 | 0.14960713E+02 |   29.668
 BASOPT|        1     |       3     | 0.39599894E-03 | 0.13044469E+01 |   24.599
 BASOPT|        2     |       1     | 0.11871240E-03 | 0.74927328E+01 |   16.059
 BASOPT|        2     |       2     | 0.11871810E-03 | 0.74927328E+01 |   14.028
 BASOPT|        2     |       3     | 0.25538406E-03 | 0.10202341E+01 |   13.313
 BASOPT|        3     |       1     | 0.19398721E-03 | 0.13092891E+02 |   16.582
 BASOPT|        3     |       2     | 0.19398721E-03 | 0.13092891E+02 |   13.065
 BASOPT|        3     |       3     | 0.20329492E-03 | 0.11328879E+01 |   13.057
 BASOPT|        4     |       1     | 0.15052711E-04 | 0.19375784E+02 |   17.650
 BASOPT|        4     |       2     | 0.18184745E-04 | 0.69932711E+01 |   13.338
 BASOPT|        4     |       3     | 0.26105697E-04 | 0.13794638E+01 |   12.369
 BASOPT|        5     |       1     | 0.31894355E-03 | 0.26965690E+03 |  129.684
 BASOPT|        5     |       2     | 0.38205269E-03 | 0.28615614E+02 |   77.882
 BASOPT|        5     |       3     | 0.52754175E-03 | 0.61919837E+01 |   62.181
 BASOPT|        6     |       1     | 0.86672941E-05 | 0.62262199E+01 |    6.324
 BASOPT|        6     |       2     | 0.86672941E-05 | 0.62262199E+01 |    5.824
 BASOPT|        6     |       3     | 0.13032913E-04 | 0.10115063E+01 |    6.618
 BASOPT|        7     |       1     | 0.23127341E-03 | 0.10418464E+02 |   35.547
 BASOPT|        7     |       2     | 0.23210627E-03 | 0.93156542E+01 |   24.732
 BASOPT|        7     |       3     | 0.49628444E-03 | 0.11049920E+01 |   20.721
 BASOPT| -----------------------------------------------------------------------
 BASOPT| Total residuum value: -.13063640E+04

 BASOPT| Information at iteration number:    2800
 BASOPT| Training set | Combination | Rho difference | Condition num. | Time
 BASOPT| -----------------------------------------------------------------------
 BASOPT|        1     |       1     | 0.37005127E-03 | 0.14985846E+02 |   40.553
 BASOPT|        1     |       2     | 0.37262389E-03 | 0.14449815E+02 |   30.775
 BASOPT|        1     |       3     | 0.39666641E-03 | 0.13196219E+01 |   25.507
 BASOPT|        2     |       1     | 0.11872655E-03 | 0.74703131E+01 |   16.655
 BASOPT|        2     |       2     | 0.11873224E-03 | 0.74703131E+01 |   14.552
 BASOPT|        2     |       3     | 0.25752770E-03 | 0.10206673E+01 |   13.810
 BASOPT|        3     |       1     | 0.19491728E-03 | 0.12602630E+02 |   17.204
 BASOPT|        3     |       2     | 0.19491728E-03 | 0.12602630E+02 |   13.552
 BASOPT|        3     |       3     | 0.20376223E-03 | 0.11622230E+01 |   13.544
 BASOPT|        4     |       1     | 0.14975332E-04 | 0.19201905E+02 |   18.309
 BASOPT|        4     |       2     | 0.18059956E-04 | 0.68903077E+01 |   13.839
 BASOPT|        4     |       3     | 0.24495156E-04 | 0.13807984E+01 |   12.828
 BASOPT|        5     |       1     | 0.32065003E-03 | 0.23953973E+03 |  134.504
 BASOPT|        5     |       2     | 0.38417614E-03 | 0.27917204E+02 |   80.772
 BASOPT|        5     |       3     | 0.52788270E-03 | 0.62354171E+01 |   64.493
 BASOPT|        6     |       1     | 0.86095170E-05 | 0.61538556E+01 |    6.559
 BASOPT|        6     |       2     | 0.86095170E-05 | 0.61538556E+01 |    6.041
 BASOPT|        6     |       3     | 0.12160210E-04 | 0.10028484E+01 |    6.864
 BASOPT|        7     |       1     | 0.23132537E-03 | 0.10408034E+02 |   36.866
 BASOPT|        7     |       2     | 0.23215061E-03 | 0.93013704E+01 |   25.647
 BASOPT|        7     |       3     | 0.50045670E-03 | 0.11042771E+01 |   21.491
 BASOPT| -----------------------------------------------------------------------
 BASOPT| Total residuum value: -.13063668E+04

 BASOPT| Information at iteration number:    2900
 BASOPT| Training set | Combination | Rho difference | Condition num. | Time
 BASOPT| -----------------------------------------------------------------------
 BASOPT|        1     |       1     | 0.37128137E-03 | 0.14717012E+02 |   42.013
 BASOPT|        1     |       2     | 0.37390392E-03 | 0.14186459E+02 |   31.878
 BASOPT|        1     |       3     | 0.39947705E-03 | 0.13277485E+01 |   26.414
 BASOPT|        2     |       1     | 0.11850712E-03 | 0.74629379E+01 |   17.252
 BASOPT|        2     |       2     | 0.11851281E-03 | 0.74629379E+01 |   15.076
 BASOPT|        2     |       3     | 0.25505546E-03 | 0.10202681E+01 |   14.308
 BASOPT|        3     |       1     | 0.19560976E-03 | 0.12351861E+02 |   17.827
 BASOPT|        3     |       2     | 0.19560976E-03 | 0.12351861E+02 |   14.039
 BASOPT|        3     |       3     | 0.20550600E-03 | 0.11753079E+01 |   14.032
 BASOPT|        4     |       1     | 0.15072996E-04 | 0.19071160E+02 |   18.970
 BASOPT|        4     |       2     | 0.18145819E-04 | 0.67854682E+01 |   14.341
 BASOPT|        4     |       3     | 0.27077898E-04 | 0.13814601E+01 |   13.289
 BASOPT|        5     |       1     | 0.32155367E-03 | 0.22298203E+03 |  139.330
 BASOPT|        5     |       2     | 0.38511995E-03 | 0.27540229E+02 |   83.662
 BASOPT|        5     |       3     | 0.53085269E-03 | 0.62559783E+01 |   66.804
 BASOPT|        6     |       1     | 0.86525643E-05 | 0.60662857E+01 |    6.795
 BASOPT|        6     |       2     | 0.86525643E-05 | 0.60662857E+01 |    6.256
 BASOPT|        6     |       3     | 0.13546189E-04 | 0.10041525E+01 |    7.110
 BASOPT|        7     |       1     | 0.23092413E-03 | 0.10405013E+02 |   38.185
 BASOPT|        7     |       2     | 0.23174195E-03 | 0.92962094E+01 |   26.563
 BASOPT|        7     |       3     | 0.49567997E-03 | 0.11036969E+01 |   22.262
 BASOPT| -----------------------------------------------------------------------
 BASOPT| Total residuum value: -.13063683E+04

 BASOPT| Information at iteration number:    3000
 BASOPT| Training set | Combination | Rho difference | Condition num. | Time
 BASOPT| -----------------------------------------------------------------------
 BASOPT|        1     |       1     | 0.37230018E-03 | 0.14486642E+02 |   43.471
 BASOPT|        1     |       2     | 0.37495435E-03 | 0.13960275E+02 |   32.983
 BASOPT|        1     |       3     | 0.39874848E-03 | 0.13351298E+01 |   27.320
 BASOPT|        2     |       1     | 0.11910351E-03 | 0.74340836E+01 |   17.848
 BASOPT|        2     |       2     | 0.11910921E-03 | 0.74340836E+01 |   15.600
 BASOPT|        2     |       3     | 0.25736089E-03 | 0.10203509E+01 |   14.807
 BASOPT|        3     |       1     | 0.19616180E-03 | 0.12134368E+02 |   18.449
 BASOPT|        3     |       2     | 0.19616180E-03 | 0.12134368E+02 |   14.526
 BASOPT|        3     |       3     | 0.20501004E-03 | 0.11861079E+01 |   14.521
 BASOPT|        4     |       1     | 0.14402486E-04 | 0.18966545E+02 |   19.629
 BASOPT|        4     |       2     | 0.17276902E-04 | 0.67241853E+01 |   14.842
 BASOPT|        4     |       3     | 0.23927580E-04 | 0.13820575E+01 |   13.749
 BASOPT|        5     |       1     | 0.32245860E-03 | 0.21028059E+03 |  144.161
 BASOPT|        5     |       2     | 0.38593026E-03 | 0.27217255E+02 |   86.555
 BASOPT|        5     |       3     | 0.52906703E-03 | 0.62767590E+01 |   69.112
 BASOPT|        6     |       1     | 0.82399251E-05 | 0.60193290E+01 |    7.032
 BASOPT|        6     |       2     | 0.82399251E-05 | 0.60193290E+01 |    6.472
 BASOPT|        6     |       3     | 0.11915626E-04 | 0.10047403E+01 |    7.356
 BASOPT|        7     |       1     | 0.23198845E-03 | 0.10375106E+02 |   39.503
 BASOPT|        7     |       2     | 0.23282745E-03 | 0.92673817E+01 |   27.478
 BASOPT|        7     |       3     | 0.50015474E-03 | 0.11031643E+01 |   23.032
 BASOPT| -----------------------------------------------------------------------
 BASOPT| Total residuum value: -.13063694E+04

 BASOPT| Information at iteration number:    3100
 BASOPT| Training set | Combination | Rho difference | Condition num. | Time
 BASOPT| -----------------------------------------------------------------------
 BASOPT|        1     |       1     | 0.37248556E-03 | 0.14353391E+02 |   44.929
 BASOPT|        1     |       2     | 0.37514025E-03 | 0.13831210E+02 |   34.087
 BASOPT|        1     |       3     | 0.39688960E-03 | 0.13396715E+01 |   28.225
 BASOPT|        2     |       1     | 0.11899928E-03 | 0.74442900E+01 |   18.445
 BASOPT|        2     |       2     | 0.11900499E-03 | 0.74442900E+01 |   16.125
 BASOPT|        2     |       3     | 0.25390666E-03 | 0.10189691E+01 |   15.305
 BASOPT|        3     |       1     | 0.19624765E-03 | 0.12007923E+02 |   19.072
 BASOPT|        3     |       2     | 0.19624765E-03 | 0.12007923E+02 |   15.012
 BASOPT|        3     |       3     | 0.20390014E-03 | 0.11924488E+01 |   15.009
[...]
 BASOPT|        2     |       1     | 0.26980262E-03 | 0.10385917E+01 |  303.703
 BASOPT|        2     |       2     | 0.26980661E-03 | 0.10385917E+01 |  260.260
 BASOPT|        2     |       3     | 0.26994679E-03 | 0.10000214E+01 |  252.388
 BASOPT|        3     |       1     | 0.21752389E-03 | 0.10002952E+01 |  322.033
 BASOPT|        3     |       2     | 0.21752389E-03 | 0.10002939E+01 |  248.082
 BASOPT|        3     |       3     | 0.22098400E-03 | 0.10000140E+01 |  244.864
 BASOPT|        4     |       1     | 0.25839991E-04 | 0.15078972E+01 |  331.148
 BASOPT|        4     |       2     | 0.26318546E-04 | 0.13693549E+01 |  251.191
 BASOPT|        4     |       3     | 0.26783497E-04 | 0.13693464E+01 |  234.240
 BASOPT|        5     |       1     | 0.50466721E-03 | 0.79225989E+01 | 2414.658
 BASOPT|        5     |       2     | 0.54571725E-03 | 0.62171321E+01 | 1448.263
 BASOPT|        5     |       3     | 0.55901396E-03 | 0.54935638E+01 | 1159.436
 BASOPT|        6     |       1     | 0.13191005E-04 | 0.10000290E+01 |  117.956
 BASOPT|        6     |       2     | 0.13191005E-04 | 0.10000290E+01 |  107.685
 BASOPT|        6     |       3     | 0.13421517E-04 | 0.10000003E+01 |  120.518
 BASOPT|        7     |       1     | 0.51993424E-03 | 0.12849298E+01 |  659.041
 BASOPT|        7     |       2     | 0.52158015E-03 | 0.12394160E+01 |  455.494
 BASOPT|        7     |       3     | 0.52290356E-03 | 0.11058368E+01 |  383.405
 BASOPT| -----------------------------------------------------------------------
 BASOPT| Total residuum value: -.13067216E+04

 BASOPT| Information at iteration number:   49900
 BASOPT| Training set | Combination | Rho difference | Condition num. | Time
 BASOPT| -----------------------------------------------------------------------
 BASOPT|        1     |       1     | 0.41320560E-03 | 0.16326856E+01 |  740.803
 BASOPT|        1     |       2     | 0.41463697E-03 | 0.14473705E+01 |  558.654
 BASOPT|        1     |       3     | 0.42595915E-03 | 0.12275690E+01 |  457.526
 BASOPT|        2     |       1     | 0.27000485E-03 | 0.10386447E+01 |  304.315
 BASOPT|        2     |       2     | 0.27000885E-03 | 0.10386447E+01 |  260.763
 BASOPT|        2     |       3     | 0.27015315E-03 | 0.10000493E+01 |  252.898
 BASOPT|        3     |       1     | 0.21745247E-03 | 0.10002591E+01 |  322.692
 BASOPT|        3     |       2     | 0.21745247E-03 | 0.10002591E+01 |  248.584
 BASOPT|        3     |       3     | 0.22092523E-03 | 0.10000500E+01 |  245.336
 BASOPT|        4     |       1     | 0.25918183E-04 | 0.15078977E+01 |  331.817
 BASOPT|        4     |       2     | 0.26395745E-04 | 0.13693717E+01 |  251.691
 BASOPT|        4     |       3     | 0.26847633E-04 | 0.13693629E+01 |  234.714
 BASOPT|        5     |       1     | 0.50485370E-03 | 0.79218820E+01 | 2419.537
 BASOPT|        5     |       2     | 0.54592162E-03 | 0.62170966E+01 | 1451.196
 BASOPT|        5     |       3     | 0.55919431E-03 | 0.54934279E+01 | 1161.773
 BASOPT|        6     |       1     | 0.13233812E-04 | 0.10000997E+01 |  118.194
 BASOPT|        6     |       2     | 0.13233812E-04 | 0.10000997E+01 |  107.902
 BASOPT|        6     |       3     | 0.13457785E-04 | 0.10000128E+01 |  120.737
 BASOPT|        7     |       1     | 0.52032010E-03 | 0.12849805E+01 |  660.408
 BASOPT|        7     |       2     | 0.52196709E-03 | 0.12394637E+01 |  456.411
 BASOPT|        7     |       3     | 0.52329742E-03 | 0.11058265E+01 |  384.174
 BASOPT| -----------------------------------------------------------------------
 BASOPT| Total residuum value: -.13067216E+04

 BASOPT| Information at iteration number:   50000
 BASOPT| Training set | Combination | Rho difference | Condition num. | Time
 BASOPT| -----------------------------------------------------------------------
 BASOPT|        1     |       1     | 0.41337364E-03 | 0.16326634E+01 |  742.309
 BASOPT|        1     |       2     | 0.41480589E-03 | 0.14473495E+01 |  559.777
 BASOPT|        1     |       3     | 0.42605135E-03 | 0.12275785E+01 |  458.444
 BASOPT|        2     |       1     | 0.26972720E-03 | 0.10385667E+01 |  304.927
 BASOPT|        2     |       2     | 0.26973119E-03 | 0.10385667E+01 |  261.266
 BASOPT|        2     |       3     | 0.26987185E-03 | 0.10000942E+01 |  253.407
 BASOPT|        3     |       1     | 0.21754612E-03 | 0.10001959E+01 |  323.350
 BASOPT|        3     |       2     | 0.21754612E-03 | 0.10001959E+01 |  249.086
 BASOPT|        3     |       3     | 0.22097452E-03 | 0.10000423E+01 |  245.808
 BASOPT|        4     |       1     | 0.25912973E-04 | 0.15079240E+01 |  332.486
 BASOPT|        4     |       2     | 0.26390352E-04 | 0.13693790E+01 |  252.189
 BASOPT|        4     |       3     | 0.26842518E-04 | 0.13693702E+01 |  235.189
 BASOPT|        5     |       1     | 0.50469795E-03 | 0.79214362E+01 | 2424.404
 BASOPT|        5     |       2     | 0.54577033E-03 | 0.62170219E+01 | 1454.108
 BASOPT|        5     |       3     | 0.55904108E-03 | 0.54933854E+01 | 1164.107
 BASOPT|        6     |       1     | 0.13231689E-04 | 0.10000629E+01 |  118.431
 BASOPT|        6     |       2     | 0.13231689E-04 | 0.10000629E+01 |  108.119
 BASOPT|        6     |       3     | 0.13455802E-04 | 0.10000216E+01 |  120.956
 BASOPT|        7     |       1     | 0.51978900E-03 | 0.12849356E+01 |  661.776
 BASOPT|        7     |       2     | 0.52143400E-03 | 0.12394212E+01 |  457.325
 BASOPT|        7     |       3     | 0.52275661E-03 | 0.11058159E+01 |  384.944
 BASOPT| -----------------------------------------------------------------------
 BASOPT| Total residuum value: -.13067216E+04


 -------------------------------------------------------------------------------
 -                                                                             -
 -                                DBCSR STATISTICS                             -
 -                                                                             -
 -------------------------------------------------------------------------------
 COUNTER                                    TOTAL       BLAS       SMM       ACC
 flops    68 x    68 x     1                27744       0.0%    100.0%      0.0%
 flops    68 x    68 x     2               166464       0.0%    100.0%      0.0%
 flops   116 x   116 x     4               645888       0.0%    100.0%      0.0%
 flops    68 x    68 x    10               832320       0.0%    100.0%      0.0%
 flops   116 x    68 x    10               946560       0.0%    100.0%      0.0%
 flops    68 x   116 x    10               946560       0.0%    100.0%      0.0%
 flops   116 x   116 x    10              2422080       0.0%    100.0%      0.0%
 flops   116 x   116 x     8              3875328       0.0%    100.0%      0.0%
 flops inhomo. stacks                           0       0.0%      0.0%      0.0%
 flops total                         9.862944E+06       0.0%    100.0%      0.0%
 flops max/rank                    946.240000E+03       0.0%    100.0%      0.0%
 matmuls inhomo. stacks                         0       0.0%      0.0%      0.0%
 matmuls total                                 66       0.0%    100.0%      0.0%
 number of processed stacks                    48       0.0%    100.0%      0.0%
 average stack size                                     0.0       1.4       0.0
 marketing flops                    14.188128E+06
 -------------------------------------------------------------------------------
 # multiplications                              1
 max memory usage/rank             663.064576E+06
 # max total images/rank                        2
 # max 3D layers                                1
 # MPI messages exchanged                      30
 MPI messages size (bytes):
  total size                       161.664000E+03
  min size                           0.000000E+00
  max size                          29.440000E+03
  average size                       5.388800E+03
 MPI breakdown and total messages size (bytes):
             size <=      128                  15                        0
       128 < size <=     8192                   9                    28800
      8192 < size <=    32768                   6                   132864
     32768 < size <=   131072                   0                        0
    131072 < size <=  4194304                   0                        0
   4194304 < size <= 16777216                   0                        0
  16777216 < size                               0                        0
 -------------------------------------------------------------------------------

 *** WARNING in dbcsr_mm.F:297 :: Using a non-square number of MPI ranks ***
 *** might lead to poor performance. Used ranks: 2 Suggested: 1 4        ***

 -------------------------------------------------------------------------------
 -                                                                             -
 -                      DBCSR MESSAGE PASSING PERFORMANCE                      -
 -                                                                             -
 -------------------------------------------------------------------------------
 ROUTINE             CALLS      AVE VOLUME [Bytes]
 MP_Bcast                9                     12.
 MP_Allreduce           42                     21.
 MP_Alltoall       3000081                  41425.
 MP_ISend                6                   2512.
 MP_IRecv                8                    956.
 -------------------------------------------------------------------------------

 -------------------------------------------------------------------------------
 -                                                                             -
 -                                GRID STATISTICS                              -
 -                                                                             -
 -------------------------------------------------------------------------------
 LP    KERNEL    OPERATION                                     COUNT     PERCENT
 0     general   collocate                                        39       0.21%
 0     ortho     integrate                                      1275       6.75%
 0     ortho     collocate                                      1275       6.75%
 1     ortho     integrate                                       618       3.27%
 1     ortho     collocate                                       618       3.27%
 2     ortho     integrate                                      2043      10.81%
 2     ortho     collocate                                      2043      10.81%
 3     ortho     integrate                                      1326       7.02%
 3     ortho     collocate                                      1326       7.02%
 4     ortho     integrate                                       756       4.00%
 4     ortho     collocate                                       756       4.00%
 5     ortho     integrate                                      2250      11.91%
 5     ortho     collocate                                      2250      11.91%
 6     ortho     integrate                                       339       1.79%
 6     ortho     collocate                                       339       1.79%
 7     ortho     integrate                                       204       1.08%
 7     ortho     collocate                                       204       1.08%
 8     ortho     integrate                                       618       3.27%
 8     ortho     collocate                                       618       3.27%
 -------------------------------------------------------------------------------

 MEMORY| Estimated peak process memory [MiB]                                1550

 -------------------------------------------------------------------------------
 -                                                                             -
 -                         MESSAGE PASSING PERFORMANCE                         -
 -                                                                             -
 -------------------------------------------------------------------------------

 ROUTINE             CALLS      AVE VOLUME [Bytes]
 MP_Bcast            50029                    165.
 MP_Allreduce       350132                    235.
 MP_Sync             50001
 MP_Alltoall            18              129829589.
 MP_ISendRecv            9                9129216.
 MP_Wait                 9
 MP_comm_split           1
 -------------------------------------------------------------------------------


 -------------------------------------------------------------------------------
 -                                                                             -
 -                           R E F E R E N C E S                               -
 -                                                                             -
 -------------------------------------------------------------------------------
 
 CP2K version 8.0 (Development Version), the CP2K developers group (2020).
 CP2K is freely available from https://www.cp2k.org/ .

 Kuehne,Thomas D.; Iannuzzi,Marcella; Del Ben,Mauro;
 Rybkin,Vladimir V.; Seewald,Patrick; Stein,Frederick; Laino,Teodoro;
 Khaliullin,Rustam Z.; Schuett,Ole; Schiffmann,Florian; Golze,Dorothea;
 Wilhelm,Jan; Chulkov,Sergey; Bani-Hashemian,Mohammad Hossein;
 Weber,Valery; Borstnik,Urban; Taillefumier,Mathieu;
 Jakobovits,Alice Shoshana; Lazzaro,Alfio; Pabst,Hans; Mueller,Tiziano;
 Schade,Robert; Guidon,Manuel; Andermatt,Samuel; Holmberg,Nico;
 Schenter,Gregory K.; Hehn,Anna; Bussy,Augustin; Belleflamme,Fabian;
 Tabacchi,Gloria; Gloess,Andreas; Lass,Michael; Bethune,Iain;
 Mundy,Christopher J.; Plessl,Christian; Watkins,Matt;
 VandeVondele,Joost; Krack,Matthias; Hutter,Juerg. 
 The Journal of Chemical Physics, 152 (19), (2020). 
 CP2K: An electronic structure and molecular dynamics software package -
 Quickstep: Efficient and accurate electronic structure calculations.
 https://doi.org/10.1063/5.0007045

 Schuett, Ole; Messmer, Peter; Hutter, Juerg; VandeVondele, Joost. 
 Electronic Structure Calculations on Graphics Processing Units, John
 Wiley & Sons, Ltd, 173-190 (2016). 
 GPU-Accelerated Sparse Matrix-Matrix Multiplication for
 Linear Scaling Density Functional Theory.
 https://doi.org/10.1002/9781118670712.ch8

 Borstnik, U; VandeVondele, J; Weber, V; Hutter, J. 
 PARALLEL COMPUTING, 40 (5-6), 47-58 (2014). 
 Sparse matrix multiplication: The distributed block-compressed sparse
 row library.
 https://doi.org/10.1016/j.parco.2014.03.012

 Hutter, J; Iannuzzi, M; Schiffmann, F; VandeVondele, J. 
 WIREs Comput Mol Sci., 4 (1), 15-25 (2014). 
 CP2K: atomistic simulations of condensed matter systems.
 https://doi.org/10.1002/wcms.1159

 Marek, A; Blum, V; Johanni, R; Havu, V; Lang, B; Auckenthaler, T;
 Heinecke, A; Bungartz, H; Lederer, H. 
 Journal of Physics: Condensed Matter, 26 (21), (2014). 
 The ELPA library: scalable parallel eigenvalue solutions for
 electronic structure
 theory and computational science.
 https://doi.org/10.1088/0953-8984/26/21/213201

 Guidon, M; Hutter, J; VandeVondele, J. 
 JOURNAL OF CHEMICAL THEORY AND COMPUTATION, 6 (8), 2348-2364 (2010). 
 Auxiliary Density Matrix Methods for Hartree-Fock Exchange Calculations.
 https://doi.org/10.1021/ct1002225

 VandeVondele, J; Hutter, J. 
 JOURNAL OF CHEMICAL PHYSICS, 127 (11), 114105 (2007). 
 Gaussian basis sets for accurate calculations on molecular systems in
 gas and condensed phases.
 https://doi.org/10.1063/1.2770708

 Krack, M. 
 THEORETICAL CHEMISTRY ACCOUNTS, 114 (1-3), 145-152 (2005). 
 Pseudopotentials for H to Kr optimized for gradient-corrected
 exchange-correlation functionals.
 https://doi.org/10.1007/s00214-005-0655-y

 VandeVondele, J; Krack, M; Mohamed, F; Parrinello, M; Chassaing, T;
 Hutter, J. COMPUTER PHYSICS COMMUNICATIONS, 167 (2), 103-128 (2005). 
 QUICKSTEP: Fast and accurate density functional calculations using a
 mixed Gaussian and plane waves approach.
 https://doi.org/10.1016/j.cpc.2004.12.014

 Frigo, M; Johnson, SG. 
 PROCEEDINGS OF THE IEEE, 93 (2), 216-231 (2005). 
 The design and implementation of FFTW3.
 https://doi.org/10.1109/JPROC.2004.840301

 Hartwigsen, C; Goedecker, S; Hutter, J. 
 PHYSICAL REVIEW B, 58 (7), 3641-3662 (1998). 
 Relativistic separable dual-space Gaussian pseudopotentials from H to Rn.
 https://doi.org/10.1103/PhysRevB.58.3641

 Lippert, G; Hutter, J; Parrinello, M. 
 MOLECULAR PHYSICS, 92 (3), 477-487 (1997). 
 A hybrid Gaussian and plane wave density functional scheme.
 https://doi.org/10.1080/002689797170220

 Perdew, JP; Burke, K; Ernzerhof, M. 
 PHYSICAL REVIEW LETTERS, 77 (18), 3865-3868 (1996). 
 Generalized gradient approximation made simple.
 https://doi.org/10.1103/PhysRevLett.77.3865

 Goedecker, S; Teter, M; Hutter, J. 
 PHYSICAL REVIEW B, 54 (3), 1703-1710 (1996). 
 Separable dual-space Gaussian pseudopotentials.
 https://doi.org/10.1103/PhysRevB.54.1703


 -------------------------------------------------------------------------------
 -                                                                             -
 -                                T I M I N G                                  -
 -                                                                             -
 -------------------------------------------------------------------------------
 SUBROUTINE                       CALLS  ASD         SELF TIME        TOTAL TIME
                                MAXIMUM       AVERAGE  MAXIMUM  AVERAGE  MAXIMUM
 CP2K                                 1  1.0    0.002    0.004 2500.137 2500.174
 run_optimize_basis                   1  2.0    0.001    0.002 2500.127 2500.163
 driver_para_opt_basis                1  3.0    0.000    0.000 2500.121 2500.157
 driver_optimization_para_low         1  4.0    0.424    0.781 2500.120 2500.156
 compute_residuum_vectors         50001  5.0    2.636    3.559 2431.941 2433.253
 mp_sum_dv                       250006  5.8 1865.443 2321.524 1865.443 2321.524
 cp_gemm                         600012  7.2    0.819    0.988  330.631 1736.436
 cp_gemm_fm_gemm                 600012  8.2    0.524    0.596  329.812 1735.519
 cp_fm_gemm                      600012  9.2  329.288 1734.974  329.288 1734.974
 admm_fit_mo_coeffs               50001  6.0    0.106    0.187  189.311  774.221
 fit_mo_coeffs                    50001  7.0    0.403    0.533  120.790  621.457
 cp_fm_syevd                     100002  7.0    0.291    0.400   55.369  209.512
 cp_fm_syevd_base                100002  8.0   54.971  208.929   54.971  208.929
 build_overlap_matrix_low        100006  6.0   35.794  162.634   37.670  165.350
 copy_dbcsr_to_fm                250006  6.8    2.358    3.178   80.998  160.543
 purify_mo_diag                   50001  7.0    0.541    0.736   68.415  152.577
 dbcsr_complete_redistribute     250007  7.8   15.251   40.188   46.622   91.068
 cp_fm_upper_to_full             150005  7.3   25.393   82.993   25.393   82.993
 mp_bcast_i                       50029  5.0   58.625   60.439   58.625   60.439
 powell_optimize                  50002  5.0    1.661   59.798    1.661   59.798
 dbcsr_desymmetrize_deep         250006  7.8    5.267   12.314   21.970   58.729
 -------------------------------------------------------------------------------

 The number of warnings for this run is : 1
 
 -------------------------------------------------------------------------------
  **** **** ******  **  PROGRAM ENDED AT                 2020-12-02 21:57:47.521
 ***** ** ***  *** **   PROGRAM RAN ON                                   tcopt10
 **    ****   ******    PROGRAM RAN BY                                    hutter
 ***** **    ** ** **   PROGRAM PROCESS ID                                 23121
  **** **  *******  **  PROGRAM STOPPED IN /data/hutter/GITHUB/BASIS/MOLOPT/PBE0
                                           /noble/q8
