 DBCSR| CPU Multiplication driver                                           XSMM
 DBCSR| Multrec recursion limit                                              512
 DBCSR| Multiplication stack size                                           1000
 DBCSR| Maximum elements for images                                    UNLIMITED
 DBCSR| Multiplicative factor virtual images                                   1
 DBCSR| Use multiplication densification                                       T
 DBCSR| Multiplication size stacks                                             3
 DBCSR| Use memory pool for CPU allocation                                     F
 DBCSR| Number of 3D layers                                               SINGLE
 DBCSR| Use MPI memory allocation                                              F
 DBCSR| Use RMA algorithm                                                      F
 DBCSR| Use Communication thread                                               T
 DBCSR| Communication thread load                                             87
 DBCSR| MPI: My node id                                                        0
 DBCSR| MPI: Number of nodes                                                  36
 DBCSR| OMP: Current number of threads                                         1
 DBCSR| OMP: Max number of threads                                             1
 DBCSR| Split modifier for TAS multiplication algorithm                  1.0E+00


  **** **** ******  **  PROGRAM STARTED AT               2022-05-31 14:52:22.838
 ***** ** ***  *** **   PROGRAM STARTED ON                               tcopt10
 **    ****   ******    PROGRAM STARTED BY                                hutter
 ***** **    ** ** **   PROGRAM PROCESS ID                                  3043
  **** **  *******  **  PROGRAM STARTED IN /data/hutter/GITHUB/BASIS/scMOLOPT/PB
                                           E/Sb

 CP2K| version string:                   CP2K version 10.0 (Development Version)
 CP2K| source code revision number:                                  git:d19b00a
 CP2K| cp2kflags: omp libint fftw3 libxc elpa parallel mpi3 scalapack cosma xsmm
 CP2K|             spglib sirius libvori libbqb
 CP2K| is freely available from                            https://www.cp2k.org/
 CP2K| Program compiled at                      Wed 18 May 2022 12:15:59 PM CEST
 CP2K| Program compiled on                                               tcopt10
 CP2K| Program compiled for                                                local
 CP2K| Data directory path                   /data/hutter/GITHUB/TDLRI/cp2k/data
 CP2K| Input file name                                              SbH3-ref.inp

 GLOBAL| Force Environment number                                              1
 GLOBAL| Basis set file name                                        ../def2QZVPP
 GLOBAL| Potential file name                                        ../POTENTIAL
 GLOBAL| MM Potential file name                                     MM_POTENTIAL
 GLOBAL| Coordinate file name                                      __STD_INPUT__
 GLOBAL| Method name                                                        CP2K
 GLOBAL| Project name                                                    refSbH3
 GLOBAL| Run type                                                         ENERGY
 GLOBAL| FFT library                                                       FFTW3
 GLOBAL| Diagonalization library                                            ELPA
 GLOBAL| Minimum number of eigenvectors for ELPA usage                        16
 GLOBAL| Orthonormality check for eigenvectors                          DISABLED
 GLOBAL| Matrix multiplication library                                     COSMA
 GLOBAL| All-to-all communication in single precision                          F
 GLOBAL| FFTs using library dependent lengths                                  F
 GLOBAL| Grid backend                                                       AUTO
 GLOBAL| Global print level                                                  LOW
 GLOBAL| MPI I/O enabled                                                       T
 GLOBAL| Total number of message passing processes                            36
 GLOBAL| Number of threads for this process                                    1
 GLOBAL| This output is from process                                           0
 GLOBAL| Stack size for threads created by OpenMP (OMP_STACKSIZE)        default
 GLOBAL| CPU model name                          AMD EPYC 7401 24-Core Processor
 GLOBAL| CPUID                                                              1002

 MEMORY| system memory details [Kb]
 MEMORY|                        rank 0           min           max       average
 MEMORY| MemTotal            263969132     263969132     263969132     263969132
 MEMORY| MemFree             237191700     237191700     237191700     237191700
 MEMORY| Buffers                  2836          2836          2836          2836
 MEMORY| Cached               20265912      20265912      20265912      20265912
 MEMORY| Slab                  1471436       1471436       1471436       1471436
 MEMORY| SReclaimable           876356        876356        876356        876356
 MEMORY| MemLikelyFree       258336804     258336804     258336804     258336804


 GENERATE|  Preliminary Number of Bonds generated:                             0
 GENERATE|  Achieved consistency in connectivity generation.

 *******************************************************************************
 *******************************************************************************
 **                                                                           **
 **     #####                         ##              ##                      **
 **    ##   ##            ##          ##              ##                      **
 **   ##     ##                       ##            ######                    **
 **   ##     ##  ##   ##  ##   #####  ##  ##   ####   ##    #####    #####    **
 **   ##     ##  ##   ##  ##  ##      ## ##   ##      ##   ##   ##  ##   ##   **
 **   ##  ## ##  ##   ##  ##  ##      ####     ###    ##   ######   ######    **
 **    ##  ###   ##   ##  ##  ##      ## ##      ##   ##   ##       ##        **
 **     #######   #####   ##   #####  ##  ##  ####    ##    #####   ##        **
 **           ##                                                    ##        **
 **                                                                           **
 **                                                ... make the atoms dance   **
 **                                                                           **
 **            Copyright (C) by CP2K developers group (2000-2022)             **
 **                      J. Chem. Phys. 152, 194103 (2020)                    **
 **                                                                           **
 *******************************************************************************


 TOTAL NUMBERS AND MAXIMUM NUMBERS

  Total number of            - Atomic kinds:                                   2
                             - Atoms:                                          4
                             - Shell sets:                                    52
                             - Shells:                                        52
                             - Primitive Cartesian functions:                 86
                             - Cartesian basis functions:                    209
                             - Spherical basis functions:                    172

  Maximum angular momentum of- Orbital basis functions:                        4
                             - Local part of the GTH pseudopotential:          4
                             - Non-local part of the GTH pseudopotential:      4


 SCF PARAMETERS         Density guess:                                    ATOMIC
                        --------------------------------------------------------
                        max_scf:                                              20
                        max_scf_history:                                       0
                        max_diis:                                              4
                        --------------------------------------------------------
                        eps_scf:                                        1.00E-07
                        eps_scf_history:                                0.00E+00
                        eps_diis:                                       1.00E-01
                        eps_eigval:                                     1.00E-05
                        --------------------------------------------------------
                        level_shift [a.u.]:                             0.000000
                        --------------------------------------------------------
                        Outer loop SCF in use 
                        No variables optimised in outer loop
                        eps_scf                                         1.00E-07
                        max_scf                                                5
                        No outer loop optimization
                        step_size                                       5.00E-01

 Number of electrons:                                                         26
 Number of occupied orbitals:                                                 13
 Number of molecular orbitals:                                                13

 Number of orbital functions:                                                172
 Number of independent orbital functions:                                    172

 Extrapolation method: initial_guess


 SCF WAVEFUNCTION OPTIMIZATION

  ----------------------------------- OT ---------------------------------------
  Minimizer      : DIIS                : direct inversion
                                         in the iterative subspace
                                         using   7 DIIS vectors
                                         safer DIIS on
  Preconditioner : FULL_ALL            : diagonalization, state selective
  Precond_solver : DEFAULT
  stepsize       :    0.10000000                  energy_gap     :    0.08000000
  eps_taylor     :   0.10000E-15                  max_taylor     :             4
  ----------------------------------- OT ---------------------------------------

  Step     Update method      Time    Convergence         Total energy    Change
  ------------------------------------------------------------------------------
     1 OT DIIS     0.10E+00    0.8     0.21606286      -226.1630046463 -2.26E+02
     2 OT DIIS     0.10E+00    1.0     0.08828265      -230.2456255506 -4.08E+00
     3 OT DIIS     0.10E+00    1.0     0.03404822      -231.0172894098 -7.72E-01
     4 OT DIIS     0.10E+00    1.0     0.02149966      -231.2763710595 -2.59E-01
     5 OT DIIS     0.10E+00    0.9     0.01625309      -231.3775381690 -1.01E-01
     6 OT DIIS     0.10E+00    1.0     0.01320188      -231.4825441568 -1.05E-01
     7 OT DIIS     0.10E+00    0.9     0.00992430      -231.5696264943 -8.71E-02
     8 OT DIIS     0.10E+00    1.0     0.00810241      -231.6006586997 -3.10E-02
     9 OT DIIS     0.10E+00    1.0     0.00857158      -231.6286689915 -2.80E-02
    10 OT DIIS     0.10E+00    0.9     0.00418220      -231.6500056329 -2.13E-02
    11 OT DIIS     0.10E+00    1.0     0.00287963      -231.6581370402 -8.13E-03
    12 OT DIIS     0.10E+00    0.9     0.00363842      -231.6630251227 -4.89E-03
    13 OT DIIS     0.10E+00    1.0     0.00149031      -231.6663072566 -3.28E-03
    14 OT DIIS     0.10E+00    1.0     0.00181871      -231.6662386617  6.86E-05
    15 OT DIIS     0.10E+00    0.9     0.00051468      -231.6667623303 -5.24E-04
    16 OT DIIS     0.10E+00    1.0     0.00045729      -231.6668606546 -9.83E-05
    17 OT DIIS     0.10E+00    1.0     0.00017555      -231.6669250041 -6.43E-05
    18 OT DIIS     0.10E+00    0.9     0.00011053      -231.6669369837 -1.20E-05
    19 OT DIIS     0.10E+00    0.9     0.00005662      -231.6669412599 -4.28E-06
    20 OT DIIS     0.10E+00    1.0     0.00003511      -231.6669430354 -1.78E-06

  Leaving inner SCF loop after reaching    20 steps.


  Electronic density on regular grids:        -27.7140589136       -1.7140589136
  Core density on regular grids:               26.0000000000       -0.0000000000
  Hard and soft densities (Lebedev):          -33.2895451488      -35.0036040835
  Total Rho_soft + Rho1_hard - Rho1_soft      -25.9999999789
  Total charge density (r-space):               0.0000000211
  Total Rho_soft + Rho0_soft (g-space):        -0.0000000712

  Overlap energy of the core charge distribution:               0.00000000000085
  Self energy of the core charge distribution:               -391.33241920212413
  Core Hamiltonian energy:                                     92.53829927483014
  Hartree energy:                                             341.75246831646564
  Exchange-correlation energy:                                -21.72601915454736

  GAPW| Exc from hard and soft atomic rho1:                     2.65861426694766
  GAPW| local Eh = 1 center integrals:                       -255.55788653694967

  Total energy:                                              -231.66694303537685

  outer SCF iter =    1 RMS gradient =   0.35E-04 energy =       -231.6669430354

  ----------------------------------- OT ---------------------------------------
  Minimizer      : DIIS                : direct inversion
                                         in the iterative subspace
                                         using   7 DIIS vectors
                                         safer DIIS on
  Preconditioner : FULL_ALL            : diagonalization, state selective
  Precond_solver : DEFAULT
  stepsize       :    0.10000000                  energy_gap     :    0.08000000
  eps_taylor     :   0.10000E-15                  max_taylor     :             4
  ----------------------------------- OT ---------------------------------------

  Step     Update method      Time    Convergence         Total energy    Change
  ------------------------------------------------------------------------------
     1 OT DIIS     0.10E+00    1.9     0.00002844      -231.6669438856 -8.50E-07
     2 OT DIIS     0.10E+00    0.9     0.00001643      -231.6669440264 -1.41E-07
     3 OT DIIS     0.10E+00    0.9     0.00000328      -231.6669440988 -7.24E-08
     4 OT DIIS     0.10E+00    1.0     0.00000052      -231.6669441017 -2.94E-09
     5 OT DIIS     0.10E+00    0.9     0.00000012      -231.6669441018 -5.96E-11
     6 OT DIIS     0.10E+00    0.9     0.00000002      -231.6669441018 -5.49E-12

  *** SCF run converged in     6 steps ***


  Electronic density on regular grids:        -27.7140771631       -1.7140771631
  Core density on regular grids:               26.0000000000       -0.0000000000
  Hard and soft densities (Lebedev):          -33.2894365442      -35.0035137284
  Total Rho_soft + Rho1_hard - Rho1_soft      -25.9999999789
  Total charge density (r-space):               0.0000000211
  Total Rho_soft + Rho0_soft (g-space):        -0.0000000712

  Overlap energy of the core charge distribution:               0.00000000000085
  Self energy of the core charge distribution:               -391.33241920212413
  Core Hamiltonian energy:                                     92.53835953335319
  Hartree energy:                                             341.75247269254652
  Exchange-correlation energy:                                -21.72608941971684

  GAPW| Exc from hard and soft atomic rho1:                     2.65864701589967
  GAPW| local Eh = 1 center integrals:                       -255.55791472172660

  Total energy:                                              -231.66694410176734

  outer SCF iter =    2 RMS gradient =   0.25E-07 energy =       -231.6669441018
  outer SCF loop converged in   2 iterations or   26 steps


 ENERGY| Total FORCE_EVAL ( QS ) energy [a.u.]:             -231.666944101767342

 -------------------------------------------------------------------------------
 -                                                                             -
 -                                DBCSR STATISTICS                             -
 -                                                                             -
 -------------------------------------------------------------------------------
 COUNTER                                    TOTAL       BLAS       SMM       ACC
 flops    13 x    13 x    13               790920       0.0%    100.0%      0.0%
 flops    82 x    30 x    13              1726920       0.0%    100.0%      0.0%
 flops    13 x    13 x    82              2937896       0.0%    100.0%      0.0%
 flops    13 x    13 x    30              3224520       0.0%    100.0%      0.0%
 flops    30 x    82 x    13              3453840       0.0%    100.0%      0.0%
 flops    82 x    13 x    13              3658512       0.0%    100.0%      0.0%
 flops    30 x    30 x    13              3790800       0.0%    100.0%      0.0%
 flops    30 x    13 x    13              4015440       0.0%    100.0%      0.0%
 flops    82 x    82 x    13              4720248       0.0%    100.0%      0.0%
 flops    82 x    13 x    82             21328528       0.0%    100.0%      0.0%
 flops    82 x    13 x    30             23409360       0.0%    100.0%      0.0%
 flops    30 x    13 x    82             23409360       0.0%    100.0%      0.0%
 flops    30 x    13 x    30             25693200       0.0%    100.0%      0.0%
 flops inhomo. stacks                           0       0.0%      0.0%      0.0%
 flops total                       122.159544E+06       0.0%    100.0%      0.0%
 flops max/rank                     60.069984E+06       0.0%    100.0%      0.0%
 matmuls inhomo. stacks                         0       0.0%      0.0%      0.0%
 matmuls total                               3354       0.0%    100.0%      0.0%
 number of processed stacks                  3354       0.0%    100.0%      0.0%
 average stack size                                     0.0       1.0       0.0
 marketing flops                   129.352208E+06
 -------------------------------------------------------------------------------
 # multiplications                            569
 max memory usage/rank             561.565696E+06
 # max total images/rank                        1
 # max 3D layers                                1
 # MPI messages exchanged                  204840
 MPI messages size (bytes):
  total size                       194.204640E+06
  min size                           0.000000E+00
  max size                          53.792000E+03
  average size                     948.079651E+00
 MPI breakdown and total messages size (bytes):
             size <=      128              182220                        0
       128 < size <=     8192               15750                 67189920
      8192 < size <=    32768                6260                 94201600
     32768 < size <=   131072                 610                 32813120
    131072 < size <=  4194304                   0                        0
   4194304 < size <= 16777216                   0                        0
  16777216 < size                               0                        0
 -------------------------------------------------------------------------------
 -                                                                             -
 -                      DBCSR MESSAGE PASSING PERFORMANCE                      -
 -                                                                             -
 -------------------------------------------------------------------------------
 ROUTINE             CALLS      AVE VOLUME [Bytes]
 MP_Bcast               14                     12.
 MP_Allreduce         3053                      8.
 MP_Alltoall          2206                   3023.
 MP_ISend            13648                   1669.
 MP_IRecv            13648                    813.
 -------------------------------------------------------------------------------

 -------------------------------------------------------------------------------
 -                                                                             -
 -                                GRID STATISTICS                              -
 -                                                                             -
 -------------------------------------------------------------------------------
 LP    KERNEL             BACKEND                              COUNT     PERCENT
 2     collocate ortho    REF                                  16659      11.84%
 2     integrate ortho    REF                                  16042      11.40%
 1     collocate ortho    REF                                  14634      10.40%
 3     collocate ortho    REF                                  14202      10.10%
 1     integrate ortho    REF                                  14092      10.02%
 3     integrate ortho    REF                                  13676       9.72%
 4     collocate ortho    REF                                   8532       6.06%
 0     collocate ortho    REF                                   8478       6.03%
 4     integrate ortho    REF                                   8216       5.84%
 0     integrate ortho    REF                                   8164       5.80%
 5     collocate ortho    REF                                   3888       2.76%
 5     integrate ortho    REF                                   3744       2.66%
 2     collocate general  REF                                   3744       2.66%
 2     integrate general  REF                                   3744       2.66%
 6     collocate ortho    REF                                   1188       0.84%
 6     integrate ortho    REF                                   1144       0.81%
 7     collocate ortho    REF                                    243       0.17%
 7     integrate ortho    REF                                    234       0.17%
 8     collocate ortho    REF                                     27       0.02%
 8     integrate ortho    REF                                     26       0.02%
 -------------------------------------------------------------------------------

 MEMORY| Estimated peak process memory [MiB]                                 536

 -------------------------------------------------------------------------------
 -                                                                             -
 -                         MESSAGE PASSING PERFORMANCE                         -
 -                                                                             -
 -------------------------------------------------------------------------------

 ROUTINE             CALLS      AVE VOLUME [Bytes]
 MP_Group                4
 MP_Bcast              714                 404383.
 MP_Allreduce         2040                 269497.
 MP_Sync                56
 MP_Alltoall           538                6397629.
 MP_ISendRecv         5565                 115968.
 MP_Wait             10080
 MP_comm_split          26
 MP_ISend             4200                 254016.
 MP_IRecv             4200                 254016.
 MP_Recv                 8                   4128.
 -------------------------------------------------------------------------------


 -------------------------------------------------------------------------------
 -                                                                             -
 -                           R E F E R E N C E S                               -
 -                                                                             -
 -------------------------------------------------------------------------------
 
 CP2K version 10.0 (Development Version), the CP2K developers group (2022).
 CP2K is freely available from https://www.cp2k.org/ .

 Kuehne,Thomas D.; Iannuzzi,Marcella; Del Ben,Mauro;
 Rybkin,Vladimir V.; Seewald,Patrick; Stein,Frederick; Laino,Teodoro;
 Khaliullin,Rustam Z.; Schuett,Ole; Schiffmann,Florian; Golze,Dorothea;
 Wilhelm,Jan; Chulkov,Sergey; Bani-Hashemian,Mohammad Hossein;
 Weber,Valery; Borstnik,Urban; Taillefumier,Mathieu;
 Jakobovits,Alice Shoshana; Lazzaro,Alfio; Pabst,Hans; Mueller,Tiziano;
 Schade,Robert; Guidon,Manuel; Andermatt,Samuel; Holmberg,Nico;
 Schenter,Gregory K.; Hehn,Anna; Bussy,Augustin; Belleflamme,Fabian;
 Tabacchi,Gloria; Gloess,Andreas; Lass,Michael; Bethune,Iain;
 Mundy,Christopher J.; Plessl,Christian; Watkins,Matt;
 VandeVondele,Joost; Krack,Matthias; Hutter,Juerg. 
 The Journal of Chemical Physics, 152 (19), (2020). 
 CP2K: An electronic structure and molecular dynamics software package -
 Quickstep: Efficient and accurate electronic structure calculations.
 https://doi.org/10.1063/5.0007045

 Schuett, Ole; Messmer, Peter; Hutter, Juerg; VandeVondele, Joost. 
 Electronic Structure Calculations on Graphics Processing Units, John
 Wiley & Sons, Ltd, 173-190 (2016). 
 GPU-Accelerated Sparse Matrix-Matrix Multiplication for
 Linear Scaling Density Functional Theory.
 https://doi.org/10.1002/9781118670712.ch8

 Heinecke, A; Henry, G; Hutchinson, M; Pabst, H. 
 Proceedings of Intl. Supercomputing Conference, 981-991 (2016). 
 LIBXSMM: Accelerating Small Matrix Multiplications
 by Runtime Code Generation.
 https://doi.org/10.1109/SC.2016.83

 Borstnik, U; VandeVondele, J; Weber, V; Hutter, J. 
 PARALLEL COMPUTING, 40 (5-6), 47-58 (2014). 
 Sparse matrix multiplication: The distributed block-compressed sparse
 row library.
 https://doi.org/10.1016/j.parco.2014.03.012

 Hutter, J; Iannuzzi, M; Schiffmann, F; VandeVondele, J. 
 WIREs Comput Mol Sci., 4 (1), 15-25 (2014). 
 CP2K: atomistic simulations of condensed matter systems.
 https://doi.org/10.1002/wcms.1159

 Marek, A; Blum, V; Johanni, R; Havu, V; Lang, B; Auckenthaler, T;
 Heinecke, A; Bungartz, H; Lederer, H. 
 Journal of Physics: Condensed Matter, 26 (21), (2014). 
 The ELPA library: scalable parallel eigenvalue solutions for
 electronic structure
 theory and computational science.
 https://doi.org/10.1088/0953-8984/26/21/213201

 Krack, M. 
 THEORETICAL CHEMISTRY ACCOUNTS, 114 (1-3), 145-152 (2005). 
 Pseudopotentials for H to Kr optimized for gradient-corrected
 exchange-correlation functionals.
 https://doi.org/10.1007/s00214-005-0655-y

 Frigo, M; Johnson, SG. 
 PROCEEDINGS OF THE IEEE, 93 (2), 216-231 (2005). 
 The design and implementation of FFTW3.
 https://doi.org/10.1109/JPROC.2004.840301

 VandeVondele, J; Hutter, J. 
 JOURNAL OF CHEMICAL PHYSICS, 118 (10), 4365-4369 (2003). 
 An efficient orbital transformation method for electronic structure
 calculations.
 https://doi.org/10.1063/1.1543154

 Lippert, G; Hutter, J; Parrinello, M. 
 THEORETICAL CHEMISTRY ACCOUNTS, 103 (2), 124-140 (1999). 
 The Gaussian and augmented-plane-wave density functional method for ab
 initio molecular dynamics simulations.
 https://doi.org/10.1007/s002140050523

 Krack, M; Parrinello, M. 
 PHYSICAL CHEMISTRY CHEMICAL PHYSICS, 2 (10), 2105-2112 (2000). 
 All-electron ab-initio molecular dynamics.
 https://doi.org/10.1039/b001167n

 Hartwigsen, C; Goedecker, S; Hutter, J. 
 PHYSICAL REVIEW B, 58 (7), 3641-3662 (1998). 
 Relativistic separable dual-space Gaussian pseudopotentials from H to Rn.
 https://doi.org/10.1103/PhysRevB.58.3641

 Perdew, JP; Burke, K; Ernzerhof, M. 
 PHYSICAL REVIEW LETTERS, 77 (18), 3865-3868 (1996). 
 Generalized gradient approximation made simple.
 https://doi.org/10.1103/PhysRevLett.77.3865

 Goedecker, S; Teter, M; Hutter, J. 
 PHYSICAL REVIEW B, 54 (3), 1703-1710 (1996). 
 Separable dual-space Gaussian pseudopotentials.
 https://doi.org/10.1103/PhysRevB.54.1703


 -------------------------------------------------------------------------------
 -                                                                             -
 -                                T I M I N G                                  -
 -                                                                             -
 -------------------------------------------------------------------------------
 SUBROUTINE                       CALLS  ASD         SELF TIME        TOTAL TIME
                                MAXIMUM       AVERAGE  MAXIMUM  AVERAGE  MAXIMUM
 CP2K                                 1  1.0    0.013    0.038   25.318   25.319
 qs_energies                          1  2.0    0.000    0.000   25.029   25.030
 scf_env_do_scf                       1  3.0    0.000    0.000   24.702   24.702
 scf_env_do_scf_inner_loop           26  4.0    0.000    0.001   23.051   23.051
 qs_ks_update_qs_env                 28  5.0    0.000    0.000   21.034   21.035
 rebuild_ks_matrix                   26  6.0    0.000    0.000   21.032   21.033
 qs_ks_build_kohn_sham_matrix        26  7.0    0.005    0.006   21.032   21.033
 pw_transfer                        551 10.1    0.056    0.068    6.877    7.470
 fft_wrap_pw1pw2                    473 11.3    0.007    0.008    6.761    7.359
 fft_wrap_pw1pw2_300                314 12.6    0.413    0.472    6.332    6.960
 fft3d_ps                           473 13.3    2.649    3.349    5.292    6.061
 prepare_gapw_den                    26  8.0    0.001    0.001    5.687    5.725
 qs_vxc_create                       26  8.0    0.001    0.001    5.711    5.712
 xc_vxc_pw_create                    26  9.0    0.036    0.040    5.711    5.711
 xc_pw_derive                       156 11.0    0.002    0.003    3.632    4.286
 rs_pw_transfer                     264  9.5    0.007    0.009    3.705    3.864
 mp_sum_d                          1211  7.0    3.466    3.704    3.466    3.704
 calculate_rho0_atom                 52  9.0    2.916    3.500    2.916    3.500
 xc_rho_set_and_dset_create          26 10.0    0.038    0.042    2.990    3.259
 xc_pw_divergence                    26 10.0    0.001    0.001    2.553    3.208
 qs_rho_update_rho                   27  5.0    0.000    0.001    3.194    3.195
 mp_alltoall_z22v                   473 15.3    2.093    3.079    2.093    3.079
 calculate_rho_elec                  27  6.0    0.019    0.019    2.989    2.990
 sum_up_and_integrate                26  8.0    0.013    0.017    2.873    2.878
 integrate_v_rspace                  26  9.0    0.001    0.001    2.859    2.864
 calculate_rho_atom                  52  9.0    0.728    2.715    0.728    2.715
 integrate_vhg0_rspace               26  8.0    0.260    0.616    2.599    2.603
 density_rs2pw                       27  7.0    0.001    0.002    2.360    2.499
 calculate_vxc_atom                  26  8.0    0.015    0.165    2.444    2.444
 yz_to_x                            238 13.9    0.239    0.317    1.463    2.223
 gaVxcgb_GC                          52  9.0    0.068    2.181    0.068    2.181
 potential_pw2rs                     26 10.0    0.002    0.002    2.034    2.037
 mp_sum_dm                          320  7.7    1.779    1.893    1.779    1.893
 init_scf_loop                        2  4.0    0.000    0.000    1.651    1.651
 xc_functional_eval                 130 10.8    0.000    0.001    1.223    1.510
 pbe_lda_eval                       130 11.8    1.223    1.510    1.223    1.510
 rs_pw_transfer_PW2RS_300            52 11.0    0.798    0.968    1.293    1.509
 rs_pw_transfer_RS2PW_300            53 10.0    0.713    0.925    1.338    1.503
 x_to_yz                            235 14.7    0.292    0.340    1.161    1.332
 put_rho0_on_grid                    26  9.0    0.022    0.030    1.276    1.314
 mp_waitany                        4200 11.5    0.865    1.103    0.865    1.103
 mp_sum_dv                          730 12.9    0.770    1.050    0.770    1.050
 mp_waitall_1                     42296 13.9    0.767    0.991    0.767    0.991
 grid_collocate_task_list            27  7.0    0.461    0.863    0.461    0.863
 mp_alltoall_d11v                   551 11.7    0.725    0.840    0.725    0.840
 Vh_1c_gg_integrals                  26  8.0    0.096    0.772    0.809    0.831
 rs_gather_matrices                  26 10.0    0.000    0.004    0.709    0.824
 grid_integrate_task_list            26 10.0    0.116    0.823    0.116    0.823
 pw_gather_p                        238 12.9    0.521    0.651    0.521    0.651
 rs_pw_transfer_PW2RS_100            26 12.0    0.105    0.127    0.527    0.639
 pw_scatter_p                       235 13.7    0.512    0.573    0.512    0.573
 qs_scf_new_mos                      26  5.0    0.000    0.000    0.514    0.516
 qs_scf_loop_do_ot                   26  6.0    0.000    0.000    0.514    0.516
 dbcsr_multiply_generic             569 10.1    0.016    0.016    0.497    0.507
 -------------------------------------------------------------------------------

 The number of warnings for this run is : 0
 
 -------------------------------------------------------------------------------
  **** **** ******  **  PROGRAM ENDED AT                 2022-05-31 14:52:48.558
 ***** ** ***  *** **   PROGRAM RAN ON                                   tcopt10
 **    ****   ******    PROGRAM RAN BY                                    hutter
 ***** **    ** ** **   PROGRAM PROCESS ID                                  3043
  **** **  *******  **  PROGRAM STOPPED IN /data/hutter/GITHUB/BASIS/scMOLOPT/PB
                                           E/Sb
