 DBCSR| CPU Multiplication driver                                           XSMM
 DBCSR| Multrec recursion limit                                              512
 DBCSR| Multiplication stack size                                           1000
 DBCSR| Maximum elements for images                                    UNLIMITED
 DBCSR| Multiplicative factor virtual images                                   1
 DBCSR| Use multiplication densification                                       T
 DBCSR| Multiplication size stacks                                             3
 DBCSR| Use memory pool for CPU allocation                                     F
 DBCSR| Number of 3D layers                                               SINGLE
 DBCSR| Use MPI memory allocation                                              F
 DBCSR| Use RMA algorithm                                                      F
 DBCSR| Use Communication thread                                               T
 DBCSR| Communication thread load                                             87
 DBCSR| MPI: My node id                                                        0
 DBCSR| MPI: Number of nodes                                                  12
 DBCSR| OMP: Current number of threads                                         1
 DBCSR| OMP: Max number of threads                                             1
 DBCSR| Split modifier for TAS multiplication algorithm                  1.0E+00


  **** **** ******  **  PROGRAM STARTED AT               2022-05-30 17:10:03.735
 ***** ** ***  *** **   PROGRAM STARTED ON                               tcopt10
 **    ****   ******    PROGRAM STARTED BY                                hutter
 ***** **    ** ** **   PROGRAM PROCESS ID                                 74950
  **** **  *******  **  PROGRAM STARTED IN /data/hutter/GITHUB/BASIS/scMOLOPT/PB
                                           E/Zr

 CP2K| version string:                   CP2K version 10.0 (Development Version)
 CP2K| source code revision number:                                  git:d19b00a
 CP2K| cp2kflags: omp libint fftw3 libxc elpa parallel mpi3 scalapack cosma xsmm
 CP2K|             spglib sirius libvori libbqb
 CP2K| is freely available from                            https://www.cp2k.org/
 CP2K| Program compiled at                      Wed 18 May 2022 12:15:59 PM CEST
 CP2K| Program compiled on                                               tcopt10
 CP2K| Program compiled for                                                local
 CP2K| Data directory path                   /data/hutter/GITHUB/TDLRI/cp2k/data
 CP2K| Input file name                                               ZrO-ref.inp

 GLOBAL| Force Environment number                                              1
 GLOBAL| Basis set file name                                        ../def2QZVPP
 GLOBAL| Potential file name                                        ../POTENTIAL
 GLOBAL| MM Potential file name                                     MM_POTENTIAL
 GLOBAL| Coordinate file name                                      __STD_INPUT__
 GLOBAL| Method name                                                        CP2K
 GLOBAL| Project name                                                     refZrO
 GLOBAL| Run type                                                         ENERGY
 GLOBAL| FFT library                                                       FFTW3
 GLOBAL| Diagonalization library                                            ELPA
 GLOBAL| Minimum number of eigenvectors for ELPA usage                        16
 GLOBAL| Orthonormality check for eigenvectors                          DISABLED
 GLOBAL| Matrix multiplication library                                     COSMA
 GLOBAL| All-to-all communication in single precision                          F
 GLOBAL| FFTs using library dependent lengths                                  F
 GLOBAL| Grid backend                                                       AUTO
 GLOBAL| Global print level                                                  LOW
 GLOBAL| MPI I/O enabled                                                       T
 GLOBAL| Total number of message passing processes                            12
 GLOBAL| Number of threads for this process                                    1
 GLOBAL| This output is from process                                           0
 GLOBAL| Stack size for threads created by OpenMP (OMP_STACKSIZE)        default
 GLOBAL| CPU model name                          AMD EPYC 7401 24-Core Processor
 GLOBAL| CPUID                                                              1002

 MEMORY| system memory details [Kb]
 MEMORY|                        rank 0           min           max       average
 MEMORY| MemTotal            263969132     263969132     263969132     263969132
 MEMORY| MemFree             224305860     224305860     224305860     224305860
 MEMORY| Buffers                  2836          2836          2836          2836
 MEMORY| Cached               20275156      20275156      20275156      20275156
 MEMORY| Slab                  1469884       1469884       1469884       1469884
 MEMORY| SReclaimable           879372        879372        879372        879372
 MEMORY| MemLikelyFree       245463224     245463224     245463224     245463224


 GENERATE|  Preliminary Number of Bonds generated:                             0
 GENERATE|  Achieved consistency in connectivity generation.

 *******************************************************************************
 *******************************************************************************
 **                                                                           **
 **     #####                         ##              ##                      **
 **    ##   ##            ##          ##              ##                      **
 **   ##     ##                       ##            ######                    **
 **   ##     ##  ##   ##  ##   #####  ##  ##   ####   ##    #####    #####    **
 **   ##     ##  ##   ##  ##  ##      ## ##   ##      ##   ##   ##  ##   ##   **
 **   ##  ## ##  ##   ##  ##  ##      ####     ###    ##   ######   ######    **
 **    ##  ###   ##   ##  ##  ##      ## ##      ##   ##   ##       ##        **
 **     #######   #####   ##   #####  ##  ##  ####    ##    #####   ##        **
 **           ##                                                    ##        **
 **                                                                           **
 **                                                ... make the atoms dance   **
 **                                                                           **
 **            Copyright (C) by CP2K developers group (2000-2022)             **
 **                      J. Chem. Phys. 152, 194103 (2020)                    **
 **                                                                           **
 *******************************************************************************


 TOTAL NUMBERS AND MAXIMUM NUMBERS

  Total number of            - Atomic kinds:                                   2
                             - Atoms:                                          2
                             - Shell sets:                                    38
                             - Shells:                                        38
                             - Primitive Cartesian functions:                 57
                             - Cartesian basis functions:                    178
                             - Spherical basis functions:                    138

  Maximum angular momentum of- Orbital basis functions:                        4
                             - Local part of the GTH pseudopotential:          2
                             - Non-local part of the GTH pseudopotential:      4


 SCF PARAMETERS         Density guess:                                    ATOMIC
                        --------------------------------------------------------
                        max_scf:                                              20
                        max_scf_history:                                       0
                        max_diis:                                              4
                        --------------------------------------------------------
                        eps_scf:                                        1.00E-07
                        eps_scf_history:                                0.00E+00
                        eps_diis:                                       1.00E-01
                        eps_eigval:                                     1.00E-05
                        --------------------------------------------------------
                        level_shift [a.u.]:                             0.000000
                        --------------------------------------------------------
                        Outer loop SCF in use 
                        No variables optimised in outer loop
                        eps_scf                                         1.00E-07
                        max_scf                                                5
                        No outer loop optimization
                        step_size                                       5.00E-01

 Number of electrons:                                                         20
 Number of occupied orbitals:                                                 10
 Number of molecular orbitals:                                                10

 Number of orbital functions:                                                138
 Number of independent orbital functions:                                    138

 Extrapolation method: initial_guess


 SCF WAVEFUNCTION OPTIMIZATION

  ----------------------------------- OT ---------------------------------------
  Minimizer      : DIIS                : direct inversion
                                         in the iterative subspace
                                         using   7 DIIS vectors
                                         safer DIIS on
  Preconditioner : FULL_ALL            : diagonalization, state selective
  Precond_solver : DEFAULT
  stepsize       :    0.10000000                  energy_gap     :    0.08000000
  eps_taylor     :   0.10000E-15                  max_taylor     :             4
  ----------------------------------- OT ---------------------------------------

  Step     Update method      Time    Convergence         Total energy    Change
  ------------------------------------------------------------------------------
     1 OT DIIS     0.10E+00    1.2     0.16590738      -116.9128574796 -1.17E+02
     2 OT DIIS     0.10E+00    1.3     0.09090206      -119.7761740640 -2.86E+00
     3 OT DIIS     0.10E+00    1.3     0.03619295      -121.0228346127 -1.25E+00
     4 OT DIIS     0.10E+00    1.3     0.02189125      -121.2509051356 -2.28E-01
     5 OT DIIS     0.10E+00    1.3     0.01413501      -121.3888281687 -1.38E-01
     6 OT DIIS     0.10E+00    1.3     0.01022375      -121.4666363191 -7.78E-02
     7 OT DIIS     0.10E+00    1.3     0.00866854      -121.5077852797 -4.11E-02
     8 OT DIIS     0.10E+00    1.3     0.00757138      -121.5394523038 -3.17E-02
     9 OT DIIS     0.10E+00    1.3     0.00850832      -121.5743877761 -3.49E-02
    10 OT DIIS     0.10E+00    1.3     0.00699898      -121.5937796745 -1.94E-02
    11 OT DIIS     0.10E+00    1.3     0.00485878      -121.6181004484 -2.43E-02
    12 OT DIIS     0.10E+00    1.3     0.00647463      -121.6148400632  3.26E-03
    13 OT DIIS     0.10E+00    1.3     0.00396716      -121.6319872539 -1.71E-02
    14 OT DIIS     0.10E+00    1.3     0.00279858      -121.6448318543 -1.28E-02
    15 OT DIIS     0.10E+00    1.3     0.00174544      -121.6520066040 -7.17E-03
    16 OT DIIS     0.10E+00    1.3     0.00341980      -121.6507312524  1.28E-03
    17 OT DIIS     0.10E+00    1.3     0.00140392      -121.6543138981 -3.58E-03
    18 OT DIIS     0.10E+00    1.3     0.00206722      -121.6553404930 -1.03E-03
    19 OT DIIS     0.10E+00    1.3     0.00095235      -121.6571039615 -1.76E-03
    20 OT DIIS     0.10E+00    1.3     0.00092869      -121.6574159766 -3.12E-04

  Leaving inner SCF loop after reaching    20 steps.


  Electronic density on regular grids:        -18.2249206669        1.7750793331
  Core density on regular grids:               20.0000000000        0.0000000000
  Hard and soft densities (Lebedev):          -32.1877266633      -30.4126473108
  Total Rho_soft + Rho1_hard - Rho1_soft      -20.0000000194
  Total charge density (r-space):              -0.0000000194
  Total Rho_soft + Rho0_soft (g-space):        -0.0000001865

  Overlap energy of the core charge distribution:               0.00000001664284
  Self energy of the core charge distribution:               -158.08037944343513
  Core Hamiltonian energy:                                     12.01796511175095
  Hartree energy:                                              99.40830146268695
  Exchange-correlation energy:                                 -9.31974507551488

  GAPW| Exc from hard and soft atomic rho1:                    -4.90051565286343
  GAPW| local Eh = 1 center integrals:                        -60.78304239582049

  Total energy:                                              -121.65741597655320

  outer SCF iter =    1 RMS gradient =   0.93E-03 energy =       -121.6574159766

  ----------------------------------- OT ---------------------------------------
  Minimizer      : DIIS                : direct inversion
                                         in the iterative subspace
                                         using   7 DIIS vectors
                                         safer DIIS on
  Preconditioner : FULL_ALL            : diagonalization, state selective
  Precond_solver : DEFAULT
  stepsize       :    0.10000000                  energy_gap     :    0.08000000
  eps_taylor     :   0.10000E-15                  max_taylor     :             4
  ----------------------------------- OT ---------------------------------------

  Step     Update method      Time    Convergence         Total energy    Change
  ------------------------------------------------------------------------------
     1 OT DIIS     0.10E+00    2.6     0.00395619      -121.6579589443 -5.43E-04
     2 OT DIIS     0.10E+00    1.3     0.00359202      -121.6599802473 -2.02E-03
     3 OT DIIS     0.10E+00    1.3     0.00332807      -121.6626446483 -2.66E-03
     4 OT DIIS     0.10E+00    1.3     0.00286833      -121.6662148546 -3.57E-03
     5 OT DIIS     0.10E+00    1.3     0.00224847      -121.6694208610 -3.21E-03
     6 OT DIIS     0.10E+00    1.3     0.00303561      -121.6675799398  1.84E-03
     7 OT DIIS     0.10E+00    1.3     0.00079435      -121.6705753226 -3.00E-03
     8 OT DIIS     0.10E+00    1.3     0.00035375      -121.6706547924 -7.95E-05
     9 OT DIIS     0.10E+00    1.3     0.00024959      -121.6707043489 -4.96E-05
    10 OT DIIS     0.10E+00    1.3     0.00020242      -121.6707083992 -4.05E-06
    11 OT DIIS     0.10E+00    1.3     0.00008793      -121.6707128716 -4.47E-06
    12 OT DIIS     0.10E+00    1.3     0.00000777      -121.6707141433 -1.27E-06
    13 OT DIIS     0.10E+00    1.3     0.00000754      -121.6707141548 -1.15E-08
    14 OT DIIS     0.10E+00    1.3     0.00000317      -121.6707141647 -9.83E-09
    15 OT DIIS     0.10E+00    1.3     0.00000230      -121.6707141675 -2.83E-09
    16 OT DIIS     0.10E+00    1.3     0.00000128      -121.6707141698 -2.28E-09
    17 OT DIIS     0.10E+00    1.3     0.00000083      -121.6707141703 -5.64E-10
    18 OT DIIS     0.10E+00    1.3     0.00000030      -121.6707141705 -1.32E-10
    19 OT DIIS     0.10E+00    1.3     0.00000015      -121.6707141705 -1.48E-11
    20 OT DIIS     0.10E+00    1.3     0.00000004      -121.6707141705 -9.66E-12

  *** SCF run converged in    20 steps ***


  Electronic density on regular grids:        -18.2319210059        1.7680789941
  Core density on regular grids:               20.0000000000        0.0000000000
  Hard and soft densities (Lebedev):          -32.0968269928      -30.3287479204
  Total Rho_soft + Rho1_hard - Rho1_soft      -20.0000000783
  Total charge density (r-space):              -0.0000000783
  Total Rho_soft + Rho0_soft (g-space):        -0.0000002455

  Overlap energy of the core charge distribution:               0.00000001664284
  Self energy of the core charge distribution:               -158.08037944343513
  Core Hamiltonian energy:                                     11.82330753290005
  Hartree energy:                                              99.51757696425398
  Exchange-correlation energy:                                 -9.24866247283087

  GAPW| Exc from hard and soft atomic rho1:                    -4.89329730851462
  GAPW| local Eh = 1 center integrals:                        -60.78925945951636

  Total energy:                                              -121.67071417050010

  outer SCF iter =    2 RMS gradient =   0.44E-07 energy =       -121.6707141705
  outer SCF loop converged in   2 iterations or   40 steps


 ENERGY| Total FORCE_EVAL ( QS ) energy [a.u.]:             -121.670714170500105

 -------------------------------------------------------------------------------
 -                                                                             -
 -                                DBCSR STATISTICS                             -
 -                                                                             -
 -------------------------------------------------------------------------------
 COUNTER                                    TOTAL       BLAS       SMM       ACC
 flops    10 x    10 x    10               700000       0.0%    100.0%      0.0%
 flops    10 x    10 x    57              1846800       0.0%    100.0%      0.0%
 flops    10 x    10 x    81              2624400       0.0%    100.0%      0.0%
 flops    57 x    57 x    10              2664180       0.0%    100.0%      0.0%
 flops    57 x    81 x    10              3785940       0.0%    100.0%      0.0%
 flops    81 x    81 x    10              5380020       0.0%    100.0%      0.0%
 flops   138 x    10 x    10              5575200       0.0%    100.0%      0.0%
 flops    57 x    10 x    57              6108120       0.0%    100.0%      0.0%
 flops    57 x    10 x    81              8679960       0.0%    100.0%      0.0%
 flops    81 x    10 x    57              8679960       0.0%    100.0%      0.0%
 flops    81 x    10 x    81             12334680       0.0%    100.0%      0.0%
 flops   138 x    10 x    57             13214880       0.0%    100.0%      0.0%
 flops   138 x    10 x    81             18779040       0.0%    100.0%      0.0%
 flops inhomo. stacks                           0       0.0%      0.0%      0.0%
 flops total                        90.373180E+06       0.0%    100.0%      0.0%
 flops max/rank                     87.709000E+06       0.0%    100.0%      0.0%
 matmuls inhomo. stacks                         0       0.0%      0.0%      0.0%
 matmuls total                               1543       0.0%    100.0%      0.0%
 number of processed stacks                  1543       0.0%    100.0%      0.0%
 average stack size                                     0.0       1.0       0.0
 marketing flops                    94.214040E+06
 -------------------------------------------------------------------------------
 # multiplications                            935
 max memory usage/rank             510.795776E+06
 # max total images/rank                        3
 # max 3D layers                                1
 # MPI messages exchanged                   89760
 MPI messages size (bytes):
  total size                       163.997120E+06
  min size                           0.000000E+00
  max size                          89.424000E+03
  average size                       1.827062E+03
 MPI breakdown and total messages size (bytes):
             size <=      128               82081                        0
       128 < size <=     8192                4684                 14990240
      8192 < size <=    32768                1215                 13413600
     32768 < size <=   131072                1780                135593280
    131072 < size <=  4194304                   0                        0
   4194304 < size <= 16777216                   0                        0
  16777216 < size                               0                        0
 -------------------------------------------------------------------------------

 *** WARNING in dbcsr_mm.F:290 :: Using a non-square number of MPI ranks ***
 *** might lead to poor performance. Used ranks: 12 Suggested: 9 25      ***

 -------------------------------------------------------------------------------
 -                                                                             -
 -                      DBCSR MESSAGE PASSING PERFORMANCE                      -
 -                                                                             -
 -------------------------------------------------------------------------------
 ROUTINE             CALLS      AVE VOLUME [Bytes]
 MP_Bcast               14                     12.
 MP_Allreduce         5009                      8.
 MP_Alltoall          3369                   1537.
 MP_ISend            19370                   2238.
 MP_IRecv            18776                    774.
 -------------------------------------------------------------------------------

 -------------------------------------------------------------------------------
 -                                                                             -
 -                                GRID STATISTICS                              -
 -                                                                             -
 -------------------------------------------------------------------------------
 LP    KERNEL             BACKEND                              COUNT     PERCENT
 2     collocate ortho    REF                                  30381      12.06%
 2     integrate ortho    REF                                  29640      11.76%
 3     collocate ortho    REF                                  27060      10.74%
 3     integrate ortho    REF                                  26400      10.48%
 1     collocate ortho    REF                                  23329       9.26%
 1     integrate ortho    REF                                  22760       9.03%
 4     collocate ortho    REF                                  19188       7.62%
 4     integrate ortho    REF                                  18720       7.43%
 5     collocate ortho    REF                                  11029       4.38%
 5     integrate ortho    REF                                  10760       4.27%
 0     collocate ortho    REF                                   9799       3.89%
 0     integrate ortho    REF                                   9560       3.79%
 6     collocate ortho    REF                                   4059       1.61%
 6     integrate ortho    REF                                   3960       1.57%
 7     collocate ortho    REF                                   1435       0.57%
 7     integrate ortho    REF                                   1400       0.56%
 2     collocate general  REF                                    960       0.38%
 2     integrate general  REF                                    960       0.38%
 8     collocate ortho    REF                                    287       0.11%
 8     integrate ortho    REF                                    280       0.11%
 -------------------------------------------------------------------------------

 MEMORY| Estimated peak process memory [MiB]                                 488

 -------------------------------------------------------------------------------
 -                                                                             -
 -                         MESSAGE PASSING PERFORMANCE                         -
 -                                                                             -
 -------------------------------------------------------------------------------

 ROUTINE             CALLS      AVE VOLUME [Bytes]
 MP_Group                4
 MP_Bcast              801                 276679.
 MP_Allreduce         2454                 102937.
 MP_Sync                94
 MP_Alltoall           818               19208171.
 MP_ISendRecv         2673                 338304.
 MP_Wait              5732
 MP_comm_split          45
 MP_ISend             2576                1301760.
 MP_IRecv             2576                1301760.
 MP_Recv                 8                   2208.
 -------------------------------------------------------------------------------


 -------------------------------------------------------------------------------
 -                                                                             -
 -                           R E F E R E N C E S                               -
 -                                                                             -
 -------------------------------------------------------------------------------
 
 CP2K version 10.0 (Development Version), the CP2K developers group (2022).
 CP2K is freely available from https://www.cp2k.org/ .

 Kuehne,Thomas D.; Iannuzzi,Marcella; Del Ben,Mauro;
 Rybkin,Vladimir V.; Seewald,Patrick; Stein,Frederick; Laino,Teodoro;
 Khaliullin,Rustam Z.; Schuett,Ole; Schiffmann,Florian; Golze,Dorothea;
 Wilhelm,Jan; Chulkov,Sergey; Bani-Hashemian,Mohammad Hossein;
 Weber,Valery; Borstnik,Urban; Taillefumier,Mathieu;
 Jakobovits,Alice Shoshana; Lazzaro,Alfio; Pabst,Hans; Mueller,Tiziano;
 Schade,Robert; Guidon,Manuel; Andermatt,Samuel; Holmberg,Nico;
 Schenter,Gregory K.; Hehn,Anna; Bussy,Augustin; Belleflamme,Fabian;
 Tabacchi,Gloria; Gloess,Andreas; Lass,Michael; Bethune,Iain;
 Mundy,Christopher J.; Plessl,Christian; Watkins,Matt;
 VandeVondele,Joost; Krack,Matthias; Hutter,Juerg. 
 The Journal of Chemical Physics, 152 (19), (2020). 
 CP2K: An electronic structure and molecular dynamics software package -
 Quickstep: Efficient and accurate electronic structure calculations.
 https://doi.org/10.1063/5.0007045

 Schuett, Ole; Messmer, Peter; Hutter, Juerg; VandeVondele, Joost. 
 Electronic Structure Calculations on Graphics Processing Units, John
 Wiley & Sons, Ltd, 173-190 (2016). 
 GPU-Accelerated Sparse Matrix-Matrix Multiplication for
 Linear Scaling Density Functional Theory.
 https://doi.org/10.1002/9781118670712.ch8

 Heinecke, A; Henry, G; Hutchinson, M; Pabst, H. 
 Proceedings of Intl. Supercomputing Conference, 981-991 (2016). 
 LIBXSMM: Accelerating Small Matrix Multiplications
 by Runtime Code Generation.
 https://doi.org/10.1109/SC.2016.83

 Borstnik, U; VandeVondele, J; Weber, V; Hutter, J. 
 PARALLEL COMPUTING, 40 (5-6), 47-58 (2014). 
 Sparse matrix multiplication: The distributed block-compressed sparse
 row library.
 https://doi.org/10.1016/j.parco.2014.03.012

 Hutter, J; Iannuzzi, M; Schiffmann, F; VandeVondele, J. 
 WIREs Comput Mol Sci., 4 (1), 15-25 (2014). 
 CP2K: atomistic simulations of condensed matter systems.
 https://doi.org/10.1002/wcms.1159

 Marek, A; Blum, V; Johanni, R; Havu, V; Lang, B; Auckenthaler, T;
 Heinecke, A; Bungartz, H; Lederer, H. 
 Journal of Physics: Condensed Matter, 26 (21), (2014). 
 The ELPA library: scalable parallel eigenvalue solutions for
 electronic structure
 theory and computational science.
 https://doi.org/10.1088/0953-8984/26/21/213201

 Krack, M. 
 THEORETICAL CHEMISTRY ACCOUNTS, 114 (1-3), 145-152 (2005). 
 Pseudopotentials for H to Kr optimized for gradient-corrected
 exchange-correlation functionals.
 https://doi.org/10.1007/s00214-005-0655-y

 Frigo, M; Johnson, SG. 
 PROCEEDINGS OF THE IEEE, 93 (2), 216-231 (2005). 
 The design and implementation of FFTW3.
 https://doi.org/10.1109/JPROC.2004.840301

 VandeVondele, J; Hutter, J. 
 JOURNAL OF CHEMICAL PHYSICS, 118 (10), 4365-4369 (2003). 
 An efficient orbital transformation method for electronic structure
 calculations.
 https://doi.org/10.1063/1.1543154

 Lippert, G; Hutter, J; Parrinello, M. 
 THEORETICAL CHEMISTRY ACCOUNTS, 103 (2), 124-140 (1999). 
 The Gaussian and augmented-plane-wave density functional method for ab
 initio molecular dynamics simulations.
 https://doi.org/10.1007/s002140050523

 Krack, M; Parrinello, M. 
 PHYSICAL CHEMISTRY CHEMICAL PHYSICS, 2 (10), 2105-2112 (2000). 
 All-electron ab-initio molecular dynamics.
 https://doi.org/10.1039/b001167n

 Hartwigsen, C; Goedecker, S; Hutter, J. 
 PHYSICAL REVIEW B, 58 (7), 3641-3662 (1998). 
 Relativistic separable dual-space Gaussian pseudopotentials from H to Rn.
 https://doi.org/10.1103/PhysRevB.58.3641

 Perdew, JP; Burke, K; Ernzerhof, M. 
 PHYSICAL REVIEW LETTERS, 77 (18), 3865-3868 (1996). 
 Generalized gradient approximation made simple.
 https://doi.org/10.1103/PhysRevLett.77.3865

 Goedecker, S; Teter, M; Hutter, J. 
 PHYSICAL REVIEW B, 54 (3), 1703-1710 (1996). 
 Separable dual-space Gaussian pseudopotentials.
 https://doi.org/10.1103/PhysRevB.54.1703


 -------------------------------------------------------------------------------
 -                                                                             -
 -                                T I M I N G                                  -
 -                                                                             -
 -------------------------------------------------------------------------------
 SUBROUTINE                       CALLS  ASD         SELF TIME        TOTAL TIME
                                MAXIMUM       AVERAGE  MAXIMUM  AVERAGE  MAXIMUM
 CP2K                                 1  1.0    0.011    0.038   53.387   53.389
 qs_energies                          1  2.0    0.000    0.000   53.016   53.017
 scf_env_do_scf                       1  3.0    0.000    0.000   52.126   52.126
 scf_env_do_scf_inner_loop           40  4.0    0.001    0.002   49.882   49.882
 qs_ks_update_qs_env                 42  5.0    0.000    0.001   43.275   43.280
 rebuild_ks_matrix                   40  6.0    0.000    0.000   43.269   43.274
 qs_ks_build_kohn_sham_matrix        40  7.0    0.007    0.009   43.269   43.274
 pw_transfer                        845 10.1    0.082    0.099   23.499   23.874
 fft_wrap_pw1pw2                    725 11.3    0.009    0.011   23.270   23.635
 fft_wrap_pw1pw2_300                482 12.7    1.249    1.464   22.214   22.514
 qs_vxc_create                       40  8.0    0.001    0.001   22.117   22.117
 xc_vxc_pw_create                    40  9.0    0.158    0.178   22.116   22.116
 fft3d_ps                           725 13.3   10.046   11.418   16.933   17.597
 xc_rho_set_and_dset_create          40 10.0    0.133    0.153   13.597   14.127
 xc_pw_derive                       240 11.0    0.002    0.002   12.170   12.454
 xc_pw_divergence                    40 10.0    0.001    0.001    8.123    8.458
 qs_rho_update_rho                   41  5.0    0.000    0.001    8.104    8.108
 calculate_rho_elec                  41  6.0    0.087    0.088    7.676    7.676
 xc_functional_eval                 200 10.8    0.001    0.001    7.266    7.623
 pbe_lda_eval                       200 11.8    7.266    7.623    7.266    7.623
 mp_alltoall_z22v                   725 15.3    4.033    6.951    4.033    6.951
 prepare_gapw_den                    40  8.0    0.001    0.001    6.739    6.819
 density_rs2pw                       41  7.0    0.002    0.002    6.146    6.315
 rs_pw_transfer                     404  9.5    0.007    0.010    5.749    5.995
 sum_up_and_integrate                40  8.0    0.031    0.037    5.452    5.459
 integrate_v_rspace                  40  9.0    0.001    0.001    5.421    5.428
 mp_sum_d                          1584  7.8    3.954    4.912    3.954    4.912
 yz_to_x                            364 13.9    1.328    1.693    3.593    4.873
 potential_pw2rs                     40 10.0    0.005    0.006    4.139    4.147
 x_to_yz                            361 14.7    1.508    1.872    3.276    3.865
 calculate_vxc_atom                  40  8.0    0.037    0.313    3.236    3.237
 put_rho0_on_grid                    40  9.0    0.090    0.096    3.108    3.188
 calculate_rho_atom                  80  9.0    1.157    3.185    1.157    3.185
 gaVxcgb_GC                          80  9.0    0.231    2.772    0.231    2.772
 pw_gather_p                        364 12.9    2.479    2.766    2.479    2.766
 pw_scatter_p                       361 13.7    2.552    2.724    2.552    2.724
 rs_pw_transfer_RS2PW_300            81 10.0    1.307    1.521    2.328    2.562
 rs_pw_transfer_PW2RS_300            80 11.0    1.288    1.479    2.275    2.439
 mp_sum_dv                          934 12.9    1.957    2.335    1.957    2.335
 integrate_vhg0_rspace               40  8.0    0.207    0.311    2.273    2.290
 init_scf_loop                        2  4.0    0.000    0.000    2.244    2.244
 mp_waitany                        2576 11.5    1.470    2.142    1.470    2.142
 grid_collocate_task_list            41  7.0    1.188    1.467    1.188    1.467
 grid_integrate_task_list            40 10.0    1.021    1.275    1.021    1.275
 dbcsr_multiply_generic             935 10.1    0.027    0.029    1.214    1.259
 mp_sum_dm                          244  7.7    0.941    1.175    0.941    1.175
 -------------------------------------------------------------------------------

 The number of warnings for this run is : 1
 
 -------------------------------------------------------------------------------
  **** **** ******  **  PROGRAM ENDED AT                 2022-05-30 17:10:57.516
 ***** ** ***  *** **   PROGRAM RAN ON                                   tcopt10
 **    ****   ******    PROGRAM RAN BY                                    hutter
 ***** **    ** ** **   PROGRAM PROCESS ID                                 74950
  **** **  *******  **  PROGRAM STOPPED IN /data/hutter/GITHUB/BASIS/scMOLOPT/PB
                                           E/Zr
