 DBCSR| CPU Multiplication driver                                           XSMM
 DBCSR| Multrec recursion limit                                              512
 DBCSR| Multiplication stack size                                           1000
 DBCSR| Maximum elements for images                                    UNLIMITED
 DBCSR| Multiplicative factor virtual images                                   1
 DBCSR| Use multiplication densification                                       T
 DBCSR| Multiplication size stacks                                             3
 DBCSR| Use memory pool for CPU allocation                                     F
 DBCSR| Number of 3D layers                                               SINGLE
 DBCSR| Use MPI memory allocation                                              F
 DBCSR| Use RMA algorithm                                                      F
 DBCSR| Use Communication thread                                               T
 DBCSR| Communication thread load                                             87
 DBCSR| MPI: My node id                                                        0
 DBCSR| MPI: Number of nodes                                                  12
 DBCSR| OMP: Current number of threads                                         1
 DBCSR| OMP: Max number of threads                                             1
 DBCSR| Split modifier for TAS multiplication algorithm                  1.0E+00


  **** **** ******  **  PROGRAM STARTED AT               2022-05-30 17:09:13.338
 ***** ** ***  *** **   PROGRAM STARTED ON                               tcopt10
 **    ****   ******    PROGRAM STARTED BY                                hutter
 ***** **    ** ** **   PROGRAM PROCESS ID                                 74823
  **** **  *******  **  PROGRAM STARTED IN /data/hutter/GITHUB/BASIS/scMOLOPT/PB
                                           E/Zr

 CP2K| version string:                   CP2K version 10.0 (Development Version)
 CP2K| source code revision number:                                  git:d19b00a
 CP2K| cp2kflags: omp libint fftw3 libxc elpa parallel mpi3 scalapack cosma xsmm
 CP2K|             spglib sirius libvori libbqb
 CP2K| is freely available from                            https://www.cp2k.org/
 CP2K| Program compiled at                      Wed 18 May 2022 12:15:59 PM CEST
 CP2K| Program compiled on                                               tcopt10
 CP2K| Program compiled for                                                local
 CP2K| Data directory path                   /data/hutter/GITHUB/TDLRI/cp2k/data
 CP2K| Input file name                                              ZrO2-ref.inp

 GLOBAL| Force Environment number                                              1
 GLOBAL| Basis set file name                                        ../def2QZVPP
 GLOBAL| Potential file name                                        ../POTENTIAL
 GLOBAL| MM Potential file name                                     MM_POTENTIAL
 GLOBAL| Coordinate file name                                      __STD_INPUT__
 GLOBAL| Method name                                                        CP2K
 GLOBAL| Project name                                                    refZrO2
 GLOBAL| Run type                                                         ENERGY
 GLOBAL| FFT library                                                       FFTW3
 GLOBAL| Diagonalization library                                            ELPA
 GLOBAL| Minimum number of eigenvectors for ELPA usage                        16
 GLOBAL| Orthonormality check for eigenvectors                          DISABLED
 GLOBAL| Matrix multiplication library                                     COSMA
 GLOBAL| All-to-all communication in single precision                          F
 GLOBAL| FFTs using library dependent lengths                                  F
 GLOBAL| Grid backend                                                       AUTO
 GLOBAL| Global print level                                                  LOW
 GLOBAL| MPI I/O enabled                                                       T
 GLOBAL| Total number of message passing processes                            12
 GLOBAL| Number of threads for this process                                    1
 GLOBAL| This output is from process                                           0
 GLOBAL| Stack size for threads created by OpenMP (OMP_STACKSIZE)        default
 GLOBAL| CPU model name                          AMD EPYC 7401 24-Core Processor
 GLOBAL| CPUID                                                              1002

 MEMORY| system memory details [Kb]
 MEMORY|                        rank 0           min           max       average
 MEMORY| MemTotal            263969132     263969132     263969132     263969132
 MEMORY| MemFree             224311888     224311888     224311888     224311888
 MEMORY| Buffers                  2836          2836          2836          2836
 MEMORY| Cached               20275308      20275308      20275308      20275308
 MEMORY| Slab                  1469604       1469604       1469604       1469604
 MEMORY| SReclaimable           879372        879372        879372        879372
 MEMORY| MemLikelyFree       245469404     245469404     245469404     245469404


 GENERATE|  Preliminary Number of Bonds generated:                             0
 GENERATE|  Achieved consistency in connectivity generation.

 *******************************************************************************
 *******************************************************************************
 **                                                                           **
 **     #####                         ##              ##                      **
 **    ##   ##            ##          ##              ##                      **
 **   ##     ##                       ##            ######                    **
 **   ##     ##  ##   ##  ##   #####  ##  ##   ####   ##    #####    #####    **
 **   ##     ##  ##   ##  ##  ##      ## ##   ##      ##   ##   ##  ##   ##   **
 **   ##  ## ##  ##   ##  ##  ##      ####     ###    ##   ######   ######    **
 **    ##  ###   ##   ##  ##  ##      ## ##      ##   ##   ##       ##        **
 **     #######   #####   ##   #####  ##  ##  ####    ##    #####   ##        **
 **           ##                                                    ##        **
 **                                                                           **
 **                                                ... make the atoms dance   **
 **                                                                           **
 **            Copyright (C) by CP2K developers group (2000-2022)             **
 **                      J. Chem. Phys. 152, 194103 (2020)                    **
 **                                                                           **
 *******************************************************************************


 TOTAL NUMBERS AND MAXIMUM NUMBERS

  Total number of            - Atomic kinds:                                   2
                             - Atoms:                                          3
                             - Shell sets:                                    55
                             - Shells:                                        55
                             - Primitive Cartesian functions:                 86
                             - Cartesian basis functions:                    250
                             - Spherical basis functions:                    195

  Maximum angular momentum of- Orbital basis functions:                        4
                             - Local part of the GTH pseudopotential:          2
                             - Non-local part of the GTH pseudopotential:      4


 SCF PARAMETERS         Density guess:                                    ATOMIC
                        --------------------------------------------------------
                        max_scf:                                              20
                        max_scf_history:                                       0
                        max_diis:                                              4
                        --------------------------------------------------------
                        eps_scf:                                        1.00E-07
                        eps_scf_history:                                0.00E+00
                        eps_diis:                                       1.00E-01
                        eps_eigval:                                     1.00E-05
                        --------------------------------------------------------
                        level_shift [a.u.]:                             0.000000
                        --------------------------------------------------------
                        Outer loop SCF in use 
                        No variables optimised in outer loop
                        eps_scf                                         1.00E-07
                        max_scf                                                5
                        No outer loop optimization
                        step_size                                       5.00E-01

 Number of electrons:                                                         28
 Number of occupied orbitals:                                                 14
 Number of molecular orbitals:                                                14

 Number of orbital functions:                                                195
 Number of independent orbital functions:                                    195

 Extrapolation method: initial_guess


 SCF WAVEFUNCTION OPTIMIZATION

  ----------------------------------- OT ---------------------------------------
  Minimizer      : DIIS                : direct inversion
                                         in the iterative subspace
                                         using   7 DIIS vectors
                                         safer DIIS on
  Preconditioner : FULL_ALL            : diagonalization, state selective
  Precond_solver : DEFAULT
  stepsize       :    0.10000000                  energy_gap     :    0.08000000
  eps_taylor     :   0.10000E-15                  max_taylor     :             4
  ----------------------------------- OT ---------------------------------------

  Step     Update method      Time    Convergence         Total energy    Change
  ------------------------------------------------------------------------------
     1 OT DIIS     0.10E+00    1.1     0.10747776      -193.2375596237 -1.93E+02
     2 OT DIIS     0.10E+00    1.3     0.05680667      -195.4929483490 -2.26E+00
     3 OT DIIS     0.10E+00    1.3     0.02880551      -196.3261067509 -8.33E-01
     4 OT DIIS     0.10E+00    1.3     0.01356662      -196.5953787630 -2.69E-01
     5 OT DIIS     0.10E+00    1.3     0.01094113      -196.6579016785 -6.25E-02
     6 OT DIIS     0.10E+00    1.3     0.00886449      -196.7218084539 -6.39E-02
     7 OT DIIS     0.10E+00    1.3     0.00712048      -196.7947713096 -7.30E-02
     8 OT DIIS     0.10E+00    1.3     0.00589134      -196.8440036283 -4.92E-02
     9 OT DIIS     0.10E+00    1.3     0.00509457      -196.8814462969 -3.74E-02
    10 OT DIIS     0.10E+00    1.3     0.00408386      -196.9123659193 -3.09E-02
    11 OT DIIS     0.10E+00    1.3     0.00461961      -196.9344308234 -2.21E-02
    12 OT DIIS     0.10E+00    1.3     0.00445052      -196.9336343100  7.97E-04
    13 OT DIIS     0.10E+00    1.3     0.00216534      -196.9506930854 -1.71E-02
    14 OT DIIS     0.10E+00    1.3     0.00250644      -196.9579694737 -7.28E-03
    15 OT DIIS     0.10E+00    1.3     0.00300625      -196.9564209532  1.55E-03
    16 OT DIIS     0.10E+00    1.3     0.00161115      -196.9606834837 -4.26E-03
    17 OT DIIS     0.10E+00    1.3     0.00094151      -196.9633354160 -2.65E-03
    18 OT DIIS     0.10E+00    1.3     0.00069329      -196.9641854543 -8.50E-04
    19 OT DIIS     0.10E+00    1.3     0.00121138      -196.9643794301 -1.94E-04
    20 OT DIIS     0.10E+00    1.3     0.00070225      -196.9648053560 -4.26E-04

  Leaving inner SCF loop after reaching    20 steps.


  Electronic density on regular grids:        -23.9372163314        4.0627836686
  Core density on regular grids:               28.0000000000        0.0000000000
  Hard and soft densities (Lebedev):          -48.0657162990      -44.0029325664
  Total Rho_soft + Rho1_hard - Rho1_soft      -28.0000000640
  Total charge density (r-space):              -0.0000000640
  Total Rho_soft + Rho0_soft (g-space):        -0.0000002806

  Overlap energy of the core charge distribution:               0.00000001517375
  Self energy of the core charge distribution:               -230.99049967130370
  Core Hamiltonian energy:                                      5.85001073363780
  Hartree energy:                                             111.36987265102411
  Exchange-correlation energy:                                -12.68652068794033

  GAPW| Exc from hard and soft atomic rho1:                   -10.20188462444940
  GAPW| local Eh = 1 center integrals:                        -60.30578377212476

  Total energy:                                              -196.96480535598252

  outer SCF iter =    1 RMS gradient =   0.70E-03 energy =       -196.9648053560

  ----------------------------------- OT ---------------------------------------
  Minimizer      : DIIS                : direct inversion
                                         in the iterative subspace
                                         using   7 DIIS vectors
                                         safer DIIS on
  Preconditioner : FULL_ALL            : diagonalization, state selective
  Precond_solver : DEFAULT
  stepsize       :    0.10000000                  energy_gap     :    0.08000000
  eps_taylor     :   0.10000E-15                  max_taylor     :             4
  ----------------------------------- OT ---------------------------------------

  Step     Update method      Time    Convergence         Total energy    Change
  ------------------------------------------------------------------------------
     1 OT DIIS     0.10E+00    2.6     0.00122986      -196.9648256663 -2.03E-05
     2 OT DIIS     0.10E+00    1.3     0.00114892      -196.9650278356 -2.02E-04
     3 OT DIIS     0.10E+00    1.3     0.00056798      -196.9651230784 -9.52E-05
     4 OT DIIS     0.10E+00    1.3     0.00007483      -196.9652052723 -8.22E-05
     5 OT DIIS     0.10E+00    1.3     0.00003322      -196.9652061698 -8.98E-07
     6 OT DIIS     0.10E+00    1.3     0.00002370      -196.9652063015 -1.32E-07
     7 OT DIIS     0.10E+00    1.3     0.00000513      -196.9652063868 -8.53E-08
     8 OT DIIS     0.10E+00    1.3     0.00000211      -196.9652063943 -7.52E-09
     9 OT DIIS     0.10E+00    1.3     0.00000030      -196.9652063951 -8.05E-10
    10 OT DIIS     0.10E+00    1.3     0.00000011      -196.9652063951 -2.91E-11
    11 OT DIIS     0.10E+00    1.3     0.00000003      -196.9652063951 -1.56E-12

  *** SCF run converged in    11 steps ***


  Electronic density on regular grids:        -23.9353771051        4.0646228949
  Core density on regular grids:               28.0000000000        0.0000000000
  Hard and soft densities (Lebedev):          -48.0923736879      -44.0277507414
  Total Rho_soft + Rho1_hard - Rho1_soft      -28.0000000516
  Total charge density (r-space):              -0.0000000516
  Total Rho_soft + Rho0_soft (g-space):        -0.0000002681

  Overlap energy of the core charge distribution:               0.00000001517375
  Self energy of the core charge distribution:               -230.99049967130370
  Core Hamiltonian energy:                                      5.86789681389621
  Hartree energy:                                             111.35796901164089
  Exchange-correlation energy:                                -12.69002189049460

  GAPW| Exc from hard and soft atomic rho1:                   -10.20436369860158
  GAPW| local Eh = 1 center integrals:                        -60.30618697543576

  Total energy:                                              -196.96520639512480

  outer SCF iter =    2 RMS gradient =   0.34E-07 energy =       -196.9652063951
  outer SCF loop converged in   2 iterations or   31 steps


 ENERGY| Total FORCE_EVAL ( QS ) energy [a.u.]:             -196.965206395124795

 -------------------------------------------------------------------------------
 -                                                                             -
 -                                DBCSR STATISTICS                             -
 -                                                                             -
 -------------------------------------------------------------------------------
 COUNTER                                    TOTAL       BLAS       SMM       ACC
 flops    14 x    14 x    14              1575056       0.0%    100.0%      0.0%
 flops    57 x    14 x    14              3508008       0.0%    100.0%      0.0%
 flops    14 x    14 x    81              4000752       0.0%    100.0%      0.0%
 flops    57 x    81 x    14              4136832       0.0%    100.0%      0.0%
 flops    81 x    57 x    14              4136832       0.0%    100.0%      0.0%
 flops    14 x    14 x    57              5630688       0.0%    100.0%      0.0%
 flops    81 x    81 x    14              5878656       0.0%    100.0%      0.0%
 flops   138 x    14 x    14              8493072       0.0%    100.0%      0.0%
 flops    57 x    57 x    14              8733312       0.0%    100.0%      0.0%
 flops    81 x    14 x    81             13961808       0.0%    100.0%      0.0%
 flops    81 x    14 x    57             19649952       0.0%    100.0%      0.0%
 flops   138 x    14 x    81             20656944       0.0%    100.0%      0.0%
 flops    57 x    14 x    81             28182168       0.0%    100.0%      0.0%
 flops   138 x    14 x    57             29072736       0.0%    100.0%      0.0%
 flops    57 x    14 x    57             39663792       0.0%    100.0%      0.0%
 flops inhomo. stacks                           0       0.0%      0.0%      0.0%
 flops total                       197.280608E+06       0.0%    100.0%      0.0%
 flops max/rank                    132.572384E+06       0.0%    100.0%      0.0%
 matmuls inhomo. stacks                         0       0.0%      0.0%      0.0%
 matmuls total                               2251       0.0%    100.0%      0.0%
 number of processed stacks                  2251       0.0%    100.0%      0.0%
 average stack size                                     0.0       1.0       0.0
 marketing flops                   208.617840E+06
 -------------------------------------------------------------------------------
 # multiplications                            746
 max memory usage/rank             508.116992E+06
 # max total images/rank                        3
 # max 3D layers                                1
 # MPI messages exchanged                   71616
 MPI messages size (bytes):
  total size                       259.878272E+06
  min size                           0.000000E+00
  max size                          89.424000E+03
  average size                       3.628774E+03
 MPI breakdown and total messages size (bytes):
             size <=      128               60797                        0
       128 < size <=     8192                4684                 20853392
      8192 < size <=    32768                3295                 59951520
     32768 < size <=   131072                2840                179073360
    131072 < size <=  4194304                   0                        0
   4194304 < size <= 16777216                   0                        0
  16777216 < size                               0                        0
 -------------------------------------------------------------------------------

 *** WARNING in dbcsr_mm.F:290 :: Using a non-square number of MPI ranks ***
 *** might lead to poor performance. Used ranks: 12 Suggested: 9 25      ***

 -------------------------------------------------------------------------------
 -                                                                             -
 -                      DBCSR MESSAGE PASSING PERFORMANCE                      -
 -                                                                             -
 -------------------------------------------------------------------------------
 ROUTINE             CALLS      AVE VOLUME [Bytes]
 MP_Bcast               16                     12.
 MP_Allreduce         3987                      8.
 MP_Alltoall          2630                   1924.
 MP_ISend            15294                   2936.
 MP_IRecv            15130                   1722.
 -------------------------------------------------------------------------------

 -------------------------------------------------------------------------------
 -                                                                             -
 -                                GRID STATISTICS                              -
 -                                                                             -
 -------------------------------------------------------------------------------
 LP    KERNEL             BACKEND                              COUNT     PERCENT
 2     collocate ortho    REF                                  30880      12.02%
 2     integrate ortho    REF                                  29915      11.65%
 3     collocate ortho    REF                                  27648      10.76%
 3     integrate ortho    REF                                  26784      10.43%
 1     collocate ortho    REF                                  23744       9.24%
 1     integrate ortho    REF                                  23002       8.95%
 4     collocate ortho    REF                                  19808       7.71%
 4     integrate ortho    REF                                  19189       7.47%
 5     collocate ortho    REF                                  11584       4.51%
 5     integrate ortho    REF                                  11222       4.37%
 0     collocate ortho    REF                                   9312       3.63%
 0     integrate ortho    REF                                   9021       3.51%
 6     collocate ortho    REF                                   4416       1.72%
 6     integrate ortho    REF                                   4278       1.67%
 7     collocate ortho    REF                                   1600       0.62%
 7     integrate ortho    REF                                   1550       0.60%
 2     collocate general  REF                                   1116       0.43%
 2     integrate general  REF                                   1116       0.43%
 8     collocate ortho    REF                                    352       0.14%
 8     integrate ortho    REF                                    341       0.13%
 -------------------------------------------------------------------------------

 MEMORY| Estimated peak process memory [MiB]                                 485

 -------------------------------------------------------------------------------
 -                                                                             -
 -                         MESSAGE PASSING PERFORMANCE                         -
 -                                                                             -
 -------------------------------------------------------------------------------

 ROUTINE             CALLS      AVE VOLUME [Bytes]
 MP_Group                4
 MP_Bcast              754                 294454.
 MP_Allreduce         2220                 109830.
 MP_Sync                56
 MP_Alltoall           638               19094638.
 MP_ISendRecv         2079                 338304.
 MP_Wait              4454
 MP_comm_split          26
 MP_ISend             2000                1301760.
 MP_IRecv             2000                1301760.
 MP_Recv                 8                   4680.
 -------------------------------------------------------------------------------


 -------------------------------------------------------------------------------
 -                                                                             -
 -                           R E F E R E N C E S                               -
 -                                                                             -
 -------------------------------------------------------------------------------
 
 CP2K version 10.0 (Development Version), the CP2K developers group (2022).
 CP2K is freely available from https://www.cp2k.org/ .

 Kuehne,Thomas D.; Iannuzzi,Marcella; Del Ben,Mauro;
 Rybkin,Vladimir V.; Seewald,Patrick; Stein,Frederick; Laino,Teodoro;
 Khaliullin,Rustam Z.; Schuett,Ole; Schiffmann,Florian; Golze,Dorothea;
 Wilhelm,Jan; Chulkov,Sergey; Bani-Hashemian,Mohammad Hossein;
 Weber,Valery; Borstnik,Urban; Taillefumier,Mathieu;
 Jakobovits,Alice Shoshana; Lazzaro,Alfio; Pabst,Hans; Mueller,Tiziano;
 Schade,Robert; Guidon,Manuel; Andermatt,Samuel; Holmberg,Nico;
 Schenter,Gregory K.; Hehn,Anna; Bussy,Augustin; Belleflamme,Fabian;
 Tabacchi,Gloria; Gloess,Andreas; Lass,Michael; Bethune,Iain;
 Mundy,Christopher J.; Plessl,Christian; Watkins,Matt;
 VandeVondele,Joost; Krack,Matthias; Hutter,Juerg. 
 The Journal of Chemical Physics, 152 (19), (2020). 
 CP2K: An electronic structure and molecular dynamics software package -
 Quickstep: Efficient and accurate electronic structure calculations.
 https://doi.org/10.1063/5.0007045

 Schuett, Ole; Messmer, Peter; Hutter, Juerg; VandeVondele, Joost. 
 Electronic Structure Calculations on Graphics Processing Units, John
 Wiley & Sons, Ltd, 173-190 (2016). 
 GPU-Accelerated Sparse Matrix-Matrix Multiplication for
 Linear Scaling Density Functional Theory.
 https://doi.org/10.1002/9781118670712.ch8

 Heinecke, A; Henry, G; Hutchinson, M; Pabst, H. 
 Proceedings of Intl. Supercomputing Conference, 981-991 (2016). 
 LIBXSMM: Accelerating Small Matrix Multiplications
 by Runtime Code Generation.
 https://doi.org/10.1109/SC.2016.83

 Borstnik, U; VandeVondele, J; Weber, V; Hutter, J. 
 PARALLEL COMPUTING, 40 (5-6), 47-58 (2014). 
 Sparse matrix multiplication: The distributed block-compressed sparse
 row library.
 https://doi.org/10.1016/j.parco.2014.03.012

 Hutter, J; Iannuzzi, M; Schiffmann, F; VandeVondele, J. 
 WIREs Comput Mol Sci., 4 (1), 15-25 (2014). 
 CP2K: atomistic simulations of condensed matter systems.
 https://doi.org/10.1002/wcms.1159

 Marek, A; Blum, V; Johanni, R; Havu, V; Lang, B; Auckenthaler, T;
 Heinecke, A; Bungartz, H; Lederer, H. 
 Journal of Physics: Condensed Matter, 26 (21), (2014). 
 The ELPA library: scalable parallel eigenvalue solutions for
 electronic structure
 theory and computational science.
 https://doi.org/10.1088/0953-8984/26/21/213201

 Krack, M. 
 THEORETICAL CHEMISTRY ACCOUNTS, 114 (1-3), 145-152 (2005). 
 Pseudopotentials for H to Kr optimized for gradient-corrected
 exchange-correlation functionals.
 https://doi.org/10.1007/s00214-005-0655-y

 Frigo, M; Johnson, SG. 
 PROCEEDINGS OF THE IEEE, 93 (2), 216-231 (2005). 
 The design and implementation of FFTW3.
 https://doi.org/10.1109/JPROC.2004.840301

 VandeVondele, J; Hutter, J. 
 JOURNAL OF CHEMICAL PHYSICS, 118 (10), 4365-4369 (2003). 
 An efficient orbital transformation method for electronic structure
 calculations.
 https://doi.org/10.1063/1.1543154

 Lippert, G; Hutter, J; Parrinello, M. 
 THEORETICAL CHEMISTRY ACCOUNTS, 103 (2), 124-140 (1999). 
 The Gaussian and augmented-plane-wave density functional method for ab
 initio molecular dynamics simulations.
 https://doi.org/10.1007/s002140050523

 Krack, M; Parrinello, M. 
 PHYSICAL CHEMISTRY CHEMICAL PHYSICS, 2 (10), 2105-2112 (2000). 
 All-electron ab-initio molecular dynamics.
 https://doi.org/10.1039/b001167n

 Hartwigsen, C; Goedecker, S; Hutter, J. 
 PHYSICAL REVIEW B, 58 (7), 3641-3662 (1998). 
 Relativistic separable dual-space Gaussian pseudopotentials from H to Rn.
 https://doi.org/10.1103/PhysRevB.58.3641

 Perdew, JP; Burke, K; Ernzerhof, M. 
 PHYSICAL REVIEW LETTERS, 77 (18), 3865-3868 (1996). 
 Generalized gradient approximation made simple.
 https://doi.org/10.1103/PhysRevLett.77.3865

 Goedecker, S; Teter, M; Hutter, J. 
 PHYSICAL REVIEW B, 54 (3), 1703-1710 (1996). 
 Separable dual-space Gaussian pseudopotentials.
 https://doi.org/10.1103/PhysRevB.54.1703


 -------------------------------------------------------------------------------
 -                                                                             -
 -                                T I M I N G                                  -
 -                                                                             -
 -------------------------------------------------------------------------------
 SUBROUTINE                       CALLS  ASD         SELF TIME        TOTAL TIME
                                MAXIMUM       AVERAGE  MAXIMUM  AVERAGE  MAXIMUM
 CP2K                                 1  1.0    0.009    0.029   40.742   40.743
 qs_energies                          1  2.0    0.000    0.000   40.389   40.390
 scf_env_do_scf                       1  3.0    0.000    0.000   39.645   39.646
 scf_env_do_scf_inner_loop           31  4.0    0.001    0.002   37.465   37.466
 qs_ks_update_qs_env                 33  5.0    0.000    0.000   32.557   32.561
 rebuild_ks_matrix                   31  6.0    0.000    0.000   32.552   32.556
 qs_ks_build_kohn_sham_matrix        31  7.0    0.006    0.007   32.552   32.556
 pw_transfer                        656 10.1    0.065    0.076   18.426   18.661
 fft_wrap_pw1pw2                    563 11.3    0.007    0.009   18.247   18.480
 fft_wrap_pw1pw2_300                374 12.7    0.951    1.083   17.366   17.633
 qs_vxc_create                       31  8.0    0.001    0.001   17.220   17.220
 xc_vxc_pw_create                    31  9.0    0.123    0.138   17.219   17.220
 fft3d_ps                           563 13.3    7.901    8.813   13.414   13.959
 xc_rho_set_and_dset_create          31 10.0    0.105    0.125   10.481   10.948
 xc_pw_derive                       186 11.0    0.002    0.002    9.506    9.655
 xc_pw_divergence                    31 10.0    0.001    0.001    6.416    6.550
 qs_rho_update_rho                   32  5.0    0.000    0.001    6.546    6.548
 calculate_rho_elec                  32  6.0    0.068    0.069    6.267    6.267
 xc_functional_eval                  93 10.7    0.000    0.001    5.628    5.989
 pbe_lda_eval                        93 11.7    5.627    5.988    5.627    5.988
 mp_alltoall_z22v                   563 15.3    3.470    5.523    3.470    5.523
 density_rs2pw                       32  7.0    0.001    0.002    4.872    5.069
 prepare_gapw_den                    31  8.0    0.001    0.001    4.794    4.861
 rs_pw_transfer                     314  9.5    0.006    0.008    4.481    4.655
 sum_up_and_integrate                31  8.0    0.023    0.028    4.568    4.571
 integrate_v_rspace                  31  9.0    0.001    0.001    4.545    4.550
 yz_to_x                            283 13.9    0.976    1.328    2.954    3.883
 potential_pw2rs                     31 10.0    0.004    0.005    3.260    3.266
 x_to_yz                            280 14.7    1.053    1.450    2.545    3.025
 mp_sum_d                          1359  7.4    1.954    2.825    1.954    2.825
 put_rho0_on_grid                    31  9.0    0.070    0.075    2.440    2.507
 init_scf_loop                        2  4.0    0.000    0.000    2.179    2.179
 pw_gather_p                        283 12.9    1.897    2.148    1.897    2.148
 pw_scatter_p                       280 13.7    1.942    2.110    1.942    2.110
 rs_pw_transfer_RS2PW_300            63 10.0    1.000    1.176    1.832    2.033
 calculate_rho_atom                  62  9.0    0.963    1.949    0.963    1.949
 integrate_vhg0_rspace               31  8.0    0.212    0.262    1.923    1.947
 rs_pw_transfer_PW2RS_300            62 11.0    0.985    1.141    1.752    1.904
 mp_waitany                        2000 11.5    1.189    1.667    1.189    1.667
 calculate_vxc_atom                  31  8.0    0.043    0.159    1.485    1.485
 grid_collocate_task_list            32  7.0    1.090    1.319    1.090    1.319
 gaVxcgb_GC                          31  9.0    0.293    1.294    0.293    1.294
 mp_sum_dv                          862 12.9    0.930    1.286    0.930    1.286
 grid_integrate_task_list            31 10.0    0.996    1.254    0.996    1.254
 mp_sum_dm                          285  7.7    0.769    0.959    0.769    0.959
 dbcsr_multiply_generic             746 10.1    0.021    0.023    0.832    0.876
 mp_waitall_1                     38262 14.2    0.658    0.856    0.658    0.856
 -------------------------------------------------------------------------------

 The number of warnings for this run is : 1
 
 -------------------------------------------------------------------------------
  **** **** ******  **  PROGRAM ENDED AT                 2022-05-30 17:09:54.481
 ***** ** ***  *** **   PROGRAM RAN ON                                   tcopt10
 **    ****   ******    PROGRAM RAN BY                                    hutter
 ***** **    ** ** **   PROGRAM PROCESS ID                                 74823
  **** **  *******  **  PROGRAM STOPPED IN /data/hutter/GITHUB/BASIS/scMOLOPT/PB
                                           E/Zr
