
  **** **** ******  **  PROGRAM STARTED AT               2021-01-20 15:50:12.183
 ***** ** ***  *** **   PROGRAM STARTED ON                               tcopt10
 **    ****   ******    PROGRAM STARTED BY                                hutter
 ***** **    ** ** **   PROGRAM PROCESS ID                                 13543
  **** **  *******  **  PROGRAM STARTED IN /data/hutter/GITHUB/BASIS/MOLOPT/PBE/
                                           Ti

 CP2K| version string:                    CP2K version 9.0 (Development Version)
 CP2K| source code revision number:                                  git:7d6847f
 CP2K| cp2kflags: omp libint fftw3 libxc elpa parallel mpi3 scalapack xsmm spgli
 CP2K|            b sirius libvori libbqb
 CP2K| is freely available from                            https://www.cp2k.org/
 CP2K| Program compiled at                          Fre Jan 15 16:26:00 CET 2021
 CP2K| Program compiled on                                               tcopt10
 CP2K| Program compiled for                                                local
 CP2K| Data directory path                 /data/hutter/GITHUB/CURRENT/cp2k/data
 CP2K| Input file name                                               opt-all.inp

 GLOBAL| Method name                                              OPTIMIZE_BASIS
 GLOBAL| Project name                                                     molopt
 GLOBAL| Preferred FFT library                                             FFTW3
 GLOBAL| Preferred diagonalization lib.                                     ELPA
 GLOBAL| Run type                                                   ENERGY_FORCE
 GLOBAL| All-to-all communication in single precision                          F
 GLOBAL| FFTs using library dependent lengths                                  F
 GLOBAL| Global print level                                               MEDIUM
 GLOBAL| MPI I/O enabled                                                       T
 GLOBAL| Total number of message passing processes                            48
 GLOBAL| Number of threads for this process                                    1
 GLOBAL| This output is from process                                           0
 GLOBAL| CPU model name                          AMD EPYC 7401 24-Core Processor
 GLOBAL| CPUID                                                              1002

 MEMORY| system memory details [Kb]
 MEMORY|                        rank 0           min           max       average
 MEMORY| MemTotal            263969964     263969964     263969964     263969964
 MEMORY| MemFree             258992944     258992944     258992944     258992944
 MEMORY| Buffers                    20            20            20            20
 MEMORY| Cached                1042508       1042508       1042508       1042508
 MEMORY| Slab                   585592        585592        585592        585592
 MEMORY| SReclaimable           229400        229400        229400        229400
 MEMORY| MemLikelyFree       260264872     260264872     260264872     260264872


 *** Fundamental physical constants (SI units) ***

 *** Literature: B. J. Mohr and B. N. Taylor,
 ***             CODATA recommended values of the fundamental physical
 ***             constants: 2006, Web Version 5.1
 ***             http://physics.nist.gov/constants

 Speed of light in vacuum [m/s]                             2.99792458000000E+08
 Magnetic constant or permeability of vacuum [N/A**2]       1.25663706143592E-06
 Electric constant or permittivity of vacuum [F/m]          8.85418781762039E-12
 Planck constant (h) [J*s]                                  6.62606896000000E-34
 Planck constant (h-bar) [J*s]                              1.05457162825177E-34
 Elementary charge [C]                                      1.60217648700000E-19
 Electron mass [kg]                                         9.10938215000000E-31
 Electron g factor [ ]                                     -2.00231930436220E+00
 Proton mass [kg]                                           1.67262163700000E-27
 Fine-structure constant                                    7.29735253760000E-03
 Rydberg constant [1/m]                                     1.09737315685270E+07
 Avogadro constant [1/mol]                                  6.02214179000000E+23
 Boltzmann constant [J/K]                                   1.38065040000000E-23
 Atomic mass unit [kg]                                      1.66053878200000E-27
 Bohr radius [m]                                            5.29177208590000E-11

 *** Conversion factors ***

 [u] -> [a.u.]                                              1.82288848426455E+03
 [Angstrom] -> [Bohr] = [a.u.]                              1.88972613288564E+00
 [a.u.] = [Bohr] -> [Angstrom]                              5.29177208590000E-01
 [a.u.] -> [s]                                              2.41888432650478E-17
 [a.u.] -> [fs]                                             2.41888432650478E-02
 [a.u.] -> [J]                                              4.35974393937059E-18
 [a.u.] -> [N]                                              8.23872205491840E-08
 [a.u.] -> [K]                                              3.15774647902944E+05
 [a.u.] -> [kJ/mol]                                         2.62549961709828E+03
 [a.u.] -> [kcal/mol]                                       6.27509468713739E+02
 [a.u.] -> [Pa]                                             2.94210107994716E+13
 [a.u.] -> [bar]                                            2.94210107994716E+08
 [a.u.] -> [atm]                                            2.90362800883016E+08
 [a.u.] -> [eV]                                             2.72113838565563E+01
 [a.u.] -> [Hz]                                             6.57968392072181E+15
 [a.u.] -> [1/cm] (wave numbers)                            2.19474631370540E+05
 [a.u./Bohr**2] -> [1/cm]                                   5.14048714338585E+03
 
 DBCSR| CPU Multiplication driver                                           XSMM
 DBCSR| Multrec recursion limit                                              512
 DBCSR| Multiplication stack size                                           1000
 DBCSR| Maximum elements for images                                    UNLIMITED
 DBCSR| Multiplicative factor virtual images                                   1
 DBCSR| Use multiplication densification                                       T
 DBCSR| Multiplication size stacks                                             3
 DBCSR| Use memory pool for CPU allocation                                     F
 DBCSR| Number of 3D layers                                               SINGLE
 DBCSR| Use MPI memory allocation                                              F
 DBCSR| Use RMA algorithm                                                      F
 DBCSR| Use Communication thread                                               T
 DBCSR| Communication thread load                                             87
 DBCSR| MPI: My node id                                                        0
 DBCSR| MPI: Number of nodes                                                  48
 DBCSR| OMP: Current number of threads                                         1
 DBCSR| OMP: Max number of threads                                             1
 DBCSR| Split modifier for TAS multiplication algorithm                  1.0E+00

 BASOPT| Total number of calculations     24

 BASOPT| Content of basis combination      1
 BASOPT|     Element:   TI    Basis set:    TZV2P-MOLOPT-PBE-GTH-Q12
 BASOPT|     Element:    S    Basis set:    TZV2P-MOLOPT-PBE-GTH-Q6
 BASOPT|     Element:   CL    Basis set:    TZV2P-MOLOPT-PBE-GTH-Q7
 BASOPT|     Element:    O    Basis set:    TZV2P-MOLOPT-PBE-GTH-Q6
 BASOPT|     Element:    H    Basis set:    TZV2P-MOLOPT-PBE-GTH-Q1
 BASOPT|     Element:    C    Basis set:    TZV2P-MOLOPT-PBE-GTH-Q4
 BASOPT|     Element:    F    Basis set:    TZV2P-MOLOPT-PBE-GTH-Q7

 BASOPT| Content of basis combination      2
 BASOPT|     Element:   TI    Basis set:    TZVP-MOLOPT-PBE-GTH-q12
 BASOPT|     Element:    S    Basis set:    TZVP-MOLOPT-PBE-GTH-q6
 BASOPT|     Element:   CL    Basis set:    TZVP-MOLOPT-PBE-GTH-q7
 BASOPT|     Element:    O    Basis set:    TZVP-MOLOPT-PBE-GTH-q6
 BASOPT|     Element:    H    Basis set:    TZVP-MOLOPT-PBE-GTH-q1
 BASOPT|     Element:    C    Basis set:    TZVP-MOLOPT-PBE-GTH-q4
 BASOPT|     Element:    F    Basis set:    TZVP-MOLOPT-PBE-GTH-q7

 BASOPT| Content of basis combination      3
 BASOPT|     Element:   TI    Basis set:    DZVP-MOLOPT-PBE-GTH-q12
 BASOPT|     Element:    S    Basis set:    DZVP-MOLOPT-PBE-GTH-q6
 BASOPT|     Element:   CL    Basis set:    DZVP-MOLOPT-PBE-GTH-q7
 BASOPT|     Element:    O    Basis set:    DZVP-MOLOPT-PBE-GTH-q6
 BASOPT|     Element:    H    Basis set:    DZVP-MOLOPT-PBE-GTH-q1
 BASOPT|     Element:    C    Basis set:    DZVP-MOLOPT-PBE-GTH-q4
 BASOPT|     Element:    F    Basis set:    DZVP-MOLOPT-PBE-GTH-q7

 BASOPT| Information at iteration number:       0
 BASOPT| Training set | Combination | Rho difference | Condition num. | Time
 BASOPT| -----------------------------------------------------------------------
 BASOPT|        1     |       1     | 0.17436103E-02 | 0.73783345E+03 |    0.211
 BASOPT|        1     |       2     | 0.29086644E-02 | 0.24938441E+03 |    0.142
 BASOPT|        1     |       3     | 0.43273453E-02 | 0.14778250E+03 |    0.124
 BASOPT|        2     |       1     | 0.99921690E-03 | 0.41278793E+03 |    0.211
 BASOPT|        2     |       2     | 0.16269176E-02 | 0.32362740E+03 |    0.145
 BASOPT|        2     |       3     | 0.30907913E-02 | 0.12688307E+03 |    0.118
 BASOPT|        3     |       1     | 0.12504735E-02 | 0.65318089E+03 |    0.067
 BASOPT|        3     |       2     | 0.15569859E-02 | 0.42327083E+03 |    0.060
 BASOPT|        3     |       3     | 0.33097215E-02 | 0.12932014E+03 |    0.053
 BASOPT|        4     |       1     | 0.27371957E-02 | 0.28867324E+05 |    0.966
 BASOPT|        4     |       2     | 0.40592649E-02 | 0.31389648E+04 |    0.606
 BASOPT|        4     |       3     | 0.69155762E-02 | 0.59500888E+03 |    0.484
 BASOPT|        5     |       1     | 0.37485884E-03 | 0.31456424E+03 |    0.081
 BASOPT|        5     |       2     | 0.96725725E-03 | 0.22967658E+03 |    0.052
 BASOPT|        5     |       3     | 0.16536632E-02 | 0.36766885E+02 |    0.041
 BASOPT|        6     |       1     | 0.18069091E-02 | 0.57990582E+03 |    0.074
 BASOPT|        6     |       2     | 0.27257509E-02 | 0.25378274E+03 |    0.051
 BASOPT|        6     |       3     | 0.45041358E-02 | 0.14020854E+03 |    0.046
 BASOPT|        7     |       1     | 0.18462950E-02 | 0.32485885E+03 |    0.161
 BASOPT|        7     |       2     | 0.28096849E-02 | 0.26140630E+03 |    0.108
 BASOPT|        7     |       3     | 0.48620671E-02 | 0.10807834E+03 |    0.089
 BASOPT|        8     |       1     | 0.82088392E-03 | 0.56155365E+03 |    0.072
 BASOPT|        8     |       2     | 0.13980376E-02 | 0.38149210E+03 |    0.047
 BASOPT|        8     |       3     | 0.23622292E-02 | 0.14407807E+03 |    0.040
 BASOPT| -----------------------------------------------------------------------
 BASOPT| Total residuum value: -.57372286E+04

 BASOPT| Information at iteration number:     100
 BASOPT| Training set | Combination | Rho difference | Condition num. | Time
 BASOPT| -----------------------------------------------------------------------
 BASOPT|        1     |       1     | 0.17519705E-02 | 0.61127227E+03 |   20.710
 BASOPT|        1     |       2     | 0.29081671E-02 | 0.24312499E+03 |   13.975
 BASOPT|        1     |       3     | 0.43106727E-02 | 0.13598713E+03 |   11.336
 BASOPT|        2     |       1     | 0.10407747E-02 | 0.41216568E+03 |   20.677
 BASOPT|        2     |       2     | 0.16773669E-02 | 0.32308957E+03 |   13.639
 BASOPT|        2     |       3     | 0.31675556E-02 | 0.14096733E+03 |   10.986
 BASOPT|        3     |       1     | 0.13399182E-02 | 0.69297547E+03 |    6.132
 BASOPT|        3     |       2     | 0.16752906E-02 | 0.44078658E+03 |    4.996
 BASOPT|        3     |       3     | 0.34618069E-02 | 0.13496765E+03 |    4.363
 BASOPT|        4     |       1     | 0.27238460E-02 | 0.12647927E+05 |   96.915
 BASOPT|        4     |       2     | 0.40399757E-02 | 0.31531937E+04 |   61.001
 BASOPT|        4     |       3     | 0.69133802E-02 | 0.59094290E+03 |   50.568
 BASOPT|        5     |       1     | 0.37273554E-03 | 0.34043992E+03 |    7.413
 BASOPT|        5     |       2     | 0.97560196E-03 | 0.22933274E+03 |    4.727
 BASOPT|        5     |       3     | 0.16706494E-02 | 0.41892693E+02 |    3.936
 BASOPT|        6     |       1     | 0.17992055E-02 | 0.52546343E+03 |    7.220
 BASOPT|        6     |       2     | 0.27130335E-02 | 0.23823561E+03 |    4.831
 BASOPT|        6     |       3     | 0.45142468E-02 | 0.13359425E+03 |    3.964
 BASOPT|        7     |       1     | 0.19003052E-02 | 0.32485008E+03 |   16.389
 BASOPT|        7     |       2     | 0.28742008E-02 | 0.26096930E+03 |   10.880
 BASOPT|        7     |       3     | 0.49887939E-02 | 0.11273641E+03 |    8.987
 BASOPT|        8     |       1     | 0.83350731E-03 | 0.59819105E+03 |    6.518
 BASOPT|        8     |       2     | 0.14151984E-02 | 0.38098927E+03 |    4.277
 BASOPT|        8     |       3     | 0.24651221E-02 | 0.14927180E+03 |    3.498
 BASOPT| -----------------------------------------------------------------------
 BASOPT| Total residuum value: -.57371600E+04

 BASOPT| Information at iteration number:     200
 BASOPT| Training set | Combination | Rho difference | Condition num. | Time
 BASOPT| -----------------------------------------------------------------------
 BASOPT|        1     |       1     | 0.17442616E-02 | 0.70716922E+03 |   41.162
 BASOPT|        1     |       2     | 0.29096029E-02 | 0.24947040E+03 |   27.810
 BASOPT|        1     |       3     | 0.43136617E-02 | 0.14784951E+03 |   22.544
 BASOPT|        2     |       1     | 0.99594477E-03 | 0.41415698E+03 |   41.136
 BASOPT|        2     |       2     | 0.16229647E-02 | 0.32183068E+03 |   27.117
 BASOPT|        2     |       3     | 0.30795743E-02 | 0.12680454E+03 |   21.835
 BASOPT|        3     |       1     | 0.12433972E-02 | 0.64595870E+03 |   12.203
 BASOPT|        3     |       2     | 0.15574739E-02 | 0.42193103E+03 |    9.922
 BASOPT|        3     |       3     | 0.33364338E-02 | 0.12950849E+03 |    8.667
 BASOPT|        4     |       1     | 0.27508246E-02 | 0.20425633E+05 |  192.874
 BASOPT|        4     |       2     | 0.40660790E-02 | 0.31727430E+04 |  121.398
 BASOPT|        4     |       3     | 0.68931278E-02 | 0.59521575E+03 |  100.646
 BASOPT|        5     |       1     | 0.37977959E-03 | 0.31241400E+03 |   14.735
 BASOPT|        5     |       2     | 0.96471837E-03 | 0.22959194E+03 |    9.386
 BASOPT|        5     |       3     | 0.16996910E-02 | 0.36808925E+02 |    7.829
 BASOPT|        6     |       1     | 0.18213140E-02 | 0.56315351E+03 |   14.376
 BASOPT|        6     |       2     | 0.27288235E-02 | 0.25336893E+03 |    9.622
 BASOPT|        6     |       3     | 0.45422889E-02 | 0.13978371E+03 |    7.876
 BASOPT|        7     |       1     | 0.18374054E-02 | 0.32366993E+03 |   32.620
 BASOPT|        7     |       2     | 0.28074814E-02 | 0.25991297E+03 |   21.649
 BASOPT|        7     |       3     | 0.48710462E-02 | 0.10804672E+03 |   17.863
 BASOPT|        8     |       1     | 0.81760758E-03 | 0.56300494E+03 |   12.962
 BASOPT|        8     |       2     | 0.13995747E-02 | 0.37860597E+03 |    8.502
 BASOPT|        8     |       3     | 0.23823842E-02 | 0.14392781E+03 |    6.947
 BASOPT| -----------------------------------------------------------------------
 BASOPT| Total residuum value: -.57372332E+04

 BASOPT| Information at iteration number:     300
 BASOPT| Training set | Combination | Rho difference | Condition num. | Time
 BASOPT| -----------------------------------------------------------------------
 BASOPT|        1     |       1     | 0.17451456E-02 | 0.70118647E+03 |   61.612
 BASOPT|        1     |       2     | 0.29025511E-02 | 0.25248722E+03 |   41.634
 BASOPT|        1     |       3     | 0.43178495E-02 | 0.14924184E+03 |   33.743
 BASOPT|        2     |       1     | 0.99240766E-03 | 0.41410901E+03 |   61.600
 BASOPT|        2     |       2     | 0.16165878E-02 | 0.32243321E+03 |   40.596
 BASOPT|        2     |       3     | 0.30575945E-02 | 0.12673015E+03 |   32.685
 BASOPT|        3     |       1     | 0.12418314E-02 | 0.64592484E+03 |   18.272
 BASOPT|        3     |       2     | 0.15553460E-02 | 0.42460265E+03 |   14.855
 BASOPT|        3     |       3     | 0.33243622E-02 | 0.12988317E+03 |   12.959
 BASOPT|        4     |       1     | 0.27589710E-02 | 0.18905997E+05 |  289.008
 BASOPT|        4     |       2     | 0.40679655E-02 | 0.31915370E+04 |  181.789
 BASOPT|        4     |       3     | 0.69563565E-02 | 0.59740064E+03 |  150.724
 BASOPT|        5     |       1     | 0.38272816E-03 | 0.31129895E+03 |   22.061
 BASOPT|        5     |       2     | 0.95098004E-03 | 0.22934193E+03 |   14.047
 BASOPT|        5     |       3     | 0.16487367E-02 | 0.36749115E+02 |   11.719
 BASOPT|        6     |       1     | 0.18333495E-02 | 0.55949883E+03 |   21.532
 BASOPT|        6     |       2     | 0.27279520E-02 | 0.25558421E+03 |   14.404
 BASOPT|        6     |       3     | 0.44802005E-02 | 0.14097108E+03 |   11.788
 BASOPT|        7     |       1     | 0.18313426E-02 | 0.32343622E+03 |   48.855
 BASOPT|        7     |       2     | 0.27992950E-02 | 0.26037475E+03 |   32.416
 BASOPT|        7     |       3     | 0.47860283E-02 | 0.10825499E+03 |   26.753
 BASOPT|        8     |       1     | 0.82229706E-03 | 0.56246622E+03 |   19.411
 BASOPT|        8     |       2     | 0.14013925E-02 | 0.37893594E+03 |   12.725
 BASOPT|        8     |       3     | 0.23355554E-02 | 0.14426425E+03 |   10.397
 BASOPT| -----------------------------------------------------------------------
 BASOPT| Total residuum value: -.57372371E+04

 BASOPT| Information at iteration number:     400
 BASOPT| Training set | Combination | Rho difference | Condition num. | Time
 BASOPT| -----------------------------------------------------------------------
 BASOPT|        1     |       1     | 0.17463294E-02 | 0.70063734E+03 |   82.063
 BASOPT|        1     |       2     | 0.29062995E-02 | 0.25320651E+03 |   55.442
 BASOPT|        1     |       3     | 0.43262096E-02 | 0.14955680E+03 |   44.937
 BASOPT|        2     |       1     | 0.99601374E-03 | 0.41451463E+03 |   82.063
 BASOPT|        2     |       2     | 0.16174714E-02 | 0.32260278E+03 |   54.093
 BASOPT|        2     |       3     | 0.30740947E-02 | 0.12698508E+03 |   43.541
 BASOPT|        3     |       1     | 0.12416122E-02 | 0.64543730E+03 |   24.332
 BASOPT|        3     |       2     | 0.15565614E-02 | 0.42549778E+03 |   19.785
 BASOPT|        3     |       3     | 0.33437767E-02 | 0.13009048E+03 |   17.249
 BASOPT|        4     |       1     | 0.27543283E-02 | 0.18615077E+05 |  385.031
 BASOPT|        4     |       2     | 0.40661873E-02 | 0.31217521E+04 |  242.148
 BASOPT|        4     |       3     | 0.69767351E-02 | 0.59695403E+03 |  200.797
 BASOPT|        5     |       1     | 0.38607513E-03 | 0.30880048E+03 |   29.423
 BASOPT|        5     |       2     | 0.95329588E-03 | 0.22887972E+03 |   18.711
 BASOPT|        5     |       3     | 0.16277856E-02 | 0.36639997E+02 |   15.604
 BASOPT|        6     |       1     | 0.18260336E-02 | 0.56140903E+03 |   28.688
 BASOPT|        6     |       2     | 0.27190245E-02 | 0.25679913E+03 |   19.177
 BASOPT|        6     |       3     | 0.44601585E-02 | 0.14126500E+03 |   15.699
 BASOPT|        7     |       1     | 0.18352105E-02 | 0.32380415E+03 |   65.081
 BASOPT|        7     |       2     | 0.27979213E-02 | 0.26066747E+03 |   43.183
 BASOPT|        7     |       3     | 0.47881441E-02 | 0.10837677E+03 |   35.617
 BASOPT|        8     |       1     | 0.81282523E-03 | 0.56519751E+03 |   25.856
 BASOPT|        8     |       2     | 0.13883405E-02 | 0.38012797E+03 |   16.944
 BASOPT|        8     |       3     | 0.23253601E-02 | 0.14471747E+03 |   13.848
 BASOPT| -----------------------------------------------------------------------
 BASOPT| Total residuum value: -.57372354E+04

 BASOPT| Information at iteration number:     500
 BASOPT| Training set | Combination | Rho difference | Condition num. | Time
 BASOPT| -----------------------------------------------------------------------
 BASOPT|        1     |       1     | 0.17435462E-02 | 0.69751364E+03 |  102.568
 BASOPT|        1     |       2     | 0.29006411E-02 | 0.25194927E+03 |   69.251
 BASOPT|        1     |       3     | 0.43222089E-02 | 0.14888854E+03 |   56.134
 BASOPT|        2     |       1     | 0.99498358E-03 | 0.41623045E+03 |  102.528
 BASOPT|        2     |       2     | 0.16165253E-02 | 0.32437651E+03 |   67.564
 BASOPT|        2     |       3     | 0.30623278E-02 | 0.12633553E+03 |   54.383
 BASOPT|        3     |       1     | 0.12420017E-02 | 0.64838671E+03 |   30.403
 BASOPT|        3     |       2     | 0.15576537E-02 | 0.42721297E+03 |   24.714
 BASOPT|        3     |       3     | 0.33279491E-02 | 0.12991744E+03 |   21.540
 BASOPT|        4     |       1     | 0.27521458E-02 | 0.18616215E+05 |  481.113
 BASOPT|        4     |       2     | 0.40607024E-02 | 0.31251454E+04 |  302.506
 BASOPT|        4     |       3     | 0.69793917E-02 | 0.59693591E+03 |  250.875
 BASOPT|        5     |       1     | 0.38522838E-03 | 0.30958099E+03 |   36.762
 BASOPT|        5     |       2     | 0.95267747E-03 | 0.22894490E+03 |   23.374
 BASOPT|        5     |       3     | 0.16319202E-02 | 0.36610262E+02 |   19.489
 BASOPT|        6     |       1     | 0.18279815E-02 | 0.55990065E+03 |   35.844
 BASOPT|        6     |       2     | 0.27205760E-02 | 0.25600939E+03 |   23.978
 BASOPT|        6     |       3     | 0.44588174E-02 | 0.14085952E+03 |   19.610
 BASOPT|        7     |       1     | 0.18322776E-02 | 0.32541417E+03 |   81.306
 BASOPT|        7     |       2     | 0.27955557E-02 | 0.26204538E+03 |   53.951
 BASOPT|        7     |       3     | 0.47713648E-02 | 0.10848847E+03 |   44.468
 BASOPT|        8     |       1     | 0.81548914E-03 | 0.56471423E+03 |   32.309
 BASOPT|        8     |       2     | 0.13924114E-02 | 0.38213327E+03 |   21.164
 BASOPT|        8     |       3     | 0.23239189E-02 | 0.14449669E+03 |   17.299
 BASOPT| -----------------------------------------------------------------------
 BASOPT| Total residuum value: -.57372414E+04

 BASOPT| Information at iteration number:     600
 BASOPT| Training set | Combination | Rho difference | Condition num. | Time
 BASOPT| -----------------------------------------------------------------------
 BASOPT|        1     |       1     | 0.17429550E-02 | 0.69657116E+03 |  123.073
 BASOPT|        1     |       2     | 0.28983717E-02 | 0.25136821E+03 |   83.057
 BASOPT|        1     |       3     | 0.43096760E-02 | 0.14854089E+03 |   67.332
 BASOPT|        2     |       1     | 0.99526153E-03 | 0.41728153E+03 |  122.994
 BASOPT|        2     |       2     | 0.16167006E-02 | 0.32561294E+03 |   81.043
 BASOPT|        2     |       3     | 0.30541596E-02 | 0.12572047E+03 |   65.220
 BASOPT|        3     |       1     | 0.12433350E-02 | 0.64949530E+03 |   36.466
 BASOPT|        3     |       2     | 0.15589329E-02 | 0.42801609E+03 |   29.643
 BASOPT|        3     |       3     | 0.33371777E-02 | 0.12985876E+03 |   25.840
 BASOPT|        4     |       1     | 0.27522191E-02 | 0.18684396E+05 |  577.238
 BASOPT|        4     |       2     | 0.40591653E-02 | 0.31314621E+04 |  362.874
 BASOPT|        4     |       3     | 0.69643488E-02 | 0.59713196E+03 |  300.949
 BASOPT|        5     |       1     | 0.38521540E-03 | 0.31007756E+03 |   44.106
 BASOPT|        5     |       2     | 0.95210140E-03 | 0.22908565E+03 |   28.039
 BASOPT|        5     |       3     | 0.16455286E-02 | 0.36551786E+02 |   23.375
 BASOPT|        6     |       1     | 0.18293411E-02 | 0.55934734E+03 |   43.001
 BASOPT|        6     |       2     | 0.27210628E-02 | 0.25567806E+03 |   28.769
 BASOPT|        6     |       3     | 0.44760038E-02 | 0.14050674E+03 |   23.522
 BASOPT|        7     |       1     | 0.18324020E-02 | 0.32641628E+03 |   97.531
 BASOPT|        7     |       2     | 0.27955106E-02 | 0.26300445E+03 |   64.722
 BASOPT|        7     |       3     | 0.47717440E-02 | 0.10871722E+03 |   53.321
 BASOPT|        8     |       1     | 0.81731705E-03 | 0.56350241E+03 |   38.753
 BASOPT|        8     |       2     | 0.13939881E-02 | 0.38339542E+03 |   25.385
 BASOPT|        8     |       3     | 0.23387505E-02 | 0.14476221E+03 |   20.749
 BASOPT| -----------------------------------------------------------------------
 BASOPT| Total residuum value: -.57372421E+04

 BASOPT| Information at iteration number:     700
 BASOPT| Training set | Combination | Rho difference | Condition num. | Time
 BASOPT| -----------------------------------------------------------------------
 BASOPT|        1     |       1     | 0.17431484E-02 | 0.69719917E+03 |  143.539
 BASOPT|        1     |       2     | 0.28974169E-02 | 0.25154727E+03 |   96.882
 BASOPT|        1     |       3     | 0.43128789E-02 | 0.14860607E+03 |   78.534
 BASOPT|        2     |       1     | 0.99549028E-03 | 0.41778090E+03 |  143.455
 BASOPT|        2     |       2     | 0.16168450E-02 | 0.32623288E+03 |   94.537
 BASOPT|        2     |       3     | 0.30607491E-02 | 0.12518068E+03 |   76.083
 BASOPT|        3     |       1     | 0.12422352E-02 | 0.64853557E+03 |   42.531
 BASOPT|        3     |       2     | 0.15587901E-02 | 0.42768326E+03 |   34.574
 BASOPT|        3     |       3     | 0.33404900E-02 | 0.12961097E+03 |   30.130
 BASOPT|        4     |       1     | 0.27516652E-02 | 0.18694708E+05 |  673.251
 BASOPT|        4     |       2     | 0.40570186E-02 | 0.31308925E+04 |  423.241
 BASOPT|        4     |       3     | 0.69601889E-02 | 0.59719418E+03 |  351.022
 BASOPT|        5     |       1     | 0.38617649E-03 | 0.31021127E+03 |   51.434
 BASOPT|        5     |       2     | 0.95343788E-03 | 0.22915400E+03 |   32.703
 BASOPT|        5     |       3     | 0.16494036E-02 | 0.36425184E+02 |   27.264
 BASOPT|        6     |       1     | 0.18313675E-02 | 0.55940680E+03 |   50.161
 BASOPT|        6     |       2     | 0.27222627E-02 | 0.25579502E+03 |   33.547
 BASOPT|        6     |       3     | 0.44760543E-02 | 0.14046674E+03 |   27.433
 BASOPT|        7     |       1     | 0.18313154E-02 | 0.32687574E+03 |  113.758
 BASOPT|        7     |       2     | 0.27946285E-02 | 0.26347287E+03 |   75.493
 BASOPT|        7     |       3     | 0.47761786E-02 | 0.10870221E+03 |   62.226
 BASOPT|        8     |       1     | 0.81841485E-03 | 0.56183614E+03 |   45.197
 BASOPT|        8     |       2     | 0.13954862E-02 | 0.38396679E+03 |   29.607
 BASOPT|        8     |       3     | 0.23348312E-02 | 0.14473093E+03 |   24.200
 BASOPT| -----------------------------------------------------------------------
 BASOPT| Total residuum value: -.57372423E+04

 BASOPT| Information at iteration number:     800
 BASOPT| Training set | Combination | Rho difference | Condition num. | Time
 BASOPT| -----------------------------------------------------------------------
 BASOPT|        1     |       1     | 0.17429696E-02 | 0.69703051E+03 |  163.997
 BASOPT|        1     |       2     | 0.28953554E-02 | 0.25174226E+03 |  110.714
 BASOPT|        1     |       3     | 0.43079423E-02 | 0.14866456E+03 |   89.736
 BASOPT|        2     |       1     | 0.99440622E-03 | 0.41812373E+03 |  163.921
 BASOPT|        2     |       2     | 0.16140230E-02 | 0.32675517E+03 |  108.024
 BASOPT|        2     |       3     | 0.30562485E-02 | 0.12532635E+03 |   86.931
 BASOPT|        3     |       1     | 0.12454548E-02 | 0.64751339E+03 |   48.594
 BASOPT|        3     |       2     | 0.15606941E-02 | 0.42724789E+03 |   39.509
 BASOPT|        3     |       3     | 0.33429364E-02 | 0.12948781E+03 |   34.427
 BASOPT|        4     |       1     | 0.27555638E-02 | 0.18640075E+05 |  769.199
 BASOPT|        4     |       2     | 0.40599687E-02 | 0.31310923E+04 |  483.630
 BASOPT|        4     |       3     | 0.69631326E-02 | 0.59708413E+03 |  401.100
 BASOPT|        5     |       1     | 0.38568206E-03 | 0.31050725E+03 |   58.771
 BASOPT|        5     |       2     | 0.95027798E-03 | 0.22923396E+03 |   37.369
 BASOPT|        5     |       3     | 0.16468904E-02 | 0.36424728E+02 |   31.155
 BASOPT|        6     |       1     | 0.18332271E-02 | 0.55920095E+03 |   57.321
 BASOPT|        6     |       2     | 0.27222878E-02 | 0.25593306E+03 |   38.355
 BASOPT|        6     |       3     | 0.44750952E-02 | 0.14053222E+03 |   31.362
 BASOPT|        7     |       1     | 0.18315484E-02 | 0.32721267E+03 |  129.986
 BASOPT|        7     |       2     | 0.27923859E-02 | 0.26385323E+03 |   86.266
 BASOPT|        7     |       3     | 0.47726449E-02 | 0.10859079E+03 |   71.078
 BASOPT|        8     |       1     | 0.82006101E-03 | 0.56095410E+03 |   51.641
 BASOPT|        8     |       2     | 0.13955198E-02 | 0.38439827E+03 |   33.829
 BASOPT|        8     |       3     | 0.23375100E-02 | 0.14458436E+03 |   27.651
 BASOPT| -----------------------------------------------------------------------
 BASOPT| Total residuum value: -.57372429E+04

 BASOPT| Information at iteration number:     900
 BASOPT| Training set | Combination | Rho difference | Condition num. | Time
 BASOPT| -----------------------------------------------------------------------
 BASOPT|        1     |       1     | 0.17432657E-02 | 0.69736296E+03 |  184.454
 BASOPT|        1     |       2     | 0.28946451E-02 | 0.25171335E+03 |  124.560
 BASOPT|        1     |       3     | 0.43127287E-02 | 0.14866350E+03 |  100.937
 BASOPT|        2     |       1     | 0.99552193E-03 | 0.41805337E+03 |  184.384
 BASOPT|        2     |       2     | 0.16164736E-02 | 0.32707461E+03 |  121.519
 BASOPT|        2     |       3     | 0.30607568E-02 | 0.12497119E+03 |   97.795
 BASOPT|        3     |       1     | 0.12431202E-02 | 0.64575817E+03 |   54.665
 BASOPT|        3     |       2     | 0.15598472E-02 | 0.42657673E+03 |   44.441
 BASOPT|        3     |       3     | 0.33418032E-02 | 0.12922145E+03 |   38.718
 BASOPT|        4     |       1     | 0.27532649E-02 | 0.18670369E+05 |  865.264
 BASOPT|        4     |       2     | 0.40558341E-02 | 0.31316833E+04 |  544.028
 BASOPT|        4     |       3     | 0.69717343E-02 | 0.59729648E+03 |  451.179
 BASOPT|        5     |       1     | 0.38702459E-03 | 0.31069391E+03 |   66.099
 BASOPT|        5     |       2     | 0.95207557E-03 | 0.22931494E+03 |   42.046
 BASOPT|        5     |       3     | 0.16419060E-02 | 0.36356821E+02 |   35.049
 BASOPT|        6     |       1     | 0.18351121E-02 | 0.55908242E+03 |   64.482
 BASOPT|        6     |       2     | 0.27236451E-02 | 0.25592164E+03 |   43.140
 BASOPT|        6     |       3     | 0.44659721E-02 | 0.14053022E+03 |   35.287
 BASOPT|        7     |       1     | 0.18304588E-02 | 0.32723934E+03 |  146.217
 BASOPT|        7     |       2     | 0.27936973E-02 | 0.26408680E+03 |   97.039
 BASOPT|        7     |       3     | 0.47682993E-02 | 0.10848140E+03 |   79.921
 BASOPT|        8     |       1     | 0.82143766E-03 | 0.55882762E+03 |   58.086
 BASOPT|        8     |       2     | 0.13984051E-02 | 0.38440710E+03 |   38.053
 BASOPT|        8     |       3     | 0.23343250E-02 | 0.14437902E+03 |   31.103
 BASOPT| -----------------------------------------------------------------------
 BASOPT| Total residuum value: -.57372427E+04

 BASOPT| Information at iteration number:    1000
 BASOPT| Training set | Combination | Rho difference | Condition num. | Time
 BASOPT| -----------------------------------------------------------------------
 BASOPT|        1     |       1     | 0.17432430E-02 | 0.69887288E+03 |  204.915
 BASOPT|        1     |       2     | 0.28927390E-02 | 0.25247075E+03 |  138.386
 BASOPT|        1     |       3     | 0.43090621E-02 | 0.14906316E+03 |  112.139
 BASOPT|        2     |       1     | 0.99625694E-03 | 0.41815239E+03 |  204.845
 BASOPT|        2     |       2     | 0.16159076E-02 | 0.32731619E+03 |  134.999
 BASOPT|        2     |       3     | 0.30581834E-02 | 0.12551858E+03 |  108.681
 BASOPT|        3     |       1     | 0.12443617E-02 | 0.64523870E+03 |   60.732
 BASOPT|        3     |       2     | 0.15609577E-02 | 0.42628814E+03 |   49.372
 BASOPT|        3     |       3     | 0.33488718E-02 | 0.12925769E+03 |   43.007
 BASOPT|        4     |       1     | 0.27547960E-02 | 0.18697730E+05 |  961.347
 BASOPT|        4     |       2     | 0.40563909E-02 | 0.31293022E+04 |  604.442
 BASOPT|        4     |       3     | 0.69794972E-02 | 0.59758070E+03 |  501.253
 BASOPT|        5     |       1     | 0.38720331E-03 | 0.31076572E+03 |   73.430
 BASOPT|        5     |       2     | 0.94935141E-03 | 0.22937866E+03 |   46.709
 BASOPT|        5     |       3     | 0.16337209E-02 | 0.36414008E+02 |   38.942
 BASOPT|        6     |       1     | 0.18353082E-02 | 0.55956957E+03 |   71.642
 BASOPT|        6     |       2     | 0.27212636E-02 | 0.25640494E+03 |   47.916
 BASOPT|        6     |       3     | 0.44619049E-02 | 0.14087032E+03 |   39.216
 BASOPT|        7     |       1     | 0.18311400E-02 | 0.32730228E+03 |  162.451
 BASOPT|        7     |       2     | 0.27920979E-02 | 0.26420891E+03 |  107.812
 BASOPT|        7     |       3     | 0.47621409E-02 | 0.10830052E+03 |   88.762
 BASOPT|        8     |       1     | 0.82158638E-03 | 0.55857296E+03 |   64.550
 BASOPT|        8     |       2     | 0.13966886E-02 | 0.38460441E+03 |   42.275
 BASOPT|        8     |       3     | 0.23378652E-02 | 0.14410980E+03 |   34.557
 BASOPT| -----------------------------------------------------------------------
 BASOPT| Total residuum value: -.57372441E+04

 BASOPT| Information at iteration number:    1100
 BASOPT| Training set | Combination | Rho difference | Condition num. | Time
 BASOPT| -----------------------------------------------------------------------
 BASOPT|        1     |       1     | 0.17434933E-02 | 0.69765180E+03 |  225.365
 BASOPT|        1     |       2     | 0.28903107E-02 | 0.25253477E+03 |  152.240
 BASOPT|        1     |       3     | 0.43090552E-02 | 0.14912542E+03 |  123.343
 BASOPT|        2     |       1     | 0.99602925E-03 | 0.41777846E+03 |  225.309
 BASOPT|        2     |       2     | 0.16132072E-02 | 0.32711514E+03 |  148.479
 BASOPT|        2     |       3     | 0.30550551E-02 | 0.12534013E+03 |  119.531
 BASOPT|        3     |       1     | 0.12480612E-02 | 0.64355490E+03 |   66.801
 BASOPT|        3     |       2     | 0.15641142E-02 | 0.42517667E+03 |   54.308
 BASOPT|        3     |       3     | 0.33489100E-02 | 0.12902665E+03 |   47.297
 BASOPT|        4     |       1     | 0.27587623E-02 | 0.18562850E+05 | 1057.330
 BASOPT|        4     |       2     | 0.40593799E-02 | 0.31316946E+04 |  664.847
 BASOPT|        4     |       3     | 0.69903443E-02 | 0.59802018E+03 |  551.325
 BASOPT|        5     |       1     | 0.38647540E-03 | 0.31061621E+03 |   80.762
 BASOPT|        5     |       2     | 0.94540577E-03 | 0.22942698E+03 |   51.370
 BASOPT|        5     |       3     | 0.16268558E-02 | 0.36410721E+02 |   42.836
 BASOPT|        6     |       1     | 0.18367500E-02 | 0.55838431E+03 |   78.805
 BASOPT|        6     |       2     | 0.27194767E-02 | 0.25633874E+03 |   52.709
 BASOPT|        6     |       3     | 0.44534830E-02 | 0.14092470E+03 |   43.125
 BASOPT|        7     |       1     | 0.18316729E-02 | 0.32694795E+03 |  178.688
 BASOPT|        7     |       2     | 0.27889527E-02 | 0.26395841E+03 |  118.589
 BASOPT|        7     |       3     | 0.47546518E-02 | 0.10806931E+03 |   97.634
 BASOPT|        8     |       1     | 0.82287126E-03 | 0.55630880E+03 |   71.003
 BASOPT|        8     |       2     | 0.13955044E-02 | 0.38436561E+03 |   46.499
 BASOPT|        8     |       3     | 0.23348087E-02 | 0.14373977E+03 |   38.007
 BASOPT| -----------------------------------------------------------------------
 BASOPT| Total residuum value: -.57372444E+04

 BASOPT| Information at iteration number:    1200
 BASOPT| Training set | Combination | Rho difference | Condition num. | Time
 BASOPT| -----------------------------------------------------------------------
 BASOPT|        1     |       1     | 0.17435823E-02 | 0.69606596E+03 |  245.815
 BASOPT|        1     |       2     | 0.28890253E-02 | 0.25258465E+03 |  166.055
 BASOPT|        1     |       3     | 0.43125300E-02 | 0.14922090E+03 |  134.549
 BASOPT|        2     |       1     | 0.99719499E-03 | 0.41729099E+03 |  245.776
 BASOPT|        2     |       2     | 0.16148705E-02 | 0.32683769E+03 |  161.963
 BASOPT|        2     |       3     | 0.30670073E-02 | 0.12570458E+03 |  130.383
 BASOPT|        3     |       1     | 0.12471581E-02 | 0.64293684E+03 |   72.873
 BASOPT|        3     |       2     | 0.15650362E-02 | 0.42472741E+03 |   59.242
 BASOPT|        3     |       3     | 0.33491440E-02 | 0.12919580E+03 |   51.597
 BASOPT|        4     |       1     | 0.27581445E-02 | 0.18431375E+05 | 1153.327
 BASOPT|        4     |       2     | 0.40573350E-02 | 0.31361254E+04 |  725.249
 BASOPT|        4     |       3     | 0.69899870E-02 | 0.59859168E+03 |  601.403
 BASOPT|        5     |       1     | 0.38709021E-03 | 0.31049590E+03 |   88.083
 BASOPT|        5     |       2     | 0.94406123E-03 | 0.22944365E+03 |   56.030
 BASOPT|        5     |       3     | 0.16188871E-02 | 0.36511305E+02 |   46.733
 BASOPT|        6     |       1     | 0.18368542E-02 | 0.55720685E+03 |   85.967
 BASOPT|        6     |       2     | 0.27178746E-02 | 0.25627730E+03 |   57.486
 BASOPT|        6     |       3     | 0.44447657E-02 | 0.14104770E+03 |   47.048
 BASOPT|        7     |       1     | 0.18316417E-02 | 0.32652433E+03 |  194.922
 BASOPT|        7     |       2     | 0.27897956E-02 | 0.26366752E+03 |  129.363
 BASOPT|        7     |       3     | 0.47623708E-02 | 0.10798151E+03 |  106.520
 BASOPT|        8     |       1     | 0.82269373E-03 | 0.55522573E+03 |   77.454
 BASOPT|        8     |       2     | 0.13953859E-02 | 0.38401257E+03 |   50.725
 BASOPT|        8     |       3     | 0.23281449E-02 | 0.14355245E+03 |   41.458
 BASOPT| -----------------------------------------------------------------------
 BASOPT| Total residuum value: -.57372453E+04

 BASOPT| Information at iteration number:    1300
 BASOPT| Training set | Combination | Rho difference | Condition num. | Time
 BASOPT| -----------------------------------------------------------------------
 BASOPT|        1     |       1     | 0.17436003E-02 | 0.69465933E+03 |  266.265
 BASOPT|        1     |       2     | 0.28876232E-02 | 0.25257615E+03 |  179.906
 BASOPT|        1     |       3     | 0.43147374E-02 | 0.14927098E+03 |  145.760
 BASOPT|        2     |       1     | 0.99739845E-03 | 0.41693399E+03 |  266.244
 BASOPT|        2     |       2     | 0.16148863E-02 | 0.32666365E+03 |  175.450
 BASOPT|        2     |       3     | 0.30710192E-02 | 0.12585726E+03 |  141.236
 BASOPT|        3     |       1     | 0.12476591E-02 | 0.64222127E+03 |   78.946
 BASOPT|        3     |       2     | 0.15666608E-02 | 0.42428078E+03 |   64.176
 BASOPT|        3     |       3     | 0.33463193E-02 | 0.12921281E+03 |   55.886
 BASOPT|        4     |       1     | 0.27587183E-02 | 0.18312434E+05 | 1249.260
 BASOPT|        4     |       2     | 0.40569056E-02 | 0.31325554E+04 |  785.654
 BASOPT|        4     |       3     | 0.69945951E-02 | 0.59898589E+03 |  651.478
 BASOPT|        5     |       1     | 0.38722246E-03 | 0.31030493E+03 |   95.408
 BASOPT|        5     |       2     | 0.94312228E-03 | 0.22943225E+03 |   60.696
 BASOPT|        5     |       3     | 0.16122864E-02 | 0.36568960E+02 |   50.630
 BASOPT|        6     |       1     | 0.18378309E-02 | 0.55622806E+03 |   93.130
 BASOPT|        6     |       2     | 0.27172733E-02 | 0.25624180E+03 |   62.269
 BASOPT|        6     |       3     | 0.44378464E-02 | 0.14114835E+03 |   50.974
 BASOPT|        7     |       1     | 0.18313846E-02 | 0.32620460E+03 |  211.155
 BASOPT|        7     |       2     | 0.27894840E-02 | 0.26346506E+03 |  140.141
 BASOPT|        7     |       3     | 0.47623412E-02 | 0.10788435E+03 |  115.366
 BASOPT|        8     |       1     | 0.82355500E-03 | 0.55419236E+03 |   83.899
 BASOPT|        8     |       2     | 0.13957928E-02 | 0.38380284E+03 |   54.954
 BASOPT|        8     |       3     | 0.23240421E-02 | 0.14338265E+03 |   44.909
 BASOPT| -----------------------------------------------------------------------
 BASOPT| Total residuum value: -.57372452E+04

 BASOPT| Information at iteration number:    1400
 BASOPT| Training set | Combination | Rho difference | Condition num. | Time
 BASOPT| -----------------------------------------------------------------------
 BASOPT|        1     |       1     | 0.17438021E-02 | 0.69194288E+03 |  286.719
 BASOPT|        1     |       2     | 0.28864695E-02 | 0.25212282E+03 |  193.724
 BASOPT|        1     |       3     | 0.43084169E-02 | 0.14907483E+03 |  156.970
 BASOPT|        2     |       1     | 0.99686837E-03 | 0.41615924E+03 |  286.711
 BASOPT|        2     |       2     | 0.16139792E-02 | 0.32601710E+03 |  188.958
 BASOPT|        2     |       3     | 0.30619067E-02 | 0.12574556E+03 |  152.095
 BASOPT|        3     |       1     | 0.12488482E-02 | 0.64082184E+03 |   85.017
 BASOPT|        3     |       2     | 0.15686230E-02 | 0.42299247E+03 |   69.112
 BASOPT|        3     |       3     | 0.33429790E-02 | 0.12900757E+03 |   60.176
 BASOPT|        4     |       1     | 0.27612597E-02 | 0.18122921E+05 | 1345.210
 BASOPT|        4     |       2     | 0.40585762E-02 | 0.31427418E+04 |  846.052
 BASOPT|        4     |       3     | 0.69929615E-02 | 0.59909202E+03 |  701.556
 BASOPT|        5     |       1     | 0.38650839E-03 | 0.31044517E+03 |  102.735
 BASOPT|        5     |       2     | 0.94170530E-03 | 0.22947844E+03 |   65.364
 BASOPT|        5     |       3     | 0.16170638E-02 | 0.36576926E+02 |   54.525
 BASOPT|        6     |       1     | 0.18395734E-02 | 0.55445613E+03 |  100.295
 BASOPT|        6     |       2     | 0.27178866E-02 | 0.25580856E+03 |   67.045
 BASOPT|        6     |       3     | 0.44433956E-02 | 0.14095162E+03 |   54.884
 BASOPT|        7     |       1     | 0.18311296E-02 | 0.32548096E+03 |  227.395
 BASOPT|        7     |       2     | 0.27892501E-02 | 0.26286923E+03 |  150.914
 BASOPT|        7     |       3     | 0.47565391E-02 | 0.10773339E+03 |  124.266
 BASOPT|        8     |       1     | 0.82513132E-03 | 0.55303694E+03 |   90.347
 BASOPT|        8     |       2     | 0.13972692E-02 | 0.38289748E+03 |   59.183
 BASOPT|        8     |       3     | 0.23314323E-02 | 0.14312427E+03 |   48.360
 BASOPT| -----------------------------------------------------------------------
 BASOPT| Total residuum value: -.57372462E+04

 BASOPT| Information at iteration number:    1500
 BASOPT| Training set | Combination | Rho difference | Condition num. | Time
 BASOPT| -----------------------------------------------------------------------
 BASOPT|        1     |       1     | 0.17434798E-02 | 0.68882481E+03 |  307.168
 BASOPT|        1     |       2     | 0.28843808E-02 | 0.25166785E+03 |  207.550
 BASOPT|        1     |       3     | 0.43095746E-02 | 0.14885379E+03 |  168.185
 BASOPT|        2     |       1     | 0.99703019E-03 | 0.41649871E+03 |  307.173
 BASOPT|        2     |       2     | 0.16143850E-02 | 0.32622771E+03 |  202.440
 BASOPT|        2     |       3     | 0.30719706E-02 | 0.12584010E+03 |  162.947
 BASOPT|        3     |       1     | 0.12494734E-02 | 0.64113553E+03 |   91.084
 BASOPT|        3     |       2     | 0.15714034E-02 | 0.42267613E+03 |   74.043
 BASOPT|        3     |       3     | 0.33379763E-02 | 0.12890231E+03 |   64.479
 BASOPT|        4     |       1     | 0.27619728E-02 | 0.17909266E+05 | 1441.103
 BASOPT|        4     |       2     | 0.40577737E-02 | 0.31328237E+04 |  906.442
 BASOPT|        4     |       3     | 0.69899645E-02 | 0.59919677E+03 |  751.630
 BASOPT|        5     |       1     | 0.38721024E-03 | 0.31024209E+03 |  110.063
 BASOPT|        5     |       2     | 0.94156431E-03 | 0.22944646E+03 |   70.031
 BASOPT|        5     |       3     | 0.16096122E-02 | 0.36621009E+02 |   58.418
 BASOPT|        6     |       1     | 0.18401411E-02 | 0.55305630E+03 |  107.456
 BASOPT|        6     |       2     | 0.27168368E-02 | 0.25559733E+03 |   71.817
 BASOPT|        6     |       3     | 0.44374915E-02 | 0.14087172E+03 |   58.802
 BASOPT|        7     |       1     | 0.18309585E-02 | 0.32564015E+03 |  243.634
 BASOPT|        7     |       2     | 0.27897553E-02 | 0.26290435E+03 |  161.685
 BASOPT|        7     |       3     | 0.47676191E-02 | 0.10764730E+03 |  133.184
 BASOPT|        8     |       1     | 0.82530627E-03 | 0.55296048E+03 |   96.793
 BASOPT|        8     |       2     | 0.13973329E-02 | 0.38348894E+03 |   63.414
 BASOPT|        8     |       3     | 0.23283851E-02 | 0.14300825E+03 |   51.810
 BASOPT| -----------------------------------------------------------------------
 BASOPT| Total residuum value: -.57372467E+04

 BASOPT| Information at iteration number:    1600
 BASOPT| Training set | Combination | Rho difference | Condition num. | Time
 BASOPT| -----------------------------------------------------------------------
 BASOPT|        1     |       1     | 0.17435493E-02 | 0.68811903E+03 |  327.620
 BASOPT|        1     |       2     | 0.28822637E-02 | 0.25174539E+03 |  221.396
 BASOPT|        1     |       3     | 0.43115858E-02 | 0.14895881E+03 |  179.397
 BASOPT|        2     |       1     | 0.99778440E-03 | 0.41669103E+03 |  327.638
 BASOPT|        2     |       2     | 0.16147801E-02 | 0.32625960E+03 |  215.919
 BASOPT|        2     |       3     | 0.30778416E-02 | 0.12575413E+03 |  173.799
 BASOPT|        3     |       1     | 0.12511149E-02 | 0.64098085E+03 |   97.152
 BASOPT|        3     |       2     | 0.15744430E-02 | 0.42198632E+03 |   78.979
 BASOPT|        3     |       3     | 0.33383430E-02 | 0.12876679E+03 |   68.769
 BASOPT|        4     |       1     | 0.27639357E-02 | 0.17817746E+05 | 1537.021
 BASOPT|        4     |       2     | 0.40589473E-02 | 0.31433498E+04 |  966.808
 BASOPT|        4     |       3     | 0.69943037E-02 | 0.59983774E+03 |  801.709
 BASOPT|        5     |       1     | 0.38708008E-03 | 0.31030365E+03 |  117.404
 BASOPT|        5     |       2     | 0.93856938E-03 | 0.22956010E+03 |   74.704
 BASOPT|        5     |       3     | 0.15992651E-02 | 0.36605258E+02 |   62.309
 BASOPT|        6     |       1     | 0.18393823E-02 | 0.55225457E+03 |  114.619
 BASOPT|        6     |       2     | 0.27135893E-02 | 0.25557260E+03 |   76.604
 BASOPT|        6     |       3     | 0.44293173E-02 | 0.14097599E+03 |   62.718
 BASOPT|        7     |       1     | 0.18322773E-02 | 0.32560000E+03 |  259.874
 BASOPT|        7     |       2     | 0.27903597E-02 | 0.26276799E+03 |  172.455
 BASOPT|        7     |       3     | 0.47713344E-02 | 0.10756735E+03 |  142.052
 BASOPT|        8     |       1     | 0.82473051E-03 | 0.55174531E+03 |  103.240
 BASOPT|        8     |       2     | 0.13956218E-02 | 0.38382588E+03 |   67.646
 BASOPT|        8     |       3     | 0.23237433E-02 | 0.14287725E+03 |   55.262
 BASOPT| -----------------------------------------------------------------------
 BASOPT| Total residuum value: -.57372474E+04

 BASOPT| Information at iteration number:    1700
 BASOPT| Training set | Combination | Rho difference | Condition num. | Time
 BASOPT| -----------------------------------------------------------------------
 BASOPT|        1     |       1     | 0.17436385E-02 | 0.68746426E+03 |  348.075
 BASOPT|        1     |       2     | 0.28817051E-02 | 0.25171793E+03 |  235.209
 BASOPT|        1     |       3     | 0.43099827E-02 | 0.14895401E+03 |  190.607
 BASOPT|        2     |       1     | 0.99732357E-03 | 0.41699650E+03 |  348.103
 BASOPT|        2     |       2     | 0.16139181E-02 | 0.32638638E+03 |  229.403
 BASOPT|        2     |       3     | 0.30728219E-02 | 0.12576574E+03 |  184.666
 BASOPT|        3     |       1     | 0.12522346E-02 | 0.64074904E+03 |  103.219
 BASOPT|        3     |       2     | 0.15754138E-02 | 0.42167913E+03 |   83.916
 BASOPT|        3     |       3     | 0.33332105E-02 | 0.12865486E+03 |   73.060
 BASOPT|        4     |       1     | 0.27658562E-02 | 0.17727378E+05 | 1633.048
 BASOPT|        4     |       2     | 0.40604781E-02 | 0.31436341E+04 | 1027.189
 BASOPT|        4     |       3     | 0.69938862E-02 | 0.59978439E+03 |  851.780
 BASOPT|        5     |       1     | 0.38710662E-03 | 0.31033581E+03 |  124.749
 BASOPT|        5     |       2     | 0.93818626E-03 | 0.22958949E+03 |   79.390
 BASOPT|        5     |       3     | 0.15980840E-02 | 0.36594059E+02 |   66.200
 BASOPT|        6     |       1     | 0.18403599E-02 | 0.55183154E+03 |  121.783
 BASOPT|        6     |       2     | 0.27139052E-02 | 0.25554845E+03 |   81.383
 BASOPT|        6     |       3     | 0.44308225E-02 | 0.14103700E+03 |   66.629
 BASOPT|        7     |       1     | 0.18323205E-02 | 0.32578006E+03 |  276.113
 BASOPT|        7     |       2     | 0.27899937E-02 | 0.26283730E+03 |  183.225
 BASOPT|        7     |       3     | 0.47691815E-02 | 0.10750246E+03 |  150.895
 BASOPT|        8     |       1     | 0.82527924E-03 | 0.55243686E+03 |  109.686
 BASOPT|        8     |       2     | 0.13959520E-02 | 0.38410578E+03 |   71.878
 BASOPT|        8     |       3     | 0.23256019E-02 | 0.14284259E+03 |   58.713
 BASOPT| -----------------------------------------------------------------------
 BASOPT| Total residuum value: -.57372474E+04

 BASOPT| Information at iteration number:    1800
 BASOPT| Training set | Combination | Rho difference | Condition num. | Time
 BASOPT| -----------------------------------------------------------------------
 BASOPT|        1     |       1     | 0.17443850E-02 | 0.68677826E+03 |  368.524
 BASOPT|        1     |       2     | 0.28821130E-02 | 0.25170239E+03 |  249.043
 BASOPT|        1     |       3     | 0.43163292E-02 | 0.14894997E+03 |  201.821
 BASOPT|        2     |       1     | 0.99742394E-03 | 0.41630974E+03 |  368.563
 BASOPT|        2     |       2     | 0.16140819E-02 | 0.32570141E+03 |  242.888
 BASOPT|        2     |       3     | 0.30794749E-02 | 0.12566613E+03 |  195.515
 BASOPT|        3     |       1     | 0.12520367E-02 | 0.63950826E+03 |  109.279
 BASOPT|        3     |       2     | 0.15757409E-02 | 0.42064365E+03 |   88.847
 BASOPT|        3     |       3     | 0.33268394E-02 | 0.12838912E+03 |   77.348
 BASOPT|        4     |       1     | 0.27682115E-02 | 0.17635256E+05 | 1729.261
 BASOPT|        4     |       2     | 0.40625348E-02 | 0.31397989E+04 | 1087.556
 BASOPT|        4     |       3     | 0.69994935E-02 | 0.60000664E+03 |  901.853
 BASOPT|        5     |       1     | 0.38788181E-03 | 0.30981028E+03 |  132.076
 BASOPT|        5     |       2     | 0.93810490E-03 | 0.22957996E+03 |   84.049
 BASOPT|        5     |       3     | 0.15865623E-02 | 0.36585662E+02 |   70.089
 BASOPT|        6     |       1     | 0.18408970E-02 | 0.55131813E+03 |  128.943
 BASOPT|        6     |       2     | 0.27133936E-02 | 0.25555378E+03 |   86.153
 BASOPT|        6     |       3     | 0.44209990E-02 | 0.14115942E+03 |   70.541
 BASOPT|        7     |       1     | 0.18322612E-02 | 0.32513044E+03 |  292.350
 BASOPT|        7     |       2     | 0.27901799E-02 | 0.26225960E+03 |  193.993
 BASOPT|        7     |       3     | 0.47759926E-02 | 0.10726337E+03 |  159.736
 BASOPT|        8     |       1     | 0.82489302E-03 | 0.55181309E+03 |  116.179
 BASOPT|        8     |       2     | 0.13954626E-02 | 0.38355061E+03 |   76.107
 BASOPT|        8     |       3     | 0.23221026E-02 | 0.14261529E+03 |   62.165
 BASOPT| -----------------------------------------------------------------------
 BASOPT| Total residuum value: -.57372475E+04

 BASOPT| Information at iteration number:    1900
 BASOPT| Training set | Combination | Rho difference | Condition num. | Time
 BASOPT| -----------------------------------------------------------------------
 BASOPT|        1     |       1     | 0.17447248E-02 | 0.69056128E+03 |  388.973
 BASOPT|        1     |       2     | 0.28826369E-02 | 0.25304825E+03 |  262.861
 BASOPT|        1     |       3     | 0.43231789E-02 | 0.14961323E+03 |  213.028
 BASOPT|        2     |       1     | 0.99672680E-03 | 0.41613974E+03 |  389.015
 BASOPT|        2     |       2     | 0.16152983E-02 | 0.32531283E+03 |  256.367
 BASOPT|        2     |       3     | 0.30837691E-02 | 0.12548538E+03 |  206.385
 BASOPT|        3     |       1     | 0.12462677E-02 | 0.63769843E+03 |  115.343
 BASOPT|        3     |       2     | 0.15718476E-02 | 0.41942153E+03 |   93.778
 BASOPT|        3     |       3     | 0.33211044E-02 | 0.12810323E+03 |   81.635
 BASOPT|        4     |       1     | 0.27671025E-02 | 0.17718712E+05 | 1825.206
 BASOPT|        4     |       2     | 0.40607311E-02 | 0.31311982E+04 | 1147.950
 BASOPT|        4     |       3     | 0.69993953E-02 | 0.60023668E+03 |  951.921
 BASOPT|        5     |       1     | 0.38967289E-03 | 0.30917606E+03 |  139.403
 BASOPT|        5     |       2     | 0.94103832E-03 | 0.22951939E+03 |   88.711
 BASOPT|        5     |       3     | 0.15801959E-02 | 0.36493092E+02 |   73.980
 BASOPT|        6     |       1     | 0.18420220E-02 | 0.55292396E+03 |  136.103
 BASOPT|        6     |       2     | 0.27143088E-02 | 0.25643926E+03 |   90.950
 BASOPT|        6     |       3     | 0.44172497E-02 | 0.14167684E+03 |   74.453
 BASOPT|        7     |       1     | 0.18286623E-02 | 0.32483627E+03 |  308.581
 BASOPT|        7     |       2     | 0.27897853E-02 | 0.26189456E+03 |  204.761
 BASOPT|        7     |       3     | 0.47777474E-02 | 0.10703686E+03 |  168.608
 BASOPT|        8     |       1     | 0.82453265E-03 | 0.55210209E+03 |  122.631
 BASOPT|        8     |       2     | 0.13968800E-02 | 0.38354033E+03 |   80.333
 BASOPT|        8     |       3     | 0.23176631E-02 | 0.14256860E+03 |   65.616
 BASOPT| -----------------------------------------------------------------------
 BASOPT| Total residuum value: -.57372486E+04

 BASOPT| Information at iteration number:    2000
 BASOPT| Training set | Combination | Rho difference | Condition num. | Time
 BASOPT| -----------------------------------------------------------------------
 BASOPT|        1     |       1     | 0.17454157E-02 | 0.68890406E+03 |  409.424
 BASOPT|        1     |       2     | 0.28827360E-02 | 0.25263664E+03 |  276.739
 BASOPT|        1     |       3     | 0.43208190E-02 | 0.14938977E+03 |  224.239
 BASOPT|        2     |       1     | 0.99671689E-03 | 0.41579706E+03 |  409.482
 BASOPT|        2     |       2     | 0.16135807E-02 | 0.32493268E+03 |  269.853
 BASOPT|        2     |       3     | 0.30843300E-02 | 0.12499770E+03 |  217.244
 BASOPT|        3     |       1     | 0.12488479E-02 | 0.63677277E+03 |  121.412
 BASOPT|        3     |       2     | 0.15742797E-02 | 0.41855398E+03 |   98.714
 BASOPT|        3     |       3     | 0.33249624E-02 | 0.12786830E+03 |   85.923
 BASOPT|        4     |       1     | 0.27698341E-02 | 0.17601636E+05 | 1921.117
 BASOPT|        4     |       2     | 0.40637432E-02 | 0.31297851E+04 | 1208.347
 BASOPT|        4     |       3     | 0.69927166E-02 | 0.60017353E+03 | 1001.999
 BASOPT|        5     |       1     | 0.38946133E-03 | 0.30875281E+03 |  146.726
 BASOPT|        5     |       2     | 0.94036703E-03 | 0.22949576E+03 |   93.379
 BASOPT|        5     |       3     | 0.15853681E-02 | 0.36422868E+02 |   77.871
 BASOPT|        6     |       1     | 0.18420612E-02 | 0.55199454E+03 |  143.269
 BASOPT|        6     |       2     | 0.27131065E-02 | 0.25616852E+03 |   95.727
 BASOPT|        6     |       3     | 0.44216805E-02 | 0.14141174E+03 |   78.366
 BASOPT|        7     |       1     | 0.18294675E-02 | 0.32450625E+03 |  324.818
 BASOPT|        7     |       2     | 0.27880784E-02 | 0.26157334E+03 |  215.533
 BASOPT|        7     |       3     | 0.47834228E-02 | 0.10698565E+03 |  177.493
 BASOPT|        8     |       1     | 0.82385683E-03 | 0.55185511E+03 |  129.078
 BASOPT|        8     |       2     | 0.13947149E-02 | 0.38326377E+03 |   84.564
 BASOPT|        8     |       3     | 0.23198904E-02 | 0.14212976E+03 |   69.067
 BASOPT| -----------------------------------------------------------------------
 BASOPT| Total residuum value: -.57372489E+04

 BASOPT| Information at iteration number:    2100
 BASOPT| Training set | Combination | Rho difference | Condition num. | Time
 BASOPT| -----------------------------------------------------------------------
 BASOPT|        1     |       1     | 0.17456456E-02 | 0.68936479E+03 |  429.873
 BASOPT|        1     |       2     | 0.28827494E-02 | 0.25282318E+03 |  290.574
 BASOPT|        1     |       3     | 0.43241053E-02 | 0.14948277E+03 |  235.452
 BASOPT|        2     |       1     | 0.99638495E-03 | 0.41524139E+03 |  429.946
 BASOPT|        2     |       2     | 0.16125238E-02 | 0.32446534E+03 |  283.341
 BASOPT|        2     |       3     | 0.30847433E-02 | 0.12493249E+03 |  228.096
 BASOPT|        3     |       1     | 0.12493957E-02 | 0.63604222E+03 |  127.478
 BASOPT|        3     |       2     | 0.15748511E-02 | 0.41792058E+03 |  103.652
 BASOPT|        3     |       3     | 0.33218639E-02 | 0.12769382E+03 |   90.213
 BASOPT|        4     |       1     | 0.27714843E-02 | 0.17622770E+05 | 2017.039
 BASOPT|        4     |       2     | 0.40657645E-02 | 0.31312745E+04 | 1268.708
 BASOPT|        4     |       3     | 0.69988374E-02 | 0.60031671E+03 | 1052.074
 BASOPT|        5     |       1     | 0.38897717E-03 | 0.30845450E+03 |  154.048
 BASOPT|        5     |       2     | 0.93936943E-03 | 0.22947017E+03 |   98.046
 BASOPT|        5     |       3     | 0.15812317E-02 | 0.36405161E+02 |   81.759
 BASOPT|        6     |       1     | 0.18423129E-02 | 0.55206846E+03 |  150.435
 BASOPT|        6     |       2     | 0.27125066E-02 | 0.25628961E+03 |  100.536
 BASOPT|        6     |       3     | 0.44161283E-02 | 0.14151315E+03 |   82.278
 BASOPT|        7     |       1     | 0.18291036E-02 | 0.32401399E+03 |  341.061
 BASOPT|        7     |       2     | 0.27866211E-02 | 0.26117960E+03 |  226.305
 BASOPT|        7     |       3     | 0.47815695E-02 | 0.10681361E+03 |  186.367
 BASOPT|        8     |       1     | 0.82385592E-03 | 0.55111163E+03 |  135.523
 BASOPT|        8     |       2     | 0.13937718E-02 | 0.38278966E+03 |   88.797
 BASOPT|        8     |       3     | 0.23163114E-02 | 0.14200954E+03 |   72.519
 BASOPT| -----------------------------------------------------------------------
 BASOPT| Total residuum value: -.57372485E+04

 BASOPT| Information at iteration number:    2200
 BASOPT| Training set | Combination | Rho difference | Condition num. | Time
 BASOPT| -----------------------------------------------------------------------
 BASOPT|        1     |       1     | 0.17457712E-02 | 0.68823726E+03 |  450.313
 BASOPT|        1     |       2     | 0.28819871E-02 | 0.25277908E+03 |  304.432
 BASOPT|        1     |       3     | 0.43268981E-02 | 0.14946009E+03 |  246.659
 BASOPT|        2     |       1     | 0.99653683E-03 | 0.41525971E+03 |  450.416
 BASOPT|        2     |       2     | 0.16126842E-02 | 0.32432861E+03 |  296.821
 BASOPT|        2     |       3     | 0.30908023E-02 | 0.12508371E+03 |  238.942
 BASOPT|        3     |       1     | 0.12490565E-02 | 0.63603057E+03 |  133.541
 BASOPT|        3     |       2     | 0.15757441E-02 | 0.41766713E+03 |  108.587
 BASOPT|        3     |       3     | 0.33170925E-02 | 0.12762644E+03 |   94.513
 BASOPT|        4     |       1     | 0.27718956E-02 | 0.17524473E+05 | 2112.923
 BASOPT|        4     |       2     | 0.40656790E-02 | 0.31311059E+04 | 1329.066
 BASOPT|        4     |       3     | 0.70037276E-02 | 0.60044378E+03 | 1102.156
 BASOPT|        5     |       1     | 0.39004248E-03 | 0.30782089E+03 |  161.378
 BASOPT|        5     |       2     | 0.93939354E-03 | 0.22944160E+03 |  102.720
 BASOPT|        5     |       3     | 0.15688053E-02 | 0.36431964E+02 |   85.645
 BASOPT|        6     |       1     | 0.18421424E-02 | 0.55167645E+03 |  157.597
 BASOPT|        6     |       2     | 0.27109811E-02 | 0.25636034E+03 |  105.336
 BASOPT|        6     |       3     | 0.44070354E-02 | 0.14160859E+03 |   86.190
 BASOPT|        7     |       1     | 0.18286101E-02 | 0.32394716E+03 |  357.291
 BASOPT|        7     |       2     | 0.27861425E-02 | 0.26103181E+03 |  237.072
 BASOPT|        7     |       3     | 0.47856796E-02 | 0.10669380E+03 |  195.225
 BASOPT|        8     |       1     | 0.82291829E-03 | 0.55176429E+03 |  141.970
 BASOPT|        8     |       2     | 0.13926748E-02 | 0.38314426E+03 |   93.024
 BASOPT|        8     |       3     | 0.23133420E-02 | 0.14202760E+03 |   75.972
 BASOPT| -----------------------------------------------------------------------
 BASOPT| Total residuum value: -.57372494E+04

 BASOPT| Information at iteration number:    2300
 BASOPT| Training set | Combination | Rho difference | Condition num. | Time
 BASOPT| -----------------------------------------------------------------------
 BASOPT|        1     |       1     | 0.17454613E-02 | 0.68825639E+03 |  470.748
 BASOPT|        1     |       2     | 0.28811199E-02 | 0.25301099E+03 |  318.257
 BASOPT|        1     |       3     | 0.43243536E-02 | 0.14957507E+03 |  257.872
 BASOPT|        2     |       1     | 0.99570043E-03 | 0.41519102E+03 |  470.889
 BASOPT|        2     |       2     | 0.16125422E-02 | 0.32411333E+03 |  310.309
 BASOPT|        2     |       3     | 0.30880439E-02 | 0.12554531E+03 |  249.807
 BASOPT|        3     |       1     | 0.12481641E-02 | 0.63642745E+03 |  139.604
 BASOPT|        3     |       2     | 0.15752445E-02 | 0.41760226E+03 |  113.524
 BASOPT|        3     |       3     | 0.33138658E-02 | 0.12775552E+03 |   98.802
 BASOPT|        4     |       1     | 0.27724124E-02 | 0.17494935E+05 | 2209.029
 BASOPT|        4     |       2     | 0.40657911E-02 | 0.31313492E+04 | 1389.422
 BASOPT|        4     |       3     | 0.70023413E-02 | 0.60055304E+03 | 1152.228
 BASOPT|        5     |       1     | 0.39032314E-03 | 0.30777330E+03 |  168.703
 BASOPT|        5     |       2     | 0.93896414E-03 | 0.22950096E+03 |  107.398
 BASOPT|        5     |       3     | 0.15688324E-02 | 0.36510032E+02 |   89.535
 BASOPT|        6     |       1     | 0.18432166E-02 | 0.55155518E+03 |  164.764
 BASOPT|        6     |       2     | 0.27116745E-02 | 0.25644757E+03 |  110.128
 BASOPT|        6     |       3     | 0.44085798E-02 | 0.14172285E+03 |   90.103
 BASOPT|        7     |       1     | 0.18273629E-02 | 0.32378340E+03 |  373.523
 BASOPT|        7     |       2     | 0.27861225E-02 | 0.26081278E+03 |  247.844
 BASOPT|        7     |       3     | 0.47838464E-02 | 0.10663363E+03 |  204.066
 BASOPT|        8     |       1     | 0.82389358E-03 | 0.55194438E+03 |  148.441
 BASOPT|        8     |       2     | 0.13943217E-02 | 0.38304346E+03 |   97.253
 BASOPT|        8     |       3     | 0.23146064E-02 | 0.14233700E+03 |   79.426
 BASOPT| -----------------------------------------------------------------------
 BASOPT| Total residuum value: -.57372496E+04

 BASOPT| Information at iteration number:    2400
 BASOPT| Training set | Combination | Rho difference | Condition num. | Time
 BASOPT| -----------------------------------------------------------------------
 BASOPT|        1     |       1     | 0.17450133E-02 | 0.68639190E+03 |  491.177
 BASOPT|        1     |       2     | 0.28804882E-02 | 0.25278966E+03 |  332.096
 BASOPT|        1     |       3     | 0.43225860E-02 | 0.14949076E+03 |  269.078
 BASOPT|        2     |       1     | 0.99570980E-03 | 0.41471171E+03 |  491.362
 BASOPT|        2     |       2     | 0.16125983E-02 | 0.32353236E+03 |  323.789
 BASOPT|        2     |       3     | 0.30871779E-02 | 0.12576036E+03 |  260.662
 BASOPT|        3     |       1     | 0.12488311E-02 | 0.63788454E+03 |  145.670
 BASOPT|        3     |       2     | 0.15762749E-02 | 0.41777848E+03 |  118.461
 BASOPT|        3     |       3     | 0.33136390E-02 | 0.12785124E+03 |  103.095
 BASOPT|        4     |       1     | 0.27736752E-02 | 0.17381003E+05 | 2305.016
 BASOPT|        4     |       2     | 0.40673813E-02 | 0.31308177E+04 | 1449.777
 BASOPT|        4     |       3     | 0.70047465E-02 | 0.60079322E+03 | 1202.320
 BASOPT|        5     |       1     | 0.38955339E-03 | 0.30772142E+03 |  176.025
 BASOPT|        5     |       2     | 0.93621946E-03 | 0.22946836E+03 |  112.073
 BASOPT|        5     |       3     | 0.15684075E-02 | 0.36581431E+02 |   93.422
 BASOPT|        6     |       1     | 0.18419954E-02 | 0.55056222E+03 |  171.933
 BASOPT|        6     |       2     | 0.27098898E-02 | 0.25621625E+03 |  114.904
 BASOPT|        6     |       3     | 0.44064290E-02 | 0.14164632E+03 |   94.029
 BASOPT|        7     |       1     | 0.18278839E-02 | 0.32333399E+03 |  389.751
 BASOPT|        7     |       2     | 0.27866464E-02 | 0.26031833E+03 |  258.616
 BASOPT|        7     |       3     | 0.47829715E-02 | 0.10655333E+03 |  212.932
 BASOPT|        8     |       1     | 0.82318509E-03 | 0.55206161E+03 |  154.895
 BASOPT|        8     |       2     | 0.13932689E-02 | 0.38261519E+03 |  101.482
 BASOPT|        8     |       3     | 0.23139790E-02 | 0.14241162E+03 |   82.878
 BASOPT| -----------------------------------------------------------------------
 BASOPT| Total residuum value: -.57372498E+04

 BASOPT| Information at iteration number:    2500
 BASOPT| Training set | Combination | Rho difference | Condition num. | Time
 BASOPT| -----------------------------------------------------------------------
 BASOPT|        1     |       1     | 0.17446797E-02 | 0.68499044E+03 |  511.605
 BASOPT|        1     |       2     | 0.28797244E-02 | 0.25272212E+03 |  345.949
 BASOPT|        1     |       3     | 0.43256262E-02 | 0.14946603E+03 |  280.288
 BASOPT|        2     |       1     | 0.99618245E-03 | 0.41486799E+03 |  511.826
 BASOPT|        2     |       2     | 0.16141955E-02 | 0.32355256E+03 |  337.271
 BASOPT|        2     |       3     | 0.30915705E-02 | 0.12593439E+03 |  271.522
 BASOPT|        3     |       1     | 0.12480795E-02 | 0.63919201E+03 |  151.731
 BASOPT|        3     |       2     | 0.15768839E-02 | 0.41817379E+03 |  123.396
 BASOPT|        3     |       3     | 0.33073935E-02 | 0.12786335E+03 |  107.390
 BASOPT|        4     |       1     | 0.27732654E-02 | 0.17289778E+05 | 2400.966
 BASOPT|        4     |       2     | 0.40664359E-02 | 0.31309906E+04 | 1510.131
 BASOPT|        4     |       3     | 0.70077198E-02 | 0.60103837E+03 | 1252.398
 BASOPT|        5     |       1     | 0.38968317E-03 | 0.30776180E+03 |  183.347
 BASOPT|        5     |       2     | 0.93547740E-03 | 0.22947714E+03 |  116.755
 BASOPT|        5     |       3     | 0.15620172E-02 | 0.36647618E+02 |   97.308
 BASOPT|        6     |       1     | 0.18414389E-02 | 0.54985131E+03 |  179.097
 BASOPT|        6     |       2     | 0.27087758E-02 | 0.25614494E+03 |  119.678
 BASOPT|        6     |       3     | 0.44002456E-02 | 0.14171553E+03 |   97.943
 BASOPT|        7     |       1     | 0.18280846E-02 | 0.32338340E+03 |  405.980
 BASOPT|        7     |       2     | 0.27884190E-02 | 0.26027304E+03 |  269.384
 BASOPT|        7     |       3     | 0.47862159E-02 | 0.10646639E+03 |  221.806
 BASOPT|        8     |       1     | 0.82271165E-03 | 0.55290500E+03 |  161.340
 BASOPT|        8     |       2     | 0.13930631E-02 | 0.38289817E+03 |  105.709
 BASOPT|        8     |       3     | 0.23100984E-02 | 0.14245687E+03 |   86.329
 BASOPT| -----------------------------------------------------------------------
 BASOPT| Total residuum value: -.57372501E+04

 BASOPT| Information at iteration number:    2600
 BASOPT| Training set | Combination | Rho difference | Condition num. | Time
 BASOPT| -----------------------------------------------------------------------
 BASOPT|        1     |       1     | 0.17443295E-02 | 0.68287773E+03 |  532.040
 BASOPT|        1     |       2     | 0.28789826E-02 | 0.25242604E+03 |  359.803
 BASOPT|        1     |       3     | 0.43240119E-02 | 0.14931434E+03 |  291.493
 BASOPT|        2     |       1     | 0.99703636E-03 | 0.41467773E+03 |  532.287
 BASOPT|        2     |       2     | 0.16157598E-02 | 0.32330615E+03 |  350.746
 BASOPT|        2     |       3     | 0.30936137E-02 | 0.12603110E+03 |  282.370
 BASOPT|        3     |       1     | 0.12473684E-02 | 0.64065756E+03 |  157.793
 BASOPT|        3     |       2     | 0.15772464E-02 | 0.41860316E+03 |  128.330
 BASOPT|        3     |       3     | 0.33059917E-02 | 0.12791656E+03 |  111.696
 BASOPT|        4     |       1     | 0.27729516E-02 | 0.17180362E+05 | 2496.915
 BASOPT|        4     |       2     | 0.40658045E-02 | 0.31301492E+04 | 1570.479
 BASOPT|        4     |       3     | 0.70077509E-02 | 0.60138651E+03 | 1302.474
 BASOPT|        5     |       1     | 0.38975636E-03 | 0.30756319E+03 |  190.674
 BASOPT|        5     |       2     | 0.93378822E-03 | 0.22948943E+03 |  121.417
 BASOPT|        5     |       3     | 0.15568319E-02 | 0.36724902E+02 |  101.193
 BASOPT|        6     |       1     | 0.18403515E-02 | 0.54882358E+03 |  186.258
 BASOPT|        6     |       2     | 0.27067842E-02 | 0.25594432E+03 |  124.458
 BASOPT|        6     |       3     | 0.43977400E-02 | 0.14166498E+03 |  101.852
 BASOPT|        7     |       1     | 0.18284169E-02 | 0.32317321E+03 |  422.207
 BASOPT|        7     |       2     | 0.27895822E-02 | 0.26003153E+03 |  280.150
 BASOPT|        7     |       3     | 0.47894200E-02 | 0.10643546E+03 |  230.657
 BASOPT|        8     |       1     | 0.82203744E-03 | 0.55320713E+03 |  167.809
 BASOPT|        8     |       2     | 0.13923055E-02 | 0.38287377E+03 |  109.934
 BASOPT|        8     |       3     | 0.23128453E-02 | 0.14241693E+03 |   89.781
 BASOPT| -----------------------------------------------------------------------
 BASOPT| Total residuum value: -.57372507E+04

 BASOPT| Information at iteration number:    2700
 BASOPT| Training set | Combination | Rho difference | Condition num. | Time
 BASOPT| -----------------------------------------------------------------------
 BASOPT|        1     |       1     | 0.17441545E-02 | 0.68227189E+03 |  552.481
 BASOPT|        1     |       2     | 0.28786439E-02 | 0.25236932E+03 |  373.683
 BASOPT|        1     |       3     | 0.43277716E-02 | 0.14929002E+03 |  302.701
 BASOPT|        2     |       1     | 0.99637134E-03 | 0.41442684E+03 |  552.750
 BASOPT|        2     |       2     | 0.16156228E-02 | 0.32300975E+03 |  364.224
 BASOPT|        2     |       3     | 0.30965495E-02 | 0.12598759E+03 |  293.223
 BASOPT|        3     |       1     | 0.12463386E-02 | 0.64075332E+03 |  163.858
 BASOPT|        3     |       2     | 0.15768430E-02 | 0.41839848E+03 |  133.266
 BASOPT|        3     |       3     | 0.32995371E-02 | 0.12780057E+03 |  116.004
 BASOPT|        4     |       1     | 0.27733215E-02 | 0.17140418E+05 | 2592.906
 BASOPT|        4     |       2     | 0.40657498E-02 | 0.31301791E+04 | 1630.833
 BASOPT|        4     |       3     | 0.70088869E-02 | 0.60151132E+03 | 1352.550
 BASOPT|        5     |       1     | 0.39007574E-03 | 0.30746210E+03 |  197.998
 BASOPT|        5     |       2     | 0.93452162E-03 | 0.22950667E+03 |  126.091
 BASOPT|        5     |       3     | 0.15532675E-02 | 0.36722493E+02 |  105.079
 BASOPT|        6     |       1     | 0.18412953E-02 | 0.54847731E+03 |  193.421
 BASOPT|        6     |       2     | 0.27077828E-02 | 0.25588722E+03 |  129.233
 BASOPT|        6     |       3     | 0.43942390E-02 | 0.14171311E+03 |  105.765
 BASOPT|        7     |       1     | 0.18273121E-02 | 0.32295206E+03 |  438.435
 BASOPT|        7     |       2     | 0.27895931E-02 | 0.25978841E+03 |  290.917
 BASOPT|        7     |       3     | 0.47924702E-02 | 0.10632023E+03 |  239.508
 BASOPT|        8     |       1     | 0.82259168E-03 | 0.55315360E+03 |  174.256
 BASOPT|        8     |       2     | 0.13935911E-02 | 0.38265051E+03 |  114.161
 BASOPT|        8     |       3     | 0.23103200E-02 | 0.14230625E+03 |   93.233
 BASOPT| -----------------------------------------------------------------------
 BASOPT| Total residuum value: -.57372509E+04

 BASOPT| Information at iteration number:    2800
 BASOPT| Training set | Combination | Rho difference | Condition num. | Time
 BASOPT| -----------------------------------------------------------------------
 BASOPT|        1     |       1     | 0.17443516E-02 | 0.68167929E+03 |  572.909
 BASOPT|        1     |       2     | 0.28784598E-02 | 0.25240181E+03 |  387.484
 BASOPT|        1     |       3     | 0.43312589E-02 | 0.14927256E+03 |  313.909
 BASOPT|        2     |       1     | 0.99563688E-03 | 0.41361001E+03 |  573.216
 BASOPT|        2     |       2     | 0.16140385E-02 | 0.32221070E+03 |  377.708
 BASOPT|        2     |       3     | 0.30978246E-02 | 0.12581274E+03 |  304.079
 BASOPT|        3     |       1     | 0.12464501E-02 | 0.64023079E+03 |  169.921
 BASOPT|        3     |       2     | 0.15768192E-02 | 0.41782492E+03 |  138.200
 BASOPT|        3     |       3     | 0.32925077E-02 | 0.12758109E+03 |  120.320
 BASOPT|        4     |       1     | 0.27750723E-02 | 0.17084026E+05 | 2688.821
 BASOPT|        4     |       2     | 0.40678020E-02 | 0.31309274E+04 | 1691.183
 BASOPT|        4     |       3     | 0.70089452E-02 | 0.60161302E+03 | 1402.627
 BASOPT|        5     |       1     | 0.38985045E-03 | 0.30703663E+03 |  205.326
 BASOPT|        5     |       2     | 0.93383488E-03 | 0.22949529E+03 |  130.756
 BASOPT|        5     |       3     | 0.15494368E-02 | 0.36723722E+02 |  108.964
 BASOPT|        6     |       1     | 0.18420998E-02 | 0.54813942E+03 |  200.583
 BASOPT|        6     |       2     | 0.27077417E-02 | 0.25590811E+03 |  134.027
 BASOPT|        6     |       3     | 0.43907116E-02 | 0.14176919E+03 |  109.683
 BASOPT|        7     |       1     | 0.18263052E-02 | 0.32218711E+03 |  454.662
 BASOPT|        7     |       2     | 0.27874988E-02 | 0.25913737E+03 |  301.685
 BASOPT|        7     |       3     | 0.47956683E-02 | 0.10614388E+03 |  248.368
 BASOPT|        8     |       1     | 0.82299987E-03 | 0.55222684E+03 |  180.705
 BASOPT|        8     |       2     | 0.13935211E-02 | 0.38181350E+03 |  118.386
 BASOPT|        8     |       3     | 0.23079744E-02 | 0.14205043E+03 |   96.684
 BASOPT| -----------------------------------------------------------------------
 BASOPT| Total residuum value: -.57372510E+04

 BASOPT| Information at iteration number:    2900
 BASOPT| Training set | Combination | Rho difference | Condition num. | Time
 BASOPT| -----------------------------------------------------------------------
 BASOPT|        1     |       1     | 0.17445985E-02 | 0.68096623E+03 |  593.336
 BASOPT|        1     |       2     | 0.28780944E-02 | 0.25243270E+03 |  401.290
 BASOPT|        1     |       3     | 0.43294304E-02 | 0.14926037E+03 |  325.115
 BASOPT|        2     |       1     | 0.99634265E-03 | 0.41391511E+03 |  593.678
 BASOPT|        2     |       2     | 0.16149891E-02 | 0.32234121E+03 |  391.190
 BASOPT|        2     |       3     | 0.30955749E-02 | 0.12603504E+03 |  314.927
 BASOPT|        3     |       1     | 0.12454559E-02 | 0.64071925E+03 |  175.984
 BASOPT|        3     |       2     | 0.15759104E-02 | 0.41802690E+03 |  143.136
 BASOPT|        3     |       3     | 0.32911612E-02 | 0.12756524E+03 |  124.625
 BASOPT|        4     |       1     | 0.27750772E-02 | 0.17002947E+05 | 2784.728
 BASOPT|        4     |       2     | 0.40667829E-02 | 0.31303419E+04 | 1751.534
 BASOPT|        4     |       3     | 0.70096544E-02 | 0.60155455E+03 | 1452.692
 BASOPT|        5     |       1     | 0.39096573E-03 | 0.30707454E+03 |  212.648
 BASOPT|        5     |       2     | 0.93448484E-03 | 0.22958985E+03 |  135.421
 BASOPT|        5     |       3     | 0.15474809E-02 | 0.36764736E+02 |  112.850
 BASOPT|        6     |       1     | 0.18432117E-02 | 0.54772719E+03 |  207.748
 BASOPT|        6     |       2     | 0.27081088E-02 | 0.25592801E+03 |  138.830
 BASOPT|        6     |       3     | 0.43912909E-02 | 0.14180909E+03 |  113.595
 BASOPT|        7     |       1     | 0.18264349E-02 | 0.32236751E+03 |  470.886
 BASOPT|        7     |       2     | 0.27879967E-02 | 0.25922031E+03 |  312.453
 BASOPT|        7     |       3     | 0.47947557E-02 | 0.10608849E+03 |  257.227
 BASOPT|        8     |       1     | 0.82367692E-03 | 0.55290413E+03 |  187.152
 BASOPT|        8     |       2     | 0.13946488E-02 | 0.38200272E+03 |  122.612
 BASOPT|        8     |       3     | 0.23127317E-02 | 0.14214294E+03 |  100.135
 BASOPT| -----------------------------------------------------------------------
 BASOPT| Total residuum value: -.57372510E+04

 BASOPT| Information at iteration number:    3000
 BASOPT| Training set | Combination | Rho difference | Condition num. | Time
 BASOPT| -----------------------------------------------------------------------
 BASOPT|        1     |       1     | 0.17447485E-02 | 0.68049476E+03 |  613.767
 BASOPT|        1     |       2     | 0.28783125E-02 | 0.25244456E+03 |  415.092
 BASOPT|        1     |       3     | 0.43333156E-02 | 0.14926811E+03 |  336.322
 BASOPT|        2     |       1     | 0.99676509E-03 | 0.41418707E+03 |  614.144
 BASOPT|        2     |       2     | 0.16142933E-02 | 0.32230264E+03 |  404.677
 BASOPT|        2     |       3     | 0.31043093E-02 | 0.12623925E+03 |  325.797
 BASOPT|        3     |       1     | 0.12465684E-02 | 0.64149154E+03 |  182.046
 BASOPT|        3     |       2     | 0.15762694E-02 | 0.41813093E+03 |  148.069
 BASOPT|        3     |       3     | 0.32920538E-02 | 0.12757216E+03 |  128.927
 BASOPT|        4     |       1     | 0.27772424E-02 | 0.16942459E+05 | 2880.672
 BASOPT|        4     |       2     | 0.40692915E-02 | 0.31302813E+04 | 1811.887
 BASOPT|        4     |       3     | 0.70095648E-02 | 0.60153300E+03 | 1502.762
 BASOPT|        5     |       1     | 0.39047021E-03 | 0.30696211E+03 |  219.970
 BASOPT|        5     |       2     | 0.93327054E-03 | 0.22963420E+03 |  140.093
 BASOPT|        5     |       3     | 0.15410314E-02 | 0.36812642E+02 |  116.735
 BASOPT|        6     |       1     | 0.18424272E-02 | 0.54735720E+03 |  214.913
 BASOPT|        6     |       2     | 0.27066259E-02 | 0.25588092E+03 |  143.616
 BASOPT|        6     |       3     | 0.43846855E-02 | 0.14185114E+03 |  117.507
 BASOPT|        7     |       1     | 0.18273155E-02 | 0.32249939E+03 |  487.110
 BASOPT|        7     |       2     | 0.27868326E-02 | 0.25917116E+03 |  323.220
 BASOPT|        7     |       3     | 0.48040808E-02 | 0.10601148E+03 |  266.078
 BASOPT|        8     |       1     | 0.82292593E-03 | 0.55355055E+03 |  193.602
 BASOPT|        8     |       2     | 0.13925680E-02 | 0.38220519E+03 |  126.838
 BASOPT|        8     |       3     | 0.23074255E-02 | 0.14223714E+03 |  103.587
 BASOPT| -----------------------------------------------------------------------
 BASOPT| Total residuum value: -.57372514E+04

 BASOPT| Information at iteration number:    3100
 BASOPT| Training set | Combination | Rho difference | Condition num. | Time
 BASOPT| -----------------------------------------------------------------------
 BASOPT|        1     |       1     | 0.17444419E-02 | 0.67890508E+03 |  634.196
[...]
 BASOPT| -----------------------------------------------------------------------
 BASOPT|        1     |       1     | 0.17565655E-02 | 0.59185736E+03 | 5095.968
 BASOPT|        1     |       2     | 0.28798769E-02 | 0.25311644E+03 | 3491.164
 BASOPT|        1     |       3     | 0.43153296E-02 | 0.14789581E+03 | 2784.211
 BASOPT|        2     |       1     | 0.99236886E-03 | 0.42886303E+03 | 5118.710
 BASOPT|        2     |       2     | 0.15947556E-02 | 0.31217390E+03 | 3340.475
 BASOPT|        2     |       3     | 0.31547188E-02 | 0.12491506E+03 | 2716.409
 BASOPT|        3     |       1     | 0.12003440E-02 | 0.59947345E+03 | 1547.434
 BASOPT|        3     |       2     | 0.15627065E-02 | 0.37619272E+03 | 1231.107
 BASOPT|        3     |       3     | 0.34466638E-02 | 0.12442011E+03 | 1098.459
 BASOPT|        4     |       1     | 0.28634697E-02 | 0.10316227E+05 | ********
 BASOPT|        4     |       2     | 0.41516247E-02 | 0.31201697E+04 | ********
 BASOPT|        4     |       3     | 0.70871280E-02 | 0.60481396E+03 | ********
 BASOPT|        5     |       1     | 0.43576349E-03 | 0.30135092E+03 | 1835.252
 BASOPT|        5     |       2     | 0.99482528E-03 | 0.23326425E+03 | 1161.706
 BASOPT|        5     |       3     | 0.15739975E-02 | 0.36214225E+02 |  991.214
 BASOPT|        6     |       1     | 0.18979206E-02 | 0.48106055E+03 | 1730.757
 BASOPT|        6     |       2     | 0.26940463E-02 | 0.25272482E+03 | 1185.264
 BASOPT|        6     |       3     | 0.43614230E-02 | 0.13832915E+03 |  967.381
 BASOPT|        7     |       1     | 0.17961115E-02 | 0.33292992E+03 | 4261.621
 BASOPT|        7     |       2     | 0.27319689E-02 | 0.25297674E+03 | 2832.983
 BASOPT|        7     |       3     | 0.48476090E-02 | 0.10204051E+03 | 2255.938
 BASOPT|        8     |       1     | 0.81656429E-03 | 0.64840225E+03 | 1632.620
 BASOPT|        8     |       2     | 0.13723260E-02 | 0.40398352E+03 | 1058.864
 BASOPT|        8     |       3     | 0.23685143E-02 | 0.13875766E+03 |  861.481
 BASOPT| -----------------------------------------------------------------------
 BASOPT| Total residuum value: -.57372796E+04

 BASOPT| Information at iteration number:   25200
 BASOPT| Training set | Combination | Rho difference | Condition num. | Time
 BASOPT| -----------------------------------------------------------------------
 BASOPT|        1     |       1     | 0.17565655E-02 | 0.59185736E+03 | 5116.343
 BASOPT|        1     |       2     | 0.28798769E-02 | 0.25311644E+03 | 3505.032
 BASOPT|        1     |       3     | 0.43153296E-02 | 0.14789581E+03 | 2795.297
 BASOPT|        2     |       1     | 0.99236886E-03 | 0.42886303E+03 | 5139.008
 BASOPT|        2     |       2     | 0.15947556E-02 | 0.31217390E+03 | 3353.807
 BASOPT|        2     |       3     | 0.31547188E-02 | 0.12491506E+03 | 2727.172
 BASOPT|        3     |       1     | 0.12003440E-02 | 0.59947345E+03 | 1553.570
 BASOPT|        3     |       2     | 0.15627065E-02 | 0.37619272E+03 | 1235.997
 BASOPT|        3     |       3     | 0.34466638E-02 | 0.12442011E+03 | 1102.798
 BASOPT|        4     |       1     | 0.28634697E-02 | 0.10316227E+05 | ********
 BASOPT|        4     |       2     | 0.41516247E-02 | 0.31201697E+04 | ********
 BASOPT|        4     |       3     | 0.70871280E-02 | 0.60481396E+03 | ********
 BASOPT|        5     |       1     | 0.43576349E-03 | 0.30135092E+03 | 1842.611
 BASOPT|        5     |       2     | 0.99482528E-03 | 0.23326425E+03 | 1166.333
 BASOPT|        5     |       3     | 0.15739975E-02 | 0.36214225E+02 |  995.161
 BASOPT|        6     |       1     | 0.18979206E-02 | 0.48106055E+03 | 1737.645
 BASOPT|        6     |       2     | 0.26940463E-02 | 0.25272482E+03 | 1189.975
 BASOPT|        6     |       3     | 0.43614230E-02 | 0.13832915E+03 |  971.236
 BASOPT|        7     |       1     | 0.17961115E-02 | 0.33292992E+03 | 4278.583
 BASOPT|        7     |       2     | 0.27319689E-02 | 0.25297674E+03 | 2844.275
 BASOPT|        7     |       3     | 0.48476090E-02 | 0.10204051E+03 | 2264.778
 BASOPT|        8     |       1     | 0.81656429E-03 | 0.64840225E+03 | 1639.126
 BASOPT|        8     |       2     | 0.13723260E-02 | 0.40398352E+03 | 1063.082
 BASOPT|        8     |       3     | 0.23685143E-02 | 0.13875766E+03 |  864.909
 BASOPT| -----------------------------------------------------------------------
 BASOPT| Total residuum value: -.57372796E+04


 -------------------------------------------------------------------------------
 -                                                                             -
 -                                DBCSR STATISTICS                             -
 -                                                                             -
 -------------------------------------------------------------------------------
 COUNTER                                    TOTAL       BLAS       SMM       ACC
 flops   116 x   116 x     9               726624       0.0%    100.0%      0.0%
 flops   116 x   144 x     9               902016       0.0%    100.0%      0.0%
 flops    68 x   144 x     8               940032       0.0%    100.0%      0.0%
 flops   144 x    68 x     8               940032       0.0%    100.0%      0.0%
 flops   144 x   144 x     8               995328       0.0%    100.0%      0.0%
 flops   144 x   144 x     9              1119744       0.0%    100.0%      0.0%
 flops   144 x   116 x    16              1603584       0.0%    100.0%      0.0%
 flops   144 x   116 x    17              1703808       0.0%    100.0%      0.0%
 flops   144 x   144 x    16              1990656       0.0%    100.0%      0.0%
 flops   144 x   144 x    17              2115072       0.0%    100.0%      0.0%
 flops    68 x    68 x     8              2219520       0.0%    100.0%      0.0%
 flops   116 x   144 x    12              2405376       0.0%    100.0%      0.0%
 flops   144 x   116 x    12              2405376       0.0%    100.0%      0.0%
 flops   144 x   144 x    12              2985984       0.0%    100.0%      0.0%
 flops   116 x   144 x    16              3207168       0.0%    100.0%      0.0%
 flops   144 x   144 x    26              3234816       0.0%    100.0%      0.0%
 flops   116 x   144 x    17              3407616       0.0%    100.0%      0.0%
 flops   144 x   144 x    20              4976640       0.0%    100.0%      0.0%
 flops   116 x   116 x    12              5812992       0.0%    100.0%      0.0%
 flops   116 x   116 x    16              7750656       0.0%    100.0%      0.0%
 flops   144 x   116 x    20              8017920       0.0%    100.0%      0.0%
 flops   116 x   144 x    20              8017920       0.0%    100.0%      0.0%
 flops   116 x   116 x    17              8235072       0.0%    100.0%      0.0%
 flops   116 x   144 x    26             10423296       0.0%    100.0%      0.0%
 flops   144 x   116 x    26             10423296       0.0%    100.0%      0.0%
 flops   116 x   116 x    20             32294400       0.0%    100.0%      0.0%
 flops   116 x   116 x    26             75568896       0.0%    100.0%      0.0%
 flops inhomo. stacks                           0       0.0%      0.0%      0.0%
 flops total                       204.423840E+06       0.0%    100.0%      0.0%
 flops max/rank                     18.168384E+06       0.0%    100.0%      0.0%
 matmuls inhomo. stacks                         0       0.0%      0.0%      0.0%
 matmuls total                                375       0.0%    100.0%      0.0%
 number of processed stacks                   132       0.0%    100.0%      0.0%
 average stack size                                     0.0       2.8       0.0
 marketing flops                   348.235968E+06
 -------------------------------------------------------------------------------
 # multiplications                              1
 max memory usage/rank             301.604864E+06
 # max total images/rank                        2
 # max 3D layers                                1
 # MPI messages exchanged                      54
 MPI messages size (bytes):
  total size                         1.994880E+06
  min size                           0.000000E+00
  max size                         222.976000E+03
  average size                      36.942223E+03
 MPI breakdown and total messages size (bytes):
             size <=      128                  27                        0
       128 < size <=     8192                   0                        0
      8192 < size <=    32768                   6                   136032
     32768 < size <=   131072                  18                  1189920
    131072 < size <=  4194304                   3                   668928
   4194304 < size <= 16777216                   0                        0
  16777216 < size                               0                        0
 -------------------------------------------------------------------------------

 *** WARNING in dbcsr_mm.F:294 :: Using a non-square number of MPI ranks ***
 *** might lead to poor performance. Used ranks: 2 Suggested: 1 4        ***

 -------------------------------------------------------------------------------
 -                                                                             -
 -                      DBCSR MESSAGE PASSING PERFORMANCE                      -
 -                                                                             -
 -------------------------------------------------------------------------------
 ROUTINE             CALLS      AVE VOLUME [Bytes]
 MP_Bcast               28                     12.
 MP_Allreduce           80                     23.
 MP_Alltoall       1512861                 255004.
 MP_ISend                6                  16270.
 MP_IRecv                8                   7002.
 -------------------------------------------------------------------------------

 -------------------------------------------------------------------------------
 -                                                                             -
 -                                GRID STATISTICS                              -
 -                                                                             -
 -------------------------------------------------------------------------------
 LP    KERNEL             BACKEND                              COUNT     PERCENT
 2     collocate ortho    REF                                  23505      16.77%
 2     integrate ortho    REF                                  23505      16.77%
 5     collocate ortho    REF                                  17370      12.39%
 5     integrate ortho    REF                                  17370      12.39%
 4     collocate ortho    REF                                  13209       9.42%
 4     integrate ortho    REF                                  13209       9.42%
 8     collocate ortho    REF                                   3732       2.66%
 8     integrate ortho    REF                                   3732       2.66%
 6     collocate ortho    REF                                   3588       2.56%
 6     integrate ortho    REF                                   3588       2.56%
 7     collocate ortho    REF                                   2985       2.13%
 7     integrate ortho    REF                                   2985       2.13%
 3     collocate ortho    REF                                   2808       2.00%
 3     integrate ortho    REF                                   2808       2.00%
 0     collocate ortho    REF                                   1794       1.28%
 0     integrate ortho    REF                                   1794       1.28%
 1     collocate ortho    REF                                   1044       0.74%
 1     integrate ortho    REF                                   1044       0.74%
 0     collocate general  REF                                    108       0.08%
 -------------------------------------------------------------------------------

 MEMORY| Estimated peak process memory [MiB]                                 512

 -------------------------------------------------------------------------------
 -                                                                             -
 -                         MESSAGE PASSING PERFORMANCE                         -
 -                                                                             -
 -------------------------------------------------------------------------------

 ROUTINE             CALLS      AVE VOLUME [Bytes]
 MP_Bcast            25270                   2541.
 MP_Allreduce       176863                    194.
 MP_Sync             25214
 MP_Alltoall            18               38073230.
 MP_ISendRecv            9                2606194.
 MP_Wait                 9
 MP_comm_split           1
 -------------------------------------------------------------------------------


 -------------------------------------------------------------------------------
 -                                                                             -
 -                           R E F E R E N C E S                               -
 -                                                                             -
 -------------------------------------------------------------------------------
 
 CP2K version 9.0 (Development Version), the CP2K developers group (2020).
 CP2K is freely available from https://www.cp2k.org/ .

 Kuehne,Thomas D.; Iannuzzi,Marcella; Del Ben,Mauro;
 Rybkin,Vladimir V.; Seewald,Patrick; Stein,Frederick; Laino,Teodoro;
 Khaliullin,Rustam Z.; Schuett,Ole; Schiffmann,Florian; Golze,Dorothea;
 Wilhelm,Jan; Chulkov,Sergey; Bani-Hashemian,Mohammad Hossein;
 Weber,Valery; Borstnik,Urban; Taillefumier,Mathieu;
 Jakobovits,Alice Shoshana; Lazzaro,Alfio; Pabst,Hans; Mueller,Tiziano;
 Schade,Robert; Guidon,Manuel; Andermatt,Samuel; Holmberg,Nico;
 Schenter,Gregory K.; Hehn,Anna; Bussy,Augustin; Belleflamme,Fabian;
 Tabacchi,Gloria; Gloess,Andreas; Lass,Michael; Bethune,Iain;
 Mundy,Christopher J.; Plessl,Christian; Watkins,Matt;
 VandeVondele,Joost; Krack,Matthias; Hutter,Juerg. 
 The Journal of Chemical Physics, 152 (19), (2020). 
 CP2K: An electronic structure and molecular dynamics software package -
 Quickstep: Efficient and accurate electronic structure calculations.
 https://doi.org/10.1063/5.0007045

 Schuett, Ole; Messmer, Peter; Hutter, Juerg; VandeVondele, Joost. 
 Electronic Structure Calculations on Graphics Processing Units, John
 Wiley & Sons, Ltd, 173-190 (2016). 
 GPU-Accelerated Sparse Matrix-Matrix Multiplication for
 Linear Scaling Density Functional Theory.
 https://doi.org/10.1002/9781118670712.ch8

 Borstnik, U; VandeVondele, J; Weber, V; Hutter, J. 
 PARALLEL COMPUTING, 40 (5-6), 47-58 (2014). 
 Sparse matrix multiplication: The distributed block-compressed sparse
 row library.
 https://doi.org/10.1016/j.parco.2014.03.012

 Hutter, J; Iannuzzi, M; Schiffmann, F; VandeVondele, J. 
 WIREs Comput Mol Sci., 4 (1), 15-25 (2014). 
 CP2K: atomistic simulations of condensed matter systems.
 https://doi.org/10.1002/wcms.1159

 Marek, A; Blum, V; Johanni, R; Havu, V; Lang, B; Auckenthaler, T;
 Heinecke, A; Bungartz, H; Lederer, H. 
 Journal of Physics: Condensed Matter, 26 (21), (2014). 
 The ELPA library: scalable parallel eigenvalue solutions for
 electronic structure
 theory and computational science.
 https://doi.org/10.1088/0953-8984/26/21/213201

 Guidon, M; Hutter, J; VandeVondele, J. 
 JOURNAL OF CHEMICAL THEORY AND COMPUTATION, 6 (8), 2348-2364 (2010). 
 Auxiliary Density Matrix Methods for Hartree-Fock Exchange Calculations.
 https://doi.org/10.1021/ct1002225

 VandeVondele, J; Hutter, J. 
 JOURNAL OF CHEMICAL PHYSICS, 127 (11), 114105 (2007). 
 Gaussian basis sets for accurate calculations on molecular systems in
 gas and condensed phases.
 https://doi.org/10.1063/1.2770708

 Krack, M. 
 THEORETICAL CHEMISTRY ACCOUNTS, 114 (1-3), 145-152 (2005). 
 Pseudopotentials for H to Kr optimized for gradient-corrected
 exchange-correlation functionals.
 https://doi.org/10.1007/s00214-005-0655-y

 VandeVondele, J; Krack, M; Mohamed, F; Parrinello, M; Chassaing, T;
 Hutter, J. COMPUTER PHYSICS COMMUNICATIONS, 167 (2), 103-128 (2005). 
 QUICKSTEP: Fast and accurate density functional calculations using a
 mixed Gaussian and plane waves approach.
 https://doi.org/10.1016/j.cpc.2004.12.014

 Frigo, M; Johnson, SG. 
 PROCEEDINGS OF THE IEEE, 93 (2), 216-231 (2005). 
 The design and implementation of FFTW3.
 https://doi.org/10.1109/JPROC.2004.840301

 Hartwigsen, C; Goedecker, S; Hutter, J. 
 PHYSICAL REVIEW B, 58 (7), 3641-3662 (1998). 
 Relativistic separable dual-space Gaussian pseudopotentials from H to Rn.
 https://doi.org/10.1103/PhysRevB.58.3641

 Lippert, G; Hutter, J; Parrinello, M. 
 MOLECULAR PHYSICS, 92 (3), 477-487 (1997). 
 A hybrid Gaussian and plane wave density functional scheme.
 https://doi.org/10.1080/002689797170220

 Perdew, JP; Burke, K; Ernzerhof, M. 
 PHYSICAL REVIEW LETTERS, 77 (18), 3865-3868 (1996). 
 Generalized gradient approximation made simple.
 https://doi.org/10.1103/PhysRevLett.77.3865

 Goedecker, S; Teter, M; Hutter, J. 
 PHYSICAL REVIEW B, 54 (3), 1703-1710 (1996). 
 Separable dual-space Gaussian pseudopotentials.
 https://doi.org/10.1103/PhysRevB.54.1703


 -------------------------------------------------------------------------------
 -                                                                             -
 -                                T I M I N G                                  -
 -                                                                             -
 -------------------------------------------------------------------------------
 SUBROUTINE                       CALLS  ASD         SELF TIME        TOTAL TIME
                                MAXIMUM       AVERAGE  MAXIMUM  AVERAGE  MAXIMUM
 CP2K                                 1  1.0     0.00     0.00 24252.66 24255.19
 run_optimize_basis                   1  2.0     0.00     0.01 24252.63 24255.17
 driver_para_opt_basis                1  3.0     0.00     0.00 24252.62 24255.16
 driver_optimization_para_low         1  4.0     0.40     0.87 24252.62 24255.15
 compute_residuum_vectors         25214  5.0     2.22     3.46 24238.63 24241.20
 mp_sum_dv                       126071  5.8 20081.08 23372.97 20081.08 23372.97
 cp_gemm                         529494  7.2     0.65     1.52  3334.14 21722.98
 cp_gemm_fm_gemm                 529494  8.2     0.39     0.93  3333.49 21722.06
 cp_fm_gemm                      529494  9.2  3333.10 21721.54  3333.10 21721.54
 admm_fit_mo_coeffs               25214  6.0     0.10     0.19  1462.13  9022.18
 fit_mo_coeffs                    25214  7.0     0.29     0.47  1222.26  8153.10
 build_overlap_matrix_low         50432  6.0   273.10  1015.85   274.96  1019.19
 purify_mo_diag                   25214  7.0     0.44     1.09   239.77   879.20
 copy_dbcsr_to_fm                151285  6.8     1.96     3.16   246.72   699.30
 dbcsr_desymmetrize_deep         151285  7.8    10.43    33.68   146.37   663.91
 mp_alltoall_i22                 302572  8.8   120.03   653.65   120.03   653.65
 cp_fm_syevd                      75642  7.1     0.23     0.46   139.45   606.84
 cp_fm_syevd_base                 75642  8.1   139.13   606.40   139.13   606.40
 -------------------------------------------------------------------------------

 The number of warnings for this run is : 1
 
 -------------------------------------------------------------------------------
  **** **** ******  **  PROGRAM ENDED AT                 2021-01-21 00:12:07.825
 ***** ** ***  *** **   PROGRAM RAN ON                                   tcopt10
 **    ****   ******    PROGRAM RAN BY                                    hutter
 ***** **    ** ** **   PROGRAM PROCESS ID                                 21544
  **** **  *******  **  PROGRAM STOPPED IN /data/hutter/GITHUB/BASIS/MOLOPT/PBE/
                                           Ti
