SIRIUS 7.0.0, git hash: https://api.github.com/repos/electronic-structure/SIRIUS/git/ref/tags/v7.0.0

  **** **** ******  **  PROGRAM STARTED AT               2020-12-18 15:13:11.145
 ***** ** ***  *** **   PROGRAM STARTED ON                               tcopt10
 **    ****   ******    PROGRAM STARTED BY                                hutter
 ***** **    ** ** **   PROGRAM PROCESS ID                                 13879
  **** **  *******  **  PROGRAM STARTED IN /data/hutter/GITHUB/BASIS/MOLOPT/PBE0
                                           /Se

 CP2K| version string:                    CP2K version 8.0 (Development Version)
 CP2K| source code revision number:                                  git:7416431
 CP2K| cp2kflags: omp libint fftw3 libxc elpa parallel mpi3 scalapack xsmm spgli
 CP2K|            b sirius
 CP2K| is freely available from                            https://www.cp2k.org/
 CP2K| Program compiled at                          Thu Dec 10 17:08:57 CET 2020
 CP2K| Program compiled on                                               tcopt10
 CP2K| Program compiled for                                                local
 CP2K| Data directory path                 /data/hutter/GITHUB/CURRENT/cp2k/data
 CP2K| Input file name                                               opt-all.inp

 GLOBAL| Method name                                              OPTIMIZE_BASIS
 GLOBAL| Project name                                                     molopt
 GLOBAL| Preferred FFT library                                             FFTW3
 GLOBAL| Preferred diagonalization lib.                                     ELPA
 GLOBAL| Run type                                                   ENERGY_FORCE
 GLOBAL| All-to-all communication in single precision                          F
 GLOBAL| FFTs using library dependent lengths                                  F
 GLOBAL| Global print level                                               MEDIUM
 GLOBAL| MPI I/O enabled                                                       T
 GLOBAL| Total number of message passing processes                            16
 GLOBAL| Number of threads for this process                                    1
 GLOBAL| This output is from process                                           0
 GLOBAL| CPU model name                          AMD EPYC 7401 24-Core Processor
 GLOBAL| CPUID                                                              1002

 MEMORY| system memory details [Kb]
 MEMORY|                        rank 0           min           max       average
 MEMORY| MemTotal            263987256     263987256     263987256     263987256
 MEMORY| MemFree             256081112     256081112     256081112     256081112
 MEMORY| Buffers                    32            32            32            32
 MEMORY| Cached                 285308        285308        285308        285308
 MEMORY| Slab                   765504        765504        765504        765504
 MEMORY| SReclaimable           278120        278120        278120        278120
 MEMORY| MemLikelyFree       256644572     256644572     256644572     256644572


 *** Fundamental physical constants (SI units) ***

 *** Literature: B. J. Mohr and B. N. Taylor,
 ***             CODATA recommended values of the fundamental physical
 ***             constants: 2006, Web Version 5.1
 ***             http://physics.nist.gov/constants

 Speed of light in vacuum [m/s]                             2.99792458000000E+08
 Magnetic constant or permeability of vacuum [N/A**2]       1.25663706143592E-06
 Electric constant or permittivity of vacuum [F/m]          8.85418781762039E-12
 Planck constant (h) [J*s]                                  6.62606896000000E-34
 Planck constant (h-bar) [J*s]                              1.05457162825177E-34
 Elementary charge [C]                                      1.60217648700000E-19
 Electron mass [kg]                                         9.10938215000000E-31
 Electron g factor [ ]                                     -2.00231930436220E+00
 Proton mass [kg]                                           1.67262163700000E-27
 Fine-structure constant                                    7.29735253760000E-03
 Rydberg constant [1/m]                                     1.09737315685270E+07
 Avogadro constant [1/mol]                                  6.02214179000000E+23
 Boltzmann constant [J/K]                                   1.38065040000000E-23
 Atomic mass unit [kg]                                      1.66053878200000E-27
 Bohr radius [m]                                            5.29177208590000E-11

 *** Conversion factors ***

 [u] -> [a.u.]                                              1.82288848426455E+03
 [Angstrom] -> [Bohr] = [a.u.]                              1.88972613288564E+00
 [a.u.] = [Bohr] -> [Angstrom]                              5.29177208590000E-01
 [a.u.] -> [s]                                              2.41888432650478E-17
 [a.u.] -> [fs]                                             2.41888432650478E-02
 [a.u.] -> [J]                                              4.35974393937059E-18
 [a.u.] -> [N]                                              8.23872205491840E-08
 [a.u.] -> [K]                                              3.15774647902944E+05
 [a.u.] -> [kJ/mol]                                         2.62549961709828E+03
 [a.u.] -> [kcal/mol]                                       6.27509468713739E+02
 [a.u.] -> [Pa]                                             2.94210107994716E+13
 [a.u.] -> [bar]                                            2.94210107994716E+08
 [a.u.] -> [atm]                                            2.90362800883016E+08
 [a.u.] -> [eV]                                             2.72113838565563E+01
 [a.u.] -> [Hz]                                             6.57968392072181E+15
 [a.u.] -> [1/cm] (wave numbers)                            2.19474631370540E+05
 [a.u./Bohr**2] -> [1/cm]                                   5.14048714338585E+03
 
 DBCSR| CPU Multiplication driver                                           XSMM
 DBCSR| Multrec recursion limit                                              512
 DBCSR| Multiplication stack size                                           1000
 DBCSR| Maximum elements for images                                    UNLIMITED
 DBCSR| Multiplicative factor virtual images                                   1
 DBCSR| Use multiplication densification                                       T
 DBCSR| Multiplication size stacks                                             3
 DBCSR| Use memory pool for CPU allocation                                     F
 DBCSR| Number of 3D layers                                               SINGLE
 DBCSR| Use MPI memory allocation                                              F
 DBCSR| Use RMA algorithm                                                      F
 DBCSR| Use Communication thread                                               T
 DBCSR| Communication thread load                                             87
 DBCSR| MPI: My node id                                                        0
 DBCSR| MPI: Number of nodes                                                  16
 DBCSR| OMP: Current number of threads                                         1
 DBCSR| OMP: Max number of threads                                             1
 DBCSR| Split modifier for TAS multiplication algorithm                  1.0E+00

 BASOPT| Total number of calculations     12

 BASOPT| Content of basis combination      1
 BASOPT|     Element:   SE    Basis set:    TZV2P-MOLOPT-PBE0-GTH-Q6
 BASOPT|     Element:    H    Basis set:    TZV2P-MOLOPT-PBE0-GTH-Q1
 BASOPT|     Element:    O    Basis set:    TZV2P-MOLOPT-PBE0-GTH-Q6

 BASOPT| Content of basis combination      2
 BASOPT|     Element:   SE    Basis set:    TZVP-MOLOPT-PBE0-GTH-q6
 BASOPT|     Element:    H    Basis set:    TZVP-MOLOPT-PBE0-GTH-q1
 BASOPT|     Element:    O    Basis set:    TZVP-MOLOPT-PBE0-GTH-q6

 BASOPT| Content of basis combination      3
 BASOPT|     Element:   SE    Basis set:    DZVP-MOLOPT-PBE0-GTH-q6
 BASOPT|     Element:    H    Basis set:    DZVP-MOLOPT-PBE0-GTH-q1
 BASOPT|     Element:    O    Basis set:    DZVP-MOLOPT-PBE0-GTH-q6

 BASOPT| Information at iteration number:       0
 BASOPT| Training set | Combination | Rho difference | Condition num. | Time
 BASOPT| -----------------------------------------------------------------------
 BASOPT|        1     |       1     | 0.38686265E-02 | 0.54844744E+04 |    0.412
 BASOPT|        1     |       2     | 0.12480731E-01 | 0.11634623E+04 |    0.244
 BASOPT|        1     |       3     | 0.12756127E-01 | 0.11480173E+03 |    0.194
 BASOPT|        2     |       1     | 0.12030153E-02 | 0.11521865E+04 |    0.016
 BASOPT|        2     |       2     | 0.19905460E-02 | 0.61012508E+03 |    0.010
 BASOPT|        2     |       3     | 0.23235974E-02 | 0.32293736E+02 |    0.009
 BASOPT|        3     |       1     | 0.15470359E-02 | 0.18733266E+04 |    0.018
 BASOPT|        3     |       2     | 0.44706037E-02 | 0.83733400E+03 |    0.012
 BASOPT|        3     |       3     | 0.54704971E-02 | 0.17828063E+03 |    0.010
 BASOPT|        4     |       1     | 0.11345997E-02 | 0.11957587E+04 |    0.009
 BASOPT|        4     |       2     | 0.30057029E-02 | 0.58488130E+03 |    0.006
 BASOPT|        4     |       3     | 0.35440608E-02 | 0.11536735E+03 |    0.005
 BASOPT| -----------------------------------------------------------------------
 BASOPT| Total residuum value: -.11262266E+04

 BASOPT| Information at iteration number:     100
 BASOPT| Training set | Combination | Rho difference | Condition num. | Time
 BASOPT| -----------------------------------------------------------------------
 BASOPT|        1     |       1     | 0.38733984E-02 | 0.52517891E+04 |   39.929
 BASOPT|        1     |       2     | 0.12598199E-01 | 0.45032427E+03 |   23.272
 BASOPT|        1     |       3     | 0.12960319E-01 | 0.10998169E+03 |   18.377
 BASOPT|        2     |       1     | 0.11793288E-02 | 0.73711920E+03 |    1.482
 BASOPT|        2     |       2     | 0.19681327E-02 | 0.27304452E+03 |    0.926
 BASOPT|        2     |       3     | 0.22895639E-02 | 0.32210799E+02 |    0.806
 BASOPT|        3     |       1     | 0.15057309E-02 | 0.14249935E+04 |    1.783
 BASOPT|        3     |       2     | 0.44405626E-02 | 0.41322286E+03 |    1.131
 BASOPT|        3     |       3     | 0.54301660E-02 | 0.17198905E+03 |    0.962
 BASOPT|        4     |       1     | 0.11160358E-02 | 0.94042945E+03 |    0.831
 BASOPT|        4     |       2     | 0.29877518E-02 | 0.24002854E+03 |    0.572
 BASOPT|        4     |       3     | 0.35280003E-02 | 0.11327750E+03 |    0.482
 BASOPT| -----------------------------------------------------------------------
 BASOPT| Total residuum value: -.11262818E+04

 BASOPT| Information at iteration number:     200
 BASOPT| Training set | Combination | Rho difference | Condition num. | Time
 BASOPT| -----------------------------------------------------------------------
 BASOPT|        1     |       1     | 0.37533453E-02 | 0.55875961E+04 |   79.464
 BASOPT|        1     |       2     | 0.12490882E-01 | 0.37237434E+03 |   46.278
 BASOPT|        1     |       3     | 0.12793778E-01 | 0.11528960E+03 |   36.554
 BASOPT|        2     |       1     | 0.11694901E-02 | 0.70561310E+03 |    2.949
 BASOPT|        2     |       2     | 0.19842416E-02 | 0.26206563E+03 |    1.842
 BASOPT|        2     |       3     | 0.23265724E-02 | 0.32163965E+02 |    1.602
 BASOPT|        3     |       1     | 0.14587308E-02 | 0.14390709E+04 |    3.549
 BASOPT|        3     |       2     | 0.44867697E-02 | 0.40123534E+03 |    2.249
 BASOPT|        3     |       3     | 0.54969220E-02 | 0.17946041E+03 |    1.913
 BASOPT|        4     |       1     | 0.10974776E-02 | 0.93446553E+03 |    1.652
 BASOPT|        4     |       2     | 0.29973790E-02 | 0.23539330E+03 |    1.132
 BASOPT|        4     |       3     | 0.35536016E-02 | 0.11629298E+03 |    0.959
 BASOPT| -----------------------------------------------------------------------
 BASOPT| Total residuum value: -.11263001E+04

 BASOPT| Information at iteration number:     300
 BASOPT| Training set | Combination | Rho difference | Condition num. | Time
 BASOPT| -----------------------------------------------------------------------
 BASOPT|        1     |       1     | 0.37254514E-02 | 0.57927420E+04 |  119.015
 BASOPT|        1     |       2     | 0.12484997E-01 | 0.36583601E+03 |   69.279
 BASOPT|        1     |       3     | 0.12796922E-01 | 0.11361668E+03 |   54.736
 BASOPT|        2     |       1     | 0.11649180E-02 | 0.70327459E+03 |    4.413
 BASOPT|        2     |       2     | 0.19839540E-02 | 0.26094484E+03 |    2.753
 BASOPT|        2     |       3     | 0.23095879E-02 | 0.32058324E+02 |    2.397
 BASOPT|        3     |       1     | 0.14275442E-02 | 0.14440167E+04 |    5.316
 BASOPT|        3     |       2     | 0.44761261E-02 | 0.39964226E+03 |    3.367
 BASOPT|        3     |       3     | 0.54704621E-02 | 0.17675811E+03 |    2.863
 BASOPT|        4     |       1     | 0.10845041E-02 | 0.93573553E+03 |    2.473
 BASOPT|        4     |       2     | 0.29961348E-02 | 0.23380711E+03 |    1.692
 BASOPT|        4     |       3     | 0.35418584E-02 | 0.11507637E+03 |    1.437
 BASOPT| -----------------------------------------------------------------------
 BASOPT| Total residuum value: -.11263060E+04

 BASOPT| Information at iteration number:     400
 BASOPT| Training set | Combination | Rho difference | Condition num. | Time
 BASOPT| -----------------------------------------------------------------------
 BASOPT|        1     |       1     | 0.37406892E-02 | 0.58675953E+04 |  158.587
 BASOPT|        1     |       2     | 0.12589440E-01 | 0.36332655E+03 |   92.288
 BASOPT|        1     |       3     | 0.12892130E-01 | 0.11163489E+03 |   72.926
 BASOPT|        2     |       1     | 0.11565965E-02 | 0.69904302E+03 |    5.878
 BASOPT|        2     |       2     | 0.19694202E-02 | 0.25924246E+03 |    3.662
 BASOPT|        2     |       3     | 0.23014889E-02 | 0.31975147E+02 |    3.178
 BASOPT|        3     |       1     | 0.13946330E-02 | 0.14462159E+04 |    7.081
 BASOPT|        3     |       2     | 0.44523423E-02 | 0.39700046E+03 |    4.486
 BASOPT|        3     |       3     | 0.54474603E-02 | 0.17536794E+03 |    3.813
 BASOPT|        4     |       1     | 0.10701743E-02 | 0.93541778E+03 |    3.294
 BASOPT|        4     |       2     | 0.29881785E-02 | 0.23201656E+03 |    2.253
 BASOPT|        4     |       3     | 0.35336017E-02 | 0.11418456E+03 |    1.914
 BASOPT| -----------------------------------------------------------------------
 BASOPT| Total residuum value: -.11263135E+04

 BASOPT| Information at iteration number:     500
 BASOPT| Training set | Combination | Rho difference | Condition num. | Time
 BASOPT| -----------------------------------------------------------------------
 BASOPT|        1     |       1     | 0.37062308E-02 | 0.59912125E+04 |  198.166
 BASOPT|        1     |       2     | 0.12600034E-01 | 0.37184385E+03 |  115.301
 BASOPT|        1     |       3     | 0.12890486E-01 | 0.10589117E+03 |   91.130
 BASOPT|        2     |       1     | 0.11487666E-02 | 0.70019959E+03 |    7.344
 BASOPT|        2     |       2     | 0.19674739E-02 | 0.25988213E+03 |    4.568
 BASOPT|        2     |       3     | 0.23032248E-02 | 0.32088680E+02 |    3.948
 BASOPT|        3     |       1     | 0.13502034E-02 | 0.14672361E+04 |    8.844
 BASOPT|        3     |       2     | 0.44554053E-02 | 0.39800466E+03 |    5.604
 BASOPT|        3     |       3     | 0.54850698E-02 | 0.16943824E+03 |    4.763
 BASOPT|        4     |       1     | 0.10531723E-02 | 0.94743345E+03 |    4.114
 BASOPT|        4     |       2     | 0.29898428E-02 | 0.23214985E+03 |    2.812
 BASOPT|        4     |       3     | 0.35472150E-02 | 0.11250692E+03 |    2.391
 BASOPT| -----------------------------------------------------------------------
 BASOPT| Total residuum value: -.11263237E+04

 BASOPT| Information at iteration number:     600
 BASOPT| Training set | Combination | Rho difference | Condition num. | Time
 BASOPT| -----------------------------------------------------------------------
 BASOPT|        1     |       1     | 0.36684713E-02 | 0.60380253E+04 |  237.748
 BASOPT|        1     |       2     | 0.12547873E-01 | 0.35856995E+03 |  138.315
 BASOPT|        1     |       3     | 0.12839024E-01 | 0.10592843E+03 |  109.338
 BASOPT|        2     |       1     | 0.11470182E-02 | 0.69052564E+03 |    8.815
 BASOPT|        2     |       2     | 0.19736443E-02 | 0.25653877E+03 |    5.478
 BASOPT|        2     |       3     | 0.23129821E-02 | 0.32043355E+02 |    4.716
 BASOPT|        3     |       1     | 0.13175783E-02 | 0.14725783E+04 |   10.607
 BASOPT|        3     |       2     | 0.44566620E-02 | 0.39351774E+03 |    6.722
 BASOPT|        3     |       3     | 0.54745199E-02 | 0.17013014E+03 |    5.714
 BASOPT|        4     |       1     | 0.10403433E-02 | 0.94596587E+03 |    4.935
 BASOPT|        4     |       2     | 0.29966017E-02 | 0.22903632E+03 |    3.372
 BASOPT|        4     |       3     | 0.35496088E-02 | 0.11244277E+03 |    2.869
 BASOPT| -----------------------------------------------------------------------
 BASOPT| Total residuum value: -.11263312E+04

 BASOPT| Information at iteration number:     700
 BASOPT| Training set | Combination | Rho difference | Condition num. | Time
 BASOPT| -----------------------------------------------------------------------
 BASOPT|        1     |       1     | 0.36549601E-02 | 0.59387733E+04 |  277.337
 BASOPT|        1     |       2     | 0.12523565E-01 | 0.34039383E+03 |  161.343
 BASOPT|        1     |       3     | 0.12847654E-01 | 0.10880772E+03 |  127.542
 BASOPT|        2     |       1     | 0.11453279E-02 | 0.67632789E+03 |   10.285
 BASOPT|        2     |       2     | 0.19788018E-02 | 0.25301401E+03 |    6.386
 BASOPT|        2     |       3     | 0.23147770E-02 | 0.32044378E+02 |    5.484
 BASOPT|        3     |       1     | 0.12898134E-02 | 0.14678893E+04 |   12.369
 BASOPT|        3     |       2     | 0.44686356E-02 | 0.38937661E+03 |    7.840
 BASOPT|        3     |       3     | 0.54403323E-02 | 0.17372545E+03 |    6.664
 BASOPT|        4     |       1     | 0.10289084E-02 | 0.93830368E+03 |    5.755
 BASOPT|        4     |       2     | 0.30042775E-02 | 0.22626801E+03 |    3.933
 BASOPT|        4     |       3     | 0.35415856E-02 | 0.11343082E+03 |    3.348
 BASOPT| -----------------------------------------------------------------------
 BASOPT| Total residuum value: -.11263363E+04

 BASOPT| Information at iteration number:     800
 BASOPT| Training set | Combination | Rho difference | Condition num. | Time
 BASOPT| -----------------------------------------------------------------------
 BASOPT|        1     |       1     | 0.36582042E-02 | 0.57837852E+04 |  316.932
 BASOPT|        1     |       2     | 0.12585604E-01 | 0.33965021E+03 |  184.362
 BASOPT|        1     |       3     | 0.12891031E-01 | 0.10883345E+03 |  145.745
 BASOPT|        2     |       1     | 0.11405745E-02 | 0.67017013E+03 |   11.759
 BASOPT|        2     |       2     | 0.19709111E-02 | 0.25245019E+03 |    7.295
 BASOPT|        2     |       3     | 0.23155026E-02 | 0.31934256E+02 |    6.253
 BASOPT|        3     |       1     | 0.12602559E-02 | 0.14579045E+04 |   14.131
 BASOPT|        3     |       2     | 0.44488714E-02 | 0.38822885E+03 |    8.958
 BASOPT|        3     |       3     | 0.54321301E-02 | 0.17465299E+03 |    7.614
 BASOPT|        4     |       1     | 0.10156581E-02 | 0.93122246E+03 |    6.576
 BASOPT|        4     |       2     | 0.29972273E-02 | 0.22606622E+03 |    4.492
 BASOPT|        4     |       3     | 0.35417162E-02 | 0.11367864E+03 |    3.827
 BASOPT| -----------------------------------------------------------------------
 BASOPT| Total residuum value: -.11263418E+04

 BASOPT| Information at iteration number:     900
 BASOPT| Training set | Combination | Rho difference | Condition num. | Time
 BASOPT| -----------------------------------------------------------------------
 BASOPT|        1     |       1     | 0.36647146E-02 | 0.56688682E+04 |  356.535
 BASOPT|        1     |       2     | 0.12607582E-01 | 0.34350301E+03 |  207.388
 BASOPT|        1     |       3     | 0.12920777E-01 | 0.10689808E+03 |  163.956
 BASOPT|        2     |       1     | 0.11379569E-02 | 0.66788751E+03 |   13.239
 BASOPT|        2     |       2     | 0.19685783E-02 | 0.25298474E+03 |    8.206
 BASOPT|        2     |       3     | 0.23084756E-02 | 0.31959132E+02 |    7.021
 BASOPT|        3     |       1     | 0.12475220E-02 | 0.14508263E+04 |   15.895
 BASOPT|        3     |       2     | 0.44519959E-02 | 0.38871480E+03 |   10.076
 BASOPT|        3     |       3     | 0.54406249E-02 | 0.17223588E+03 |    8.564
 BASOPT|        4     |       1     | 0.10098289E-02 | 0.92782023E+03 |    7.397
 BASOPT|        4     |       2     | 0.29964783E-02 | 0.22652435E+03 |    5.053
 BASOPT|        4     |       3     | 0.35413513E-02 | 0.11308368E+03 |    4.315
 BASOPT| -----------------------------------------------------------------------
 BASOPT| Total residuum value: -.11263441E+04

 BASOPT| Information at iteration number:    1000
 BASOPT| Training set | Combination | Rho difference | Condition num. | Time
 BASOPT| -----------------------------------------------------------------------
 BASOPT|        1     |       1     | 0.36521326E-02 | 0.55836632E+04 |  396.136
 BASOPT|        1     |       2     | 0.12584364E-01 | 0.33400372E+03 |  230.421
 BASOPT|        1     |       3     | 0.12884652E-01 | 0.10718632E+03 |  182.166
 BASOPT|        2     |       1     | 0.11373498E-02 | 0.65909522E+03 |   14.726
 BASOPT|        2     |       2     | 0.19715970E-02 | 0.25171208E+03 |    9.116
 BASOPT|        2     |       3     | 0.23173043E-02 | 0.31914498E+02 |    7.790
 BASOPT|        3     |       1     | 0.12287470E-02 | 0.14410024E+04 |   17.659
 BASOPT|        3     |       2     | 0.44508876E-02 | 0.38722913E+03 |   11.194
 BASOPT|        3     |       3     | 0.54436901E-02 | 0.17293781E+03 |    9.514
 BASOPT|        4     |       1     | 0.10016316E-02 | 0.91996670E+03 |    8.218
 BASOPT|        4     |       2     | 0.29989722E-02 | 0.22578694E+03 |    5.614
 BASOPT|        4     |       3     | 0.35464139E-02 | 0.11322034E+03 |    4.804
 BASOPT| -----------------------------------------------------------------------
 BASOPT| Total residuum value: -.11263475E+04

 BASOPT| Information at iteration number:    1100
 BASOPT| Training set | Combination | Rho difference | Condition num. | Time
 BASOPT| -----------------------------------------------------------------------
 BASOPT|        1     |       1     | 0.36614274E-02 | 0.55532586E+04 |  435.725
 BASOPT|        1     |       2     | 0.12600835E-01 | 0.32874026E+03 |  253.456
 BASOPT|        1     |       3     | 0.12901600E-01 | 0.10834661E+03 |  200.378
 BASOPT|        2     |       1     | 0.11354309E-02 | 0.65285858E+03 |   16.215
 BASOPT|        2     |       2     | 0.19700394E-02 | 0.25152300E+03 |   10.026
 BASOPT|        2     |       3     | 0.23121366E-02 | 0.31908986E+02 |    8.558
 BASOPT|        3     |       1     | 0.12214911E-02 | 0.14306379E+04 |   19.423
 BASOPT|        3     |       2     | 0.44560707E-02 | 0.38749107E+03 |   12.315
 BASOPT|        3     |       3     | 0.54422246E-02 | 0.17413504E+03 |   10.465
 BASOPT|        4     |       1     | 0.99732433E-03 | 0.91273255E+03 |    9.039
 BASOPT|        4     |       2     | 0.29978165E-02 | 0.22589844E+03 |    6.176
 BASOPT|        4     |       3     | 0.35416652E-02 | 0.11369180E+03 |    5.293
 BASOPT| -----------------------------------------------------------------------
 BASOPT| Total residuum value: -.11263495E+04

 BASOPT| Information at iteration number:    1200
 BASOPT| Training set | Combination | Rho difference | Condition num. | Time
 BASOPT| -----------------------------------------------------------------------
 BASOPT|        1     |       1     | 0.36643559E-02 | 0.54448601E+04 |  475.329
 BASOPT|        1     |       2     | 0.12581181E-01 | 0.32563360E+03 |  276.486
 BASOPT|        1     |       3     | 0.12886404E-01 | 0.10846497E+03 |  218.595
 BASOPT|        2     |       1     | 0.11357212E-02 | 0.64856216E+03 |   17.704
 BASOPT|        2     |       2     | 0.19725484E-02 | 0.25115368E+03 |   10.934
 BASOPT|        2     |       3     | 0.23110133E-02 | 0.31916256E+02 |    9.327
 BASOPT|        3     |       1     | 0.12126637E-02 | 0.14205574E+04 |   21.186
 BASOPT|        3     |       2     | 0.44582569E-02 | 0.38719744E+03 |   13.437
 BASOPT|        3     |       3     | 0.54418370E-02 | 0.17394995E+03 |   11.415
 BASOPT|        4     |       1     | 0.99316021E-03 | 0.90728777E+03 |    9.860
 BASOPT|        4     |       2     | 0.29997187E-02 | 0.22531630E+03 |    6.739
 BASOPT|        4     |       3     | 0.35424045E-02 | 0.11372268E+03 |    5.781
 BASOPT| -----------------------------------------------------------------------
 BASOPT| Total residuum value: -.11263507E+04

 BASOPT| Information at iteration number:    1300
 BASOPT| Training set | Combination | Rho difference | Condition num. | Time
 BASOPT| -----------------------------------------------------------------------
 BASOPT|        1     |       1     | 0.36739318E-02 | 0.52658072E+04 |  514.963
 BASOPT|        1     |       2     | 0.12611065E-01 | 0.32709560E+03 |  299.513
 BASOPT|        1     |       3     | 0.12897001E-01 | 0.10827422E+03 |  236.805
 BASOPT|        2     |       1     | 0.11336600E-02 | 0.64554683E+03 |   19.195
 BASOPT|        2     |       2     | 0.19685180E-02 | 0.25157634E+03 |   11.844
 BASOPT|        2     |       3     | 0.23130476E-02 | 0.31899500E+02 |   10.095
 BASOPT|        3     |       1     | 0.12059182E-02 | 0.14068412E+04 |   22.950
 BASOPT|        3     |       2     | 0.44524698E-02 | 0.38781493E+03 |   14.559
 BASOPT|        3     |       3     | 0.54547899E-02 | 0.17404870E+03 |   12.366
 BASOPT|        4     |       1     | 0.98936214E-03 | 0.90051288E+03 |   10.681
 BASOPT|        4     |       2     | 0.29954938E-02 | 0.22573822E+03 |    7.306
 BASOPT|        4     |       3     | 0.35461324E-02 | 0.11387231E+03 |    6.270
 BASOPT| -----------------------------------------------------------------------
 BASOPT| Total residuum value: -.11263521E+04

 BASOPT| Information at iteration number:    1400
 BASOPT| Training set | Combination | Rho difference | Condition num. | Time
 BASOPT| -----------------------------------------------------------------------
 BASOPT|        1     |       1     | 0.36808158E-02 | 0.50827826E+04 |  554.615
 BASOPT|        1     |       2     | 0.12595440E-01 | 0.32672414E+03 |  322.544
 BASOPT|        1     |       3     | 0.12895170E-01 | 0.10902836E+03 |  255.025
 BASOPT|        2     |       1     | 0.11334052E-02 | 0.64134165E+03 |   20.680
 BASOPT|        2     |       2     | 0.19704629E-02 | 0.25219317E+03 |   12.753
 BASOPT|        2     |       3     | 0.23075581E-02 | 0.31907250E+02 |   10.863
 BASOPT|        3     |       1     | 0.12012565E-02 | 0.13927110E+04 |   24.714
 BASOPT|        3     |       2     | 0.44575601E-02 | 0.38911813E+03 |   15.681
 BASOPT|        3     |       3     | 0.54489896E-02 | 0.17456804E+03 |   13.316
 BASOPT|        4     |       1     | 0.98658176E-03 | 0.89357023E+03 |   11.502
 BASOPT|        4     |       2     | 0.29951100E-02 | 0.22646117E+03 |    7.871
 BASOPT|        4     |       3     | 0.35377597E-02 | 0.11428738E+03 |    6.753
 BASOPT| -----------------------------------------------------------------------
 BASOPT| Total residuum value: -.11263532E+04

 BASOPT| Information at iteration number:    1500
 BASOPT| Training set | Combination | Rho difference | Condition num. | Time
 BASOPT| -----------------------------------------------------------------------
 BASOPT|        1     |       1     | 0.36825226E-02 | 0.49645956E+04 |  594.263
 BASOPT|        1     |       2     | 0.12588585E-01 | 0.32608835E+03 |  345.578
 BASOPT|        1     |       3     | 0.12882195E-01 | 0.10905141E+03 |  273.246
 BASOPT|        2     |       1     | 0.11334962E-02 | 0.63880339E+03 |   22.170
 BASOPT|        2     |       2     | 0.19710731E-02 | 0.25209202E+03 |   13.663
 BASOPT|        2     |       3     | 0.23077041E-02 | 0.31888733E+02 |   11.631
 BASOPT|        3     |       1     | 0.11978888E-02 | 0.13820801E+04 |   26.478
 BASOPT|        3     |       2     | 0.44561482E-02 | 0.38903969E+03 |   16.802
 BASOPT|        3     |       3     | 0.54534252E-02 | 0.17446078E+03 |   14.266
 BASOPT|        4     |       1     | 0.98490370E-03 | 0.88829473E+03 |   12.323
 BASOPT|        4     |       2     | 0.29946987E-02 | 0.22611143E+03 |    8.434
 BASOPT|        4     |       3     | 0.35397484E-02 | 0.11431119E+03 |    7.243
 BASOPT| -----------------------------------------------------------------------
 BASOPT| Total residuum value: -.11263538E+04

 BASOPT| Information at iteration number:    1600
 BASOPT| Training set | Combination | Rho difference | Condition num. | Time
 BASOPT| -----------------------------------------------------------------------
 BASOPT|        1     |       1     | 0.36770342E-02 | 0.47606584E+04 |  633.902
 BASOPT|        1     |       2     | 0.12571809E-01 | 0.32447792E+03 |  368.601
 BASOPT|        1     |       3     | 0.12864683E-01 | 0.10916727E+03 |  291.454
 BASOPT|        2     |       1     | 0.11344064E-02 | 0.63601509E+03 |   23.660
 BASOPT|        2     |       2     | 0.19731270E-02 | 0.25185240E+03 |   14.579
 BASOPT|        2     |       3     | 0.23097764E-02 | 0.31886310E+02 |   12.400
 BASOPT|        3     |       1     | 0.11981732E-02 | 0.13674146E+04 |   28.242
 BASOPT|        3     |       2     | 0.44575319E-02 | 0.38868468E+03 |   17.922
 BASOPT|        3     |       3     | 0.54580151E-02 | 0.17409497E+03 |   15.217
 BASOPT|        4     |       1     | 0.98512821E-03 | 0.88138120E+03 |   13.143
 BASOPT|        4     |       2     | 0.29957685E-02 | 0.22552755E+03 |    8.993
 BASOPT|        4     |       3     | 0.35419696E-02 | 0.11430243E+03 |    7.732
 BASOPT| -----------------------------------------------------------------------
 BASOPT| Total residuum value: -.11263546E+04

 BASOPT| Information at iteration number:    1700
 BASOPT| Training set | Combination | Rho difference | Condition num. | Time
 BASOPT| -----------------------------------------------------------------------
 BASOPT|        1     |       1     | 0.36883677E-02 | 0.44503670E+04 |  673.551
 BASOPT|        1     |       2     | 0.12584255E-01 | 0.32212407E+03 |  391.628
 BASOPT|        1     |       3     | 0.12879356E-01 | 0.10886089E+03 |  309.667
 BASOPT|        2     |       1     | 0.11338856E-02 | 0.63091336E+03 |   25.152
 BASOPT|        2     |       2     | 0.19715065E-02 | 0.25149726E+03 |   15.492
 BASOPT|        2     |       3     | 0.23078259E-02 | 0.31899052E+02 |   13.168
 BASOPT|        3     |       1     | 0.11975642E-02 | 0.13454315E+04 |   30.004
 BASOPT|        3     |       2     | 0.44585691E-02 | 0.38832298E+03 |   19.041
 BASOPT|        3     |       3     | 0.54616599E-02 | 0.17325922E+03 |   16.168
 BASOPT|        4     |       1     | 0.98441824E-03 | 0.87083764E+03 |   13.964
 BASOPT|        4     |       2     | 0.29953238E-02 | 0.22483046E+03 |    9.548
 BASOPT|        4     |       3     | 0.35418144E-02 | 0.11409580E+03 |    8.220
 BASOPT| -----------------------------------------------------------------------
 BASOPT| Total residuum value: -.11263556E+04

 BASOPT| Information at iteration number:    1800
 BASOPT| Training set | Combination | Rho difference | Condition num. | Time
 BASOPT| -----------------------------------------------------------------------
 BASOPT|        1     |       1     | 0.36988248E-02 | 0.43006596E+04 |  713.186
 BASOPT|        1     |       2     | 0.12590263E-01 | 0.32134089E+03 |  414.663
 BASOPT|        1     |       3     | 0.12879297E-01 | 0.10864673E+03 |  327.881
 BASOPT|        2     |       1     | 0.11330214E-02 | 0.62696044E+03 |   26.637
 BASOPT|        2     |       2     | 0.19701367E-02 | 0.25160727E+03 |   16.405
 BASOPT|        2     |       3     | 0.23070556E-02 | 0.31872936E+02 |   13.936
 BASOPT|        3     |       1     | 0.11968571E-02 | 0.13294141E+04 |   31.768
 BASOPT|        3     |       2     | 0.44580075E-02 | 0.38867971E+03 |   20.159
 BASOPT|        3     |       3     | 0.54675891E-02 | 0.17299313E+03 |   17.118
 BASOPT|        4     |       1     | 0.98332797E-03 | 0.86286218E+03 |   14.785
 BASOPT|        4     |       2     | 0.29939576E-02 | 0.22484120E+03 |   10.104
 BASOPT|        4     |       3     | 0.35410943E-02 | 0.11389017E+03 |    8.701
 BASOPT| -----------------------------------------------------------------------
 BASOPT| Total residuum value: -.11263564E+04

 BASOPT| Information at iteration number:    1900
 BASOPT| Training set | Combination | Rho difference | Condition num. | Time
 BASOPT| -----------------------------------------------------------------------
 BASOPT|        1     |       1     | 0.36907656E-02 | 0.40420342E+04 |  752.814
 BASOPT|        1     |       2     | 0.12546358E-01 | 0.31834699E+03 |  437.692
 BASOPT|        1     |       3     | 0.12815252E-01 | 0.10914227E+03 |  346.098
 BASOPT|        2     |       1     | 0.11347934E-02 | 0.62128372E+03 |   28.121
 BASOPT|        2     |       2     | 0.19755783E-02 | 0.25131563E+03 |   17.319
 BASOPT|        2     |       3     | 0.23163870E-02 | 0.31890492E+02 |   14.704
 BASOPT|        3     |       1     | 0.12004655E-02 | 0.13076557E+04 |   33.531
 BASOPT|        3     |       2     | 0.44680703E-02 | 0.38866549E+03 |   21.278
 BASOPT|        3     |       3     | 0.54926806E-02 | 0.17369199E+03 |   18.069
 BASOPT|        4     |       1     | 0.98473119E-03 | 0.85240098E+03 |   15.606
 BASOPT|        4     |       2     | 0.29984993E-02 | 0.22450322E+03 |   10.658
 BASOPT|        4     |       3     | 0.35537510E-02 | 0.11404323E+03 |    9.179
 BASOPT| -----------------------------------------------------------------------
 BASOPT| Total residuum value: -.11263568E+04

 BASOPT| Information at iteration number:    2000
 BASOPT| Training set | Combination | Rho difference | Condition num. | Time
 BASOPT| -----------------------------------------------------------------------
 BASOPT|        1     |       1     | 0.37072637E-02 | 0.37806405E+04 |  792.448
 BASOPT|        1     |       2     | 0.12570286E-01 | 0.31455972E+03 |  460.728
 BASOPT|        1     |       3     | 0.12853258E-01 | 0.11033753E+03 |  364.322
 BASOPT|        2     |       1     | 0.11343533E-02 | 0.61720744E+03 |   29.604
 BASOPT|        2     |       2     | 0.19725097E-02 | 0.25086927E+03 |   18.231
 BASOPT|        2     |       3     | 0.23118737E-02 | 0.31835774E+02 |   15.472
 BASOPT|        3     |       1     | 0.11980300E-02 | 0.12876664E+04 |   35.295
 BASOPT|        3     |       2     | 0.44591673E-02 | 0.38803402E+03 |   22.397
 BASOPT|        3     |       3     | 0.54628201E-02 | 0.17470991E+03 |   19.019
 BASOPT|        4     |       1     | 0.98397484E-03 | 0.84333238E+03 |   16.427
 BASOPT|        4     |       2     | 0.29958825E-02 | 0.22425277E+03 |   11.216
 BASOPT|        4     |       3     | 0.35420563E-02 | 0.11432345E+03 |    9.657
 BASOPT| -----------------------------------------------------------------------
 BASOPT| Total residuum value: -.11263580E+04

 BASOPT| Information at iteration number:    2100
 BASOPT| Training set | Combination | Rho difference | Condition num. | Time
 BASOPT| -----------------------------------------------------------------------
 BASOPT|        1     |       1     | 0.37178943E-02 | 0.35491472E+04 |  832.083
 BASOPT|        1     |       2     | 0.12610891E-01 | 0.31235951E+03 |  483.756
 BASOPT|        1     |       3     | 0.12902104E-01 | 0.11129918E+03 |  382.553
 BASOPT|        2     |       1     | 0.11332659E-02 | 0.61360492E+03 |   31.089
 BASOPT|        2     |       2     | 0.19691780E-02 | 0.25092855E+03 |   19.141
 BASOPT|        2     |       3     | 0.23185137E-02 | 0.31899398E+02 |   16.239
 BASOPT|        3     |       1     | 0.12033355E-02 | 0.12741321E+04 |   37.058
 BASOPT|        3     |       2     | 0.44667309E-02 | 0.38834882E+03 |   23.515
 BASOPT|        3     |       3     | 0.54720304E-02 | 0.17603907E+03 |   19.969
 BASOPT|        4     |       1     | 0.98643317E-03 | 0.83739503E+03 |   17.247
 BASOPT|        4     |       2     | 0.29957131E-02 | 0.22498622E+03 |   11.776
 BASOPT|        4     |       3     | 0.35468314E-02 | 0.11494081E+03 |   10.135
 BASOPT| -----------------------------------------------------------------------
 BASOPT| Total residuum value: -.11263571E+04

 BASOPT| Information at iteration number:    2200
 BASOPT| Training set | Combination | Rho difference | Condition num. | Time
 BASOPT| -----------------------------------------------------------------------
 BASOPT|        1     |       1     | 0.37220222E-02 | 0.34551776E+04 |  871.729
 BASOPT|        1     |       2     | 0.12601225E-01 | 0.31107918E+03 |  506.793
 BASOPT|        1     |       3     | 0.12908984E-01 | 0.11148233E+03 |  400.774
 BASOPT|        2     |       1     | 0.11332981E-02 | 0.61262629E+03 |   32.571
 BASOPT|        2     |       2     | 0.19698077E-02 | 0.25094035E+03 |   20.053
 BASOPT|        2     |       3     | 0.23069960E-02 | 0.31888134E+02 |   17.007
 BASOPT|        3     |       1     | 0.12032107E-02 | 0.12668839E+04 |   38.821
 BASOPT|        3     |       2     | 0.44654012E-02 | 0.38861409E+03 |   24.633
 BASOPT|        3     |       3     | 0.54523912E-02 | 0.17563692E+03 |   20.919
 BASOPT|        4     |       1     | 0.98656335E-03 | 0.83483173E+03 |   18.068
 BASOPT|        4     |       2     | 0.29946377E-02 | 0.22486164E+03 |   12.337
 BASOPT|        4     |       3     | 0.35350667E-02 | 0.11494862E+03 |   10.613
 BASOPT| -----------------------------------------------------------------------
 BASOPT| Total residuum value: -.11263584E+04

 BASOPT| Information at iteration number:    2300
 BASOPT| Training set | Combination | Rho difference | Condition num. | Time
 BASOPT| -----------------------------------------------------------------------
 BASOPT|        1     |       1     | 0.37076700E-02 | 0.33192014E+04 |  911.373
 BASOPT|        1     |       2     | 0.12555287E-01 | 0.30918668E+03 |  529.843
 BASOPT|        1     |       3     | 0.12839679E-01 | 0.11200643E+03 |  419.001
 BASOPT|        2     |       1     | 0.11354157E-02 | 0.61138084E+03 |   34.055
 BASOPT|        2     |       2     | 0.19748934E-02 | 0.25028166E+03 |   20.963
 BASOPT|        2     |       3     | 0.23152615E-02 | 0.31867417E+02 |   17.774
 BASOPT|        3     |       1     | 0.12022399E-02 | 0.12547238E+04 |   40.590
 BASOPT|        3     |       2     | 0.44638772E-02 | 0.38777354E+03 |   25.752
 BASOPT|        3     |       3     | 0.54643001E-02 | 0.17612115E+03 |   21.869
 BASOPT|        4     |       1     | 0.98688624E-03 | 0.83005474E+03 |   18.888
 BASOPT|        4     |       2     | 0.29973867E-02 | 0.22362870E+03 |   12.899
 BASOPT|        4     |       3     | 0.35460338E-02 | 0.11507956E+03 |   11.091
 BASOPT| -----------------------------------------------------------------------
 BASOPT| Total residuum value: -.11263592E+04

 BASOPT| Information at iteration number:    2400
 BASOPT| Training set | Combination | Rho difference | Condition num. | Time
 BASOPT| -----------------------------------------------------------------------
 BASOPT|        1     |       1     | 0.37075668E-02 | 0.32213790E+04 |  951.015
 BASOPT|        1     |       2     | 0.12551634E-01 | 0.30709784E+03 |  552.898
 BASOPT|        1     |       3     | 0.12835946E-01 | 0.11134132E+03 |  437.229
 BASOPT|        2     |       1     | 0.11354795E-02 | 0.61038265E+03 |   35.541
 BASOPT|        2     |       2     | 0.19752776E-02 | 0.24945230E+03 |   21.873
 BASOPT|        2     |       3     | 0.23151407E-02 | 0.31890958E+02 |   18.542
 BASOPT|        3     |       1     | 0.12033428E-02 | 0.12450839E+04 |   42.359
 BASOPT|        3     |       2     | 0.44678307E-02 | 0.38655404E+03 |   26.870
 BASOPT|        3     |       3     | 0.54704782E-02 | 0.17468396E+03 |   22.818
 BASOPT|        4     |       1     | 0.98759712E-03 | 0.82641147E+03 |   19.708
 BASOPT|        4     |       2     | 0.30002752E-02 | 0.22221945E+03 |   13.460
 BASOPT|        4     |       3     | 0.35490284E-02 | 0.11451496E+03 |   11.569
 BASOPT| -----------------------------------------------------------------------
 BASOPT| Total residuum value: -.11263595E+04

 BASOPT| Information at iteration number:    2500
 BASOPT| Training set | Combination | Rho difference | Condition num. | Time
 BASOPT| -----------------------------------------------------------------------
 BASOPT|        1     |       1     | 0.37169996E-02 | 0.30701224E+04 |  990.651
 BASOPT|        1     |       2     | 0.12578673E-01 | 0.30624399E+03 |  575.942
 BASOPT|        1     |       3     | 0.12866952E-01 | 0.11059461E+03 |  455.451
 BASOPT|        2     |       1     | 0.11340565E-02 | 0.60890442E+03 |   37.025
 BASOPT|        2     |       2     | 0.19715688E-02 | 0.24899783E+03 |   22.784
 BASOPT|        2     |       3     | 0.23122415E-02 | 0.31892498E+02 |   19.309
 BASOPT|        3     |       1     | 0.12038383E-02 | 0.12310698E+04 |   44.131
 BASOPT|        3     |       2     | 0.44648228E-02 | 0.38569378E+03 |   27.988
 BASOPT|        3     |       3     | 0.54658935E-02 | 0.17331871E+03 |   23.768
 BASOPT|        4     |       1     | 0.98812829E-03 | 0.82065723E+03 |   20.529
 BASOPT|        4     |       2     | 0.29994968E-02 | 0.22149295E+03 |   14.020
 BASOPT|        4     |       3     | 0.35454057E-02 | 0.11394331E+03 |   12.047
 BASOPT| -----------------------------------------------------------------------
 BASOPT| Total residuum value: -.11263603E+04

 BASOPT| Information at iteration number:    2600
 BASOPT| Training set | Combination | Rho difference | Condition num. | Time
 BASOPT| -----------------------------------------------------------------------
 BASOPT|        1     |       1     | 0.37326950E-02 | 0.29760592E+04 | 1030.306
 BASOPT|        1     |       2     | 0.12610909E-01 | 0.30339619E+03 |  598.982
 BASOPT|        1     |       3     | 0.12904146E-01 | 0.11147779E+03 |  473.689
 BASOPT|        2     |       1     | 0.11326628E-02 | 0.60625427E+03 |   38.509
 BASOPT|        2     |       2     | 0.19674662E-02 | 0.24875781E+03 |   23.695
 BASOPT|        2     |       3     | 0.23098592E-02 | 0.31873342E+02 |   20.076
 BASOPT|        3     |       1     | 0.12040843E-02 | 0.12211404E+04 |   45.903
 BASOPT|        3     |       2     | 0.44596666E-02 | 0.38572438E+03 |   29.106
 BASOPT|        3     |       3     | 0.54527358E-02 | 0.17451339E+03 |   24.718
 BASOPT|        4     |       1     | 0.98837021E-03 | 0.81608092E+03 |   21.350
 BASOPT|        4     |       2     | 0.29966904E-02 | 0.22145147E+03 |   14.581
 BASOPT|        4     |       3     | 0.35401704E-02 | 0.11424835E+03 |   12.525
 BASOPT| -----------------------------------------------------------------------
 BASOPT| Total residuum value: -.11263605E+04

 BASOPT| Information at iteration number:    2700
 BASOPT| Training set | Combination | Rho difference | Condition num. | Time
 BASOPT| -----------------------------------------------------------------------
 BASOPT|        1     |       1     | 0.37297100E-02 | 0.28916767E+04 | 1069.951
 BASOPT|        1     |       2     | 0.12586644E-01 | 0.30106216E+03 |  622.033
 BASOPT|        1     |       3     | 0.12880204E-01 | 0.11236486E+03 |  491.943
 BASOPT|        2     |       1     | 0.11337168E-02 | 0.60281008E+03 |   39.994
 BASOPT|        2     |       2     | 0.19704852E-02 | 0.24887102E+03 |   24.603
 BASOPT|        2     |       3     | 0.23129513E-02 | 0.31898731E+02 |   20.844
 BASOPT|        3     |       1     | 0.12071855E-02 | 0.12137764E+04 |   47.671
 BASOPT|        3     |       2     | 0.44658743E-02 | 0.38648444E+03 |   30.224
 BASOPT|        3     |       3     | 0.54544042E-02 | 0.17580758E+03 |   25.668
 BASOPT|        4     |       1     | 0.98996017E-03 | 0.81227561E+03 |   22.170
 BASOPT|        4     |       2     | 0.29984932E-02 | 0.22185307E+03 |   15.141
 BASOPT|        4     |       3     | 0.35410774E-02 | 0.11470093E+03 |   13.003
 BASOPT| -----------------------------------------------------------------------
 BASOPT| Total residuum value: -.11263609E+04

 BASOPT| Information at iteration number:    2800
 BASOPT| Training set | Combination | Rho difference | Condition num. | Time
 BASOPT| -----------------------------------------------------------------------
 BASOPT|        1     |       1     | 0.37235919E-02 | 0.27573023E+04 | 1109.590
 BASOPT|        1     |       2     | 0.12560847E-01 | 0.30050438E+03 |  645.102
 BASOPT|        1     |       3     | 0.12852875E-01 | 0.11189509E+03 |  510.209
 BASOPT|        2     |       1     | 0.11348908E-02 | 0.60029423E+03 |   41.477
 BASOPT|        2     |       2     | 0.19736936E-02 | 0.24894429E+03 |   25.497
 BASOPT|        2     |       3     | 0.23155326E-02 | 0.31953351E+02 |   21.611
 BASOPT|        3     |       1     | 0.12108254E-02 | 0.12053095E+04 |   49.444
 BASOPT|        3     |       2     | 0.44718704E-02 | 0.38692201E+03 |   31.341
 BASOPT|        3     |       3     | 0.54658325E-02 | 0.17537302E+03 |   26.619
 BASOPT|        4     |       1     | 0.99223244E-03 | 0.80857883E+03 |   22.991
 BASOPT|        4     |       2     | 0.30004389E-02 | 0.22195744E+03 |   15.703
 BASOPT|        4     |       3     | 0.35461378E-02 | 0.11473847E+03 |   13.481
 BASOPT| -----------------------------------------------------------------------
 BASOPT| Total residuum value: -.11263613E+04

 BASOPT| Information at iteration number:    2900
 BASOPT| Training set | Combination | Rho difference | Condition num. | Time
 BASOPT| -----------------------------------------------------------------------
 BASOPT|        1     |       1     | 0.37342207E-02 | 0.26313464E+04 | 1149.227
 BASOPT|        1     |       2     | 0.12577379E-01 | 0.30115573E+03 |  668.164
 BASOPT|        1     |       3     | 0.12875193E-01 | 0.11123558E+03 |  528.476
 BASOPT|        2     |       1     | 0.11336887E-02 | 0.59798706E+03 |   42.960
 BASOPT|        2     |       2     | 0.19709965E-02 | 0.24922457E+03 |   26.392
 BASOPT|        2     |       3     | 0.23116597E-02 | 0.31934900E+02 |   22.379
 BASOPT|        3     |       1     | 0.12115190E-02 | 0.11905129E+04 |   51.211
 BASOPT|        3     |       2     | 0.44675293E-02 | 0.38726114E+03 |   32.458
 BASOPT|        3     |       3     | 0.54654892E-02 | 0.17432722E+03 |   27.569
 BASOPT|        4     |       1     | 0.99293541E-03 | 0.80194937E+03 |   23.811
 BASOPT|        4     |       2     | 0.29975138E-02 | 0.22216079E+03 |   16.263
 BASOPT|        4     |       3     | 0.35421724E-02 | 0.11441516E+03 |   13.959
 BASOPT| -----------------------------------------------------------------------
 BASOPT| Total residuum value: -.11263616E+04

 BASOPT| Information at iteration number:    3000
 BASOPT| Training set | Combination | Rho difference | Condition num. | Time
 BASOPT| -----------------------------------------------------------------------
 BASOPT|        1     |       1     | 0.37371268E-02 | 0.24817967E+04 | 1188.848
 BASOPT|        1     |       2     | 0.12555285E-01 | 0.29910757E+03 |  691.225
 BASOPT|        1     |       3     | 0.12846296E-01 | 0.11220883E+03 |  546.740
 BASOPT|        2     |       1     | 0.11347240E-02 | 0.59346500E+03 |   44.444
 BASOPT|        2     |       2     | 0.19737448E-02 | 0.24936325E+03 |   27.287
 BASOPT|        2     |       3     | 0.23133141E-02 | 0.31936471E+02 |   23.146
 BASOPT|        3     |       1     | 0.12137051E-02 | 0.11726924E+04 |   52.975
 BASOPT|        3     |       2     | 0.44711897E-02 | 0.38791111E+03 |   33.575
 BASOPT|        3     |       3     | 0.54695623E-02 | 0.17529630E+03 |   28.519
 BASOPT|        4     |       1     | 0.99468294E-03 | 0.79371120E+03 |   24.632
 BASOPT|        4     |       2     | 0.29984973E-02 | 0.22234533E+03 |   16.819
 BASOPT|        4     |       3     | 0.35438377E-02 | 0.11480914E+03 |   14.437
 BASOPT| -----------------------------------------------------------------------
 BASOPT| Total residuum value: -.11263623E+04

 BASOPT| Information at iteration number:    3100
 BASOPT| Training set | Combination | Rho difference | Condition num. | Time
 BASOPT| -----------------------------------------------------------------------
 BASOPT|        1     |       1     | 0.37563975E-02 | 0.23065548E+04 | 1228.478
 BASOPT|        1     |       2     | 0.12563974E-01 | 0.29802175E+03 |  714.286
 BASOPT|        1     |       3     | 0.12852502E-01 | 0.11208933E+03 |  565.018
 BASOPT|        2     |       1     | 0.11343042E-02 | 0.58788843E+03 |   45.927
 BASOPT|        2     |       2     | 0.19722448E-02 | 0.24954006E+03 |   28.183
 BASOPT|        2     |       3     | 0.23103093E-02 | 0.31921209E+02 |   23.914
 BASOPT|        3     |       1     | 0.12136405E-02 | 0.11504081E+04 |   54.740
 BASOPT|        3     |       2     | 0.44679303E-02 | 0.38847726E+03 |   34.693
 BASOPT|        3     |       3     | 0.54730118E-02 | 0.17503370E+03 |   29.469
 BASOPT|        4     |       1     | 0.99569266E-03 | 0.78311561E+03 |   25.453
 BASOPT|        4     |       2     | 0.29956131E-02 | 0.22247928E+03 |   17.376
 BASOPT|        4     |       3     | 0.35439348E-02 | 0.11486779E+03 |   14.915
 BASOPT| -----------------------------------------------------------------------
 BASOPT| Total residuum value: -.11263629E+04

 BASOPT| Information at iteration number:    3200
 BASOPT| Training set | Combination | Rho difference | Condition num. | Time
 BASOPT| -----------------------------------------------------------------------
 BASOPT|        1     |       1     | 0.37539207E-02 | 0.21820174E+04 | 1268.120
 BASOPT|        1     |       2     | 0.12538998E-01 | 0.29795239E+03 |  737.352
 BASOPT|        1     |       3     | 0.12824111E-01 | 0.11267558E+03 |  583.292
 BASOPT|        2     |       1     | 0.11356026E-02 | 0.58395673E+03 |   47.410
 BASOPT|        2     |       2     | 0.19754837E-02 | 0.24991198E+03 |   29.084
 BASOPT|        2     |       3     | 0.23156772E-02 | 0.31931889E+02 |   24.681
 BASOPT|        3     |       1     | 0.12165457E-02 | 0.11353776E+04 |   56.506
 BASOPT|        3     |       2     | 0.44719432E-02 | 0.38913415E+03 |   35.810
 BASOPT|        3     |       3     | 0.54796968E-02 | 0.17576249E+03 |   30.418
 BASOPT|        4     |       1     | 0.99792278E-03 | 0.77578980E+03 |   26.274
 BASOPT|        4     |       2     | 0.29970322E-02 | 0.22304435E+03 |   17.933
 BASOPT|        4     |       3     | 0.35471474E-02 | 0.11514208E+03 |   15.393
 BASOPT| -----------------------------------------------------------------------
 BASOPT| Total residuum value: -.11263630E+04

 BASOPT| Information at iteration number:    3300
 BASOPT| Training set | Combination | Rho difference | Condition num. | Time
 BASOPT| -----------------------------------------------------------------------
 BASOPT|        1     |       1     | 0.37619703E-02 | 0.20312733E+04 | 1307.766
 BASOPT|        1     |       2     | 0.12526344E-01 | 0.29612573E+03 |  760.415
 BASOPT|        1     |       3     | 0.12811483E-01 | 0.11154733E+03 |  601.557
 BASOPT|        2     |       1     | 0.11363983E-02 | 0.57973694E+03 |   48.893
 BASOPT|        2     |       2     | 0.19769782E-02 | 0.24927904E+03 |   30.003
 BASOPT|        2     |       3     | 0.23138526E-02 | 0.31952852E+02 |   25.449
 BASOPT|        3     |       1     | 0.12173286E-02 | 0.11161677E+04 |   58.271
 BASOPT|        3     |       2     | 0.44744433E-02 | 0.38828402E+03 |   36.927
 BASOPT|        3     |       3     | 0.54871946E-02 | 0.17398897E+03 |   31.368
 BASOPT|        4     |       1     | 0.99967848E-03 | 0.76704986E+03 |   27.095
 BASOPT|        4     |       2     | 0.29991515E-02 | 0.22203360E+03 |   18.488
 BASOPT|        4     |       3     | 0.35513991E-02 | 0.11457635E+03 |   15.871
 BASOPT| -----------------------------------------------------------------------
 BASOPT| Total residuum value: -.11263633E+04

 BASOPT| Information at iteration number:    3400
 BASOPT| Training set | Combination | Rho difference | Condition num. | Time
 BASOPT| -----------------------------------------------------------------------
 BASOPT|        1     |       1     | 0.37719607E-02 | 0.19694675E+04 | 1347.412
 BASOPT|        1     |       2     | 0.12547626E-01 | 0.29639298E+03 |  783.492
 BASOPT|        1     |       3     | 0.12841417E-01 | 0.11126739E+03 |  619.823
 BASOPT|        2     |       1     | 0.11349330E-02 | 0.57731086E+03 |   50.377
 BASOPT|        2     |       2     | 0.19743067E-02 | 0.24961153E+03 |   30.915
 BASOPT|        2     |       3     | 0.23086674E-02 | 0.31960547E+02 |   26.216
 BASOPT|        3     |       1     | 0.12191426E-02 | 0.11074703E+04 |   60.034
 BASOPT|        3     |       2     | 0.44765285E-02 | 0.38881892E+03 |   38.045
 BASOPT|        3     |       3     | 0.54838155E-02 | 0.17349258E+03 |   32.318
 BASOPT|        4     |       1     | 0.10007785E-02 | 0.76277629E+03 |   27.916
 BASOPT|        4     |       2     | 0.29975480E-02 | 0.22258859E+03 |   19.043
 BASOPT|        4     |       3     | 0.35447571E-02 | 0.11443131E+03 |   16.349
 BASOPT| -----------------------------------------------------------------------
 BASOPT| Total residuum value: -.11263640E+04

 BASOPT| Information at iteration number:    3500
 BASOPT| Training set | Combination | Rho difference | Condition num. | Time
 BASOPT| -----------------------------------------------------------------------
 BASOPT|        1     |       1     | 0.37823759E-02 | 0.18986600E+04 | 1387.077
 BASOPT|        1     |       2     | 0.12550073E-01 | 0.29593105E+03 |  806.557
 BASOPT|        1     |       3     | 0.12841748E-01 | 0.11077783E+03 |  638.088
 BASOPT|        2     |       1     | 0.11347134E-02 | 0.57402631E+03 |   51.859
 BASOPT|        2     |       2     | 0.19734935E-02 | 0.24940204E+03 |   31.830
 BASOPT|        2     |       3     | 0.23071041E-02 | 0.31942249E+02 |   26.984
 BASOPT|        3     |       1     | 0.12195477E-02 | 0.10940353E+04 |   61.797
 BASOPT|        3     |       2     | 0.44747376E-02 | 0.38858041E+03 |   39.162
 BASOPT|        3     |       3     | 0.54882334E-02 | 0.17278531E+03 |   33.268
 BASOPT|        4     |       1     | 0.10016814E-02 | 0.75640951E+03 |   28.736
 BASOPT|        4     |       2     | 0.29965785E-02 | 0.22223411E+03 |   19.599
 BASOPT|        4     |       3     | 0.35461682E-02 | 0.11419065E+03 |   16.827
 BASOPT| -----------------------------------------------------------------------
 BASOPT| Total residuum value: -.11263642E+04

 BASOPT| Information at iteration number:    3600
 BASOPT| Training set | Combination | Rho difference | Condition num. | Time
 BASOPT| -----------------------------------------------------------------------
 BASOPT|        1     |       1     | 0.38102906E-02 | 0.18209839E+04 | 1426.729
 BASOPT|        1     |       2     | 0.12592292E-01 | 0.29440312E+03 |  829.607
 BASOPT|        1     |       3     | 0.12925611E-01 | 0.11190233E+03 |  656.339
 BASOPT|        2     |       1     | 0.11328078E-02 | 0.57023461E+03 |   53.343
 BASOPT|        2     |       2     | 0.19682149E-02 | 0.24938180E+03 |   32.740
 BASOPT|        2     |       3     | 0.22972432E-02 | 0.31905275E+02 |   27.751
 BASOPT|        3     |       1     | 0.12186870E-02 | 0.10794241E+04 |   63.559
 BASOPT|        3     |       2     | 0.44692958E-02 | 0.38878166E+03 |   40.278
 BASOPT|        3     |       3     | 0.54565950E-02 | 0.17365157E+03 |   34.217
 BASOPT|        4     |       1     | 0.10020886E-02 | 0.74963050E+03 |   29.557
 BASOPT|        4     |       2     | 0.29926590E-02 | 0.22239723E+03 |   20.156
 BASOPT|        4     |       3     | 0.35300726E-02 | 0.11444180E+03 |   17.304
 BASOPT| -----------------------------------------------------------------------
 BASOPT| Total residuum value: -.11263632E+04

 BASOPT| Information at iteration number:    3700
 BASOPT| Training set | Combination | Rho difference | Condition num. | Time
 BASOPT| -----------------------------------------------------------------------
 BASOPT|        1     |       1     | 0.38024337E-02 | 0.17681719E+04 | 1466.415
 BASOPT|        1     |       2     | 0.12563030E-01 | 0.29305111E+03 |  852.686
 BASOPT|        1     |       3     | 0.12869367E-01 | 0.11313268E+03 |  674.585
 BASOPT|        2     |       1     | 0.11340459E-02 | 0.56728515E+03 |   54.828
 BASOPT|        2     |       2     | 0.19719603E-02 | 0.24927734E+03 |   33.658
 BASOPT|        2     |       3     | 0.23067722E-02 | 0.31909670E+02 |   28.518
 BASOPT|        3     |       1     | 0.12212994E-02 | 0.10693428E+04 |   65.321
 BASOPT|        3     |       2     | 0.44765722E-02 | 0.38900892E+03 |   41.395
 BASOPT|        3     |       3     | 0.54729110E-02 | 0.17521852E+03 |   35.166
 BASOPT|        4     |       1     | 0.10038936E-02 | 0.74517034E+03 |   30.377
 BASOPT|        4     |       2     | 0.29954162E-02 | 0.22228612E+03 |   20.712
 BASOPT|        4     |       3     | 0.35385238E-02 | 0.11497639E+03 |   17.781
 BASOPT| -----------------------------------------------------------------------
 BASOPT| Total residuum value: -.11263644E+04

 BASOPT| Information at iteration number:    3800
 BASOPT| Training set | Combination | Rho difference | Condition num. | Time
 BASOPT| -----------------------------------------------------------------------
 BASOPT|        1     |       1     | 0.37995267E-02 | 0.17139138E+04 | 1506.077
 BASOPT|        1     |       2     | 0.12536902E-01 | 0.29215497E+03 |  875.757
 BASOPT|        1     |       3     | 0.12829430E-01 | 0.11390497E+03 |  692.837
 BASOPT|        2     |       1     | 0.11348109E-02 | 0.56433506E+03 |   56.313
 BASOPT|        2     |       2     | 0.19751874E-02 | 0.24936482E+03 |   34.573
 BASOPT|        2     |       3     | 0.23105472E-02 | 0.31916868E+02 |   29.284
 BASOPT|        3     |       1     | 0.12216886E-02 | 0.10588655E+04 |   67.081
 BASOPT|        3     |       2     | 0.44821809E-02 | 0.38950087E+03 |   42.511
 BASOPT|        3     |       3     | 0.54847001E-02 | 0.17609901E+03 |   36.114
 BASOPT|        4     |       1     | 0.10047081E-02 | 0.74065199E+03 |   31.196
 BASOPT|        4     |       2     | 0.29971326E-02 | 0.22243213E+03 |   21.265
 BASOPT|        4     |       3     | 0.35446265E-02 | 0.11534630E+03 |   18.258
 BASOPT| -----------------------------------------------------------------------
 BASOPT| Total residuum value: -.11263649E+04

 BASOPT| Information at iteration number:    3900
 BASOPT| Training set | Combination | Rho difference | Condition num. | Time
 BASOPT| -----------------------------------------------------------------------
 BASOPT|        1     |       1     | 0.37980855E-02 | 0.16778962E+04 | 1545.764
 BASOPT|        1     |       2     | 0.12527001E-01 | 0.29221555E+03 |  898.839
 BASOPT|        1     |       3     | 0.12823165E-01 | 0.11334552E+03 |  711.092
 BASOPT|        2     |       1     | 0.11350530E-02 | 0.56311203E+03 |   57.799
 BASOPT|        2     |       2     | 0.19762702E-02 | 0.24936666E+03 |   35.494
 BASOPT|        2     |       3     | 0.23102626E-02 | 0.31931475E+02 |   30.051
 BASOPT|        3     |       1     | 0.12218156E-02 | 0.10536567E+04 |   68.840
 BASOPT|        3     |       2     | 0.44835763E-02 | 0.38948988E+03 |   43.628
 BASOPT|        3     |       3     | 0.54877574E-02 | 0.17526010E+03 |   37.062
 BASOPT|        4     |       1     | 0.10053189E-02 | 0.73832730E+03 |   32.015
 BASOPT|        4     |       2     | 0.29975670E-02 | 0.22241955E+03 |   21.823
 BASOPT|        4     |       3     | 0.35453331E-02 | 0.11516311E+03 |   18.735
 BASOPT| -----------------------------------------------------------------------
 BASOPT| Total residuum value: -.11263651E+04

 BASOPT| Information at iteration number:    4000
 BASOPT| Training set | Combination | Rho difference | Condition num. | Time
 BASOPT| -----------------------------------------------------------------------
 BASOPT|        1     |       1     | 0.38032042E-02 | 0.16580907E+04 | 1585.455
 BASOPT|        1     |       2     | 0.12538504E-01 | 0.29174289E+03 |  921.926
 BASOPT|        1     |       3     | 0.12835317E-01 | 0.11303364E+03 |  729.352
 BASOPT|        2     |       1     | 0.11344536E-02 | 0.56266386E+03 |   59.286
 BASOPT|        2     |       2     | 0.19748282E-02 | 0.24920075E+03 |   36.420
 BASOPT|        2     |       3     | 0.23095016E-02 | 0.31932850E+02 |   30.818
 BASOPT|        3     |       1     | 0.12207850E-02 | 0.10512801E+04 |   70.599
 BASOPT|        3     |       2     | 0.44821615E-02 | 0.38925679E+03 |   44.745
 BASOPT|        3     |       3     | 0.54881442E-02 | 0.17487140E+03 |   38.010
 BASOPT|        4     |       1     | 0.10051026E-02 | 0.73730176E+03 |   32.834
 BASOPT|        4     |       2     | 0.29967542E-02 | 0.22220130E+03 |   22.383
 BASOPT|        4     |       3     | 0.35455862E-02 | 0.11505662E+03 |   19.212
 BASOPT| -----------------------------------------------------------------------
 BASOPT| Total residuum value: -.11263651E+04

 BASOPT| Information at iteration number:    4100
 BASOPT| Training set | Combination | Rho difference | Condition num. | Time
 BASOPT| -----------------------------------------------------------------------
 BASOPT|        1     |       1     | 0.37924156E-02 | 0.16290367E+04 | 1625.192
 BASOPT|        1     |       2     | 0.12500276E-01 | 0.29006822E+03 |  944.997
 BASOPT|        1     |       3     | 0.12799924E-01 | 0.11270933E+03 |  747.610
 BASOPT|        2     |       1     | 0.11361656E-02 | 0.56162413E+03 |   60.773
 BASOPT|        2     |       2     | 0.19794396E-02 | 0.24850126E+03 |   37.347
 BASOPT|        2     |       3     | 0.23115042E-02 | 0.31942389E+02 |   31.584
 BASOPT|        3     |       1     | 0.12200527E-02 | 0.10455801E+04 |   72.360
 BASOPT|        3     |       2     | 0.44861930E-02 | 0.38828392E+03 |   45.862
 BASOPT|        3     |       3     | 0.54903995E-02 | 0.17409874E+03 |   38.959
 BASOPT|        4     |       1     | 0.10053417E-02 | 0.73501903E+03 |   33.654
 BASOPT|        4     |       2     | 0.30009538E-02 | 0.22121421E+03 |   22.943
 BASOPT|        4     |       3     | 0.35492379E-02 | 0.11473383E+03 |   19.689
 BASOPT| -----------------------------------------------------------------------
 BASOPT| Total residuum value: -.11263649E+04

 BASOPT| Information at iteration number:    4200
 BASOPT| Training set | Combination | Rho difference | Condition num. | Time
 BASOPT| -----------------------------------------------------------------------
 BASOPT|        1     |       1     | 0.38041501E-02 | 0.16061859E+04 | 1664.887
 BASOPT|        1     |       2     | 0.12526579E-01 | 0.28917027E+03 |  968.068
 BASOPT|        1     |       3     | 0.12825447E-01 | 0.11273665E+03 |  765.865
 BASOPT|        2     |       1     | 0.11346016E-02 | 0.56049216E+03 |   62.261
 BASOPT|        2     |       2     | 0.19758887E-02 | 0.24810289E+03 |   38.262
 BASOPT|        2     |       3     | 0.23114277E-02 | 0.31929065E+02 |   32.351
 BASOPT|        3     |       1     | 0.12187488E-02 | 0.10398190E+04 |   74.121
 BASOPT|        3     |       2     | 0.44844112E-02 | 0.38769995E+03 |   46.978
 BASOPT|        3     |       3     | 0.54867125E-02 | 0.17408052E+03 |   39.908
 BASOPT|        4     |       1     | 0.10048730E-02 | 0.73259400E+03 |   34.473
 BASOPT|        4     |       2     | 0.30000399E-02 | 0.22078762E+03 |   23.504
 BASOPT|        4     |       3     | 0.35468321E-02 | 0.11456322E+03 |   20.167
 BASOPT| -----------------------------------------------------------------------
 BASOPT| Total residuum value: -.11263654E+04

 BASOPT| Information at iteration number:    4300
 BASOPT| Training set | Combination | Rho difference | Condition num. | Time
 BASOPT| -----------------------------------------------------------------------
 BASOPT|        1     |       1     | 0.38115641E-02 | 0.15708304E+04 | 1704.566
 BASOPT|        1     |       2     | 0.12536585E-01 | 0.28841447E+03 |  991.148
 BASOPT|        1     |       3     | 0.12832708E-01 | 0.11326814E+03 |  784.130
 BASOPT|        2     |       1     | 0.11339897E-02 | 0.55871149E+03 |   63.749
 BASOPT|        2     |       2     | 0.19743359E-02 | 0.24777531E+03 |   39.172
 BASOPT|        2     |       3     | 0.23122304E-02 | 0.31923686E+02 |   33.118
 BASOPT|        3     |       1     | 0.12177956E-02 | 0.10352549E+04 |   75.881
 BASOPT|        3     |       2     | 0.44823112E-02 | 0.38723980E+03 |   48.095
 BASOPT|        3     |       3     | 0.54827933E-02 | 0.17456663E+03 |   40.857
 BASOPT|        4     |       1     | 0.10048479E-02 | 0.72872971E+03 |   35.292
 BASOPT|        4     |       2     | 0.29999461E-02 | 0.22032960E+03 |   24.064
 BASOPT|        4     |       3     | 0.35465099E-02 | 0.11453664E+03 |   20.644
 BASOPT| -----------------------------------------------------------------------
 BASOPT| Total residuum value: -.11263656E+04

 BASOPT| Information at iteration number:    4400
 BASOPT| Training set | Combination | Rho difference | Condition num. | Time
 BASOPT| -----------------------------------------------------------------------
 BASOPT|        1     |       1     | 0.38110105E-02 | 0.15495890E+04 | 1744.235
 BASOPT|        1     |       2     | 0.12534443E-01 | 0.28834649E+03 | 1014.229
 BASOPT|        1     |       3     | 0.12836484E-01 | 0.11328802E+03 |  802.379
 BASOPT|        2     |       1     | 0.11339822E-02 | 0.55850860E+03 |   65.240
 BASOPT|        2     |       2     | 0.19745553E-02 | 0.24789117E+03 |   40.085
 BASOPT|        2     |       3     | 0.23102077E-02 | 0.31953586E+02 |   33.885
 BASOPT|        3     |       1     | 0.12178882E-02 | 0.10358506E+04 |   77.641
 BASOPT|        3     |       2     | 0.44823503E-02 | 0.38754520E+03 |   49.211
 BASOPT|        3     |       3     | 0.54786849E-02 | 0.17455899E+03 |   41.805
 BASOPT|        4     |       1     | 0.10050920E-02 | 0.72849294E+03 |   36.112
 BASOPT|        4     |       2     | 0.29997849E-02 | 0.22049855E+03 |   24.623
 BASOPT|        4     |       3     | 0.35452988E-02 | 0.11459654E+03 |   21.121
 BASOPT| -----------------------------------------------------------------------
 BASOPT| Total residuum value: -.11263657E+04

 BASOPT| Information at iteration number:    4500
 BASOPT| Training set | Combination | Rho difference | Condition num. | Time
 BASOPT| -----------------------------------------------------------------------
 BASOPT|        1     |       1     | 0.38099417E-02 | 0.15531915E+04 | 1783.930
 BASOPT|        1     |       2     | 0.12535619E-01 | 0.28866407E+03 | 1037.324
 BASOPT|        1     |       3     | 0.12834360E-01 | 0.11333824E+03 |  820.624
 BASOPT|        2     |       1     | 0.11338396E-02 | 0.55876647E+03 |   66.728
 BASOPT|        2     |       2     | 0.19745379E-02 | 0.24807279E+03 |   41.003
 BASOPT|        2     |       3     | 0.23116324E-02 | 0.31954808E+02 |   34.651
 BASOPT|        3     |       1     | 0.12183705E-02 | 0.10362605E+04 |   79.402
 BASOPT|        3     |       2     | 0.44835251E-02 | 0.38783328E+03 |   50.328
 BASOPT|        3     |       3     | 0.54833290E-02 | 0.17463969E+03 |   42.754
 BASOPT|        4     |       1     | 0.10051978E-02 | 0.72904169E+03 |   36.931
 BASOPT|        4     |       2     | 0.29995393E-02 | 0.22071078E+03 |   25.179
 BASOPT|        4     |       3     | 0.35461862E-02 | 0.11466363E+03 |   21.598
 BASOPT| -----------------------------------------------------------------------
 BASOPT| Total residuum value: -.11263658E+04

 BASOPT| Information at iteration number:    4600
 BASOPT| Training set | Combination | Rho difference | Condition num. | Time
 BASOPT| -----------------------------------------------------------------------
 BASOPT|        1     |       1     | 0.38106102E-02 | 0.15491487E+04 | 1823.630
 BASOPT|        1     |       2     | 0.12536853E-01 | 0.28902593E+03 | 1060.422
 BASOPT|        1     |       3     | 0.12834559E-01 | 0.11313483E+03 |  838.871
 BASOPT|        2     |       1     | 0.11334909E-02 | 0.55887213E+03 |   68.218
 BASOPT|        2     |       2     | 0.19741981E-02 | 0.24825470E+03 |   41.918
 BASOPT|        2     |       3     | 0.23105418E-02 | 0.31949489E+02 |   35.417
 BASOPT|        3     |       1     | 0.12189243E-02 | 0.10359694E+04 |   81.174
 BASOPT|        3     |       2     | 0.44829288E-02 | 0.38806767E+03 |   51.445
 BASOPT|        3     |       3     | 0.54855102E-02 | 0.17428066E+03 |   43.703
 BASOPT|        4     |       1     | 0.10054775E-02 | 0.72848443E+03 |   37.751
 BASOPT|        4     |       2     | 0.29987982E-02 | 0.22091164E+03 |   25.735
 BASOPT|        4     |       3     | 0.35459701E-02 | 0.11455900E+03 |   22.076
 BASOPT| -----------------------------------------------------------------------
 BASOPT| Total residuum value: -.11263659E+04

 BASOPT| Information at iteration number:    4700
 BASOPT| Training set | Combination | Rho difference | Condition num. | Time
 BASOPT| -----------------------------------------------------------------------
 BASOPT|        1     |       1     | 0.38107104E-02 | 0.15347551E+04 | 1863.329
 BASOPT|        1     |       2     | 0.12533412E-01 | 0.28857062E+03 | 1083.513
 BASOPT|        1     |       3     | 0.12830528E-01 | 0.11384601E+03 |  857.098
 BASOPT|        2     |       1     | 0.11334840E-02 | 0.55825579E+03 |   69.708
 BASOPT|        2     |       2     | 0.19746937E-02 | 0.24851281E+03 |   42.830
 BASOPT|        2     |       3     | 0.23107748E-02 | 0.31940425E+02 |   36.184
 BASOPT|        3     |       1     | 0.12204080E-02 | 0.10349720E+04 |   82.941
 BASOPT|        3     |       2     | 0.44841332E-02 | 0.38864647E+03 |   52.562
 BASOPT|        3     |       3     | 0.54859748E-02 | 0.17492228E+03 |   44.651
 BASOPT|        4     |       1     | 0.10063283E-02 | 0.72713814E+03 |   38.570
 BASOPT|        4     |       2     | 0.29982196E-02 | 0.22125085E+03 |   26.292
 BASOPT|        4     |       3     | 0.35454536E-02 | 0.11484096E+03 |   22.554
 BASOPT| -----------------------------------------------------------------------
 BASOPT| Total residuum value: -.11263660E+04

 BASOPT| Information at iteration number:    4800
 BASOPT| Training set | Combination | Rho difference | Condition num. | Time
 BASOPT| -----------------------------------------------------------------------
 BASOPT|        1     |       1     | 0.38147258E-02 | 0.15033371E+04 | 1903.020
 BASOPT|        1     |       2     | 0.12533040E-01 | 0.28769815E+03 | 1106.608
 BASOPT|        1     |       3     | 0.12830090E-01 | 0.11420197E+03 |  875.342
 BASOPT|        2     |       1     | 0.11333665E-02 | 0.55724449E+03 |   71.198
 BASOPT|        2     |       2     | 0.19745781E-02 | 0.24853983E+03 |   43.747
 BASOPT|        2     |       3     | 0.23108858E-02 | 0.31926630E+02 |   36.950
 BASOPT|        3     |       1     | 0.12205152E-02 | 0.10334354E+04 |   84.708
 BASOPT|        3     |       2     | 0.44825352E-02 | 0.38887535E+03 |   53.679
 BASOPT|        3     |       3     | 0.54849906E-02 | 0.17518267E+03 |   45.599
 BASOPT|        4     |       1     | 0.10068239E-02 | 0.72470997E+03 |   39.390
 BASOPT|        4     |       2     | 0.29970760E-02 | 0.22128801E+03 |   26.851
 BASOPT|        4     |       3     | 0.35454957E-02 | 0.11499442E+03 |   23.032
 BASOPT| -----------------------------------------------------------------------
 BASOPT| Total residuum value: -.11263662E+04

 BASOPT| Information at iteration number:    4900
 BASOPT| Training set | Combination | Rho difference | Condition num. | Time
 BASOPT| -----------------------------------------------------------------------
 BASOPT|        1     |       1     | 0.38107211E-02 | 0.14866517E+04 | 1942.694
 BASOPT|        1     |       2     | 0.12525444E-01 | 0.28760408E+03 | 1129.713
 BASOPT|        1     |       3     | 0.12823207E-01 | 0.11420037E+03 |  893.594
 BASOPT|        2     |       1     | 0.11334778E-02 | 0.55663153E+03 |   72.689
 BASOPT|        2     |       2     | 0.19756831E-02 | 0.24869355E+03 |   44.660
 BASOPT|        2     |       3     | 0.23108996E-02 | 0.31933018E+02 |   37.717
 BASOPT|        3     |       1     | 0.12223359E-02 | 0.10323625E+04 |   86.474
 BASOPT|        3     |       2     | 0.44856963E-02 | 0.38917114E+03 |   54.795
 BASOPT|        3     |       3     | 0.54889885E-02 | 0.17498447E+03 |   46.549
 BASOPT|        4     |       1     | 0.10078744E-02 | 0.72339911E+03 |   40.209
 BASOPT|        4     |       2     | 0.29975483E-02 | 0.22154332E+03 |   27.407
 BASOPT|        4     |       3     | 0.35460072E-02 | 0.11499418E+03 |   23.510
 BASOPT| -----------------------------------------------------------------------
 BASOPT| Total residuum value: -.11263664E+04

 BASOPT| Information at iteration number:    5000
 BASOPT| Training set | Combination | Rho difference | Condition num. | Time
 BASOPT| -----------------------------------------------------------------------
 BASOPT|        1     |       1     | 0.38196586E-02 | 0.14097132E+04 | 1982.361
 BASOPT|        1     |       2     | 0.12536402E-01 | 0.28596959E+03 | 1152.810
 BASOPT|        1     |       3     | 0.12838968E-01 | 0.11318524E+03 |  911.843
 BASOPT|        2     |       1     | 0.11325471E-02 | 0.55354755E+03 |   74.181
 BASOPT|        2     |       2     | 0.19737889E-02 | 0.24810262E+03 |   45.570
 BASOPT|        2     |       3     | 0.23078604E-02 | 0.31918213E+02 |   38.484
 BASOPT|        3     |       1     | 0.12241198E-02 | 0.10260848E+04 |   88.235
 BASOPT|        3     |       2     | 0.44829200E-02 | 0.38824950E+03 |   55.912
 BASOPT|        3     |       3     | 0.54867330E-02 | 0.17335833E+03 |   47.498
 BASOPT|        4     |       1     | 0.10100330E-02 | 0.71556146E+03 |   41.029
 BASOPT|        4     |       2     | 0.29968103E-02 | 0.22097268E+03 |   27.961
 BASOPT|        4     |       3     | 0.35448948E-02 | 0.11433139E+03 |   23.988
 BASOPT| -----------------------------------------------------------------------
 BASOPT| Total residuum value: -.11263668E+04

 BASOPT| Information at iteration number:    5100
 BASOPT| Training set | Combination | Rho difference | Condition num. | Time
 BASOPT| -----------------------------------------------------------------------
 BASOPT|        1     |       1     | 0.38278830E-02 | 0.13243223E+04 | 2022.032
 BASOPT|        1     |       2     | 0.12537051E-01 | 0.28427509E+03 | 1175.902
 BASOPT|        1     |       3     | 0.12837871E-01 | 0.11314044E+03 |  930.095
 BASOPT|        2     |       1     | 0.11320977E-02 | 0.54945486E+03 |   75.672
 BASOPT|        2     |       2     | 0.19736328E-02 | 0.24749772E+03 |   46.473
 BASOPT|        2     |       3     | 0.23095533E-02 | 0.31920544E+02 |   39.250
 BASOPT|        3     |       1     | 0.12255427E-02 | 0.10201861E+04 |   89.996
 BASOPT|        3     |       2     | 0.44856824E-02 | 0.38750278E+03 |   57.029
 BASOPT|        3     |       3     | 0.54897765E-02 | 0.17289921E+03 |   48.447
 BASOPT|        4     |       1     | 0.10121712E-02 | 0.70711133E+03 |   41.848
 BASOPT|        4     |       2     | 0.29981230E-02 | 0.22037071E+03 |   28.517
 BASOPT|        4     |       3     | 0.35468802E-02 | 0.11402957E+03 |   24.469
 BASOPT| -----------------------------------------------------------------------
 BASOPT| Total residuum value: -.11263672E+04

 BASOPT| Information at iteration number:    5200
 BASOPT| Training set | Combination | Rho difference | Condition num. | Time
 BASOPT| -----------------------------------------------------------------------
 BASOPT|        1     |       1     | 0.38306507E-02 | 0.13214976E+04 | 2061.709
 BASOPT|        1     |       2     | 0.12538478E-01 | 0.28401798E+03 | 1198.987
 BASOPT|        1     |       3     | 0.12838664E-01 | 0.11418438E+03 |  948.357
 BASOPT|        2     |       1     | 0.11317843E-02 | 0.54864578E+03 |   77.162
 BASOPT|        2     |       2     | 0.19734534E-02 | 0.24766755E+03 |   47.369
 BASOPT|        2     |       3     | 0.23096806E-02 | 0.31908567E+02 |   40.017
 BASOPT|        3     |       1     | 0.12252717E-02 | 0.10189981E+04 |   91.759
 BASOPT|        3     |       2     | 0.44864313E-02 | 0.38793771E+03 |   58.145
 BASOPT|        3     |       3     | 0.54856041E-02 | 0.17406207E+03 |   49.397
 BASOPT|        4     |       1     | 0.10119533E-02 | 0.70596491E+03 |   42.667
 BASOPT|        4     |       2     | 0.29978494E-02 | 0.22066661E+03 |   29.072
 BASOPT|        4     |       3     | 0.35448934E-02 | 0.11434469E+03 |   24.949
 BASOPT| -----------------------------------------------------------------------
 BASOPT| Total residuum value: -.11263673E+04

 BASOPT| Information at iteration number:    5300
 BASOPT| Training set | Combination | Rho difference | Condition num. | Time
 BASOPT| -----------------------------------------------------------------------
 BASOPT|        1     |       1     | 0.38288886E-02 | 0.13243516E+04 | 2101.386
 BASOPT|        1     |       2     | 0.12530874E-01 | 0.28461129E+03 | 1222.055
 BASOPT|        1     |       3     | 0.12831271E-01 | 0.11417892E+03 |  966.614
 BASOPT|        2     |       1     | 0.11316714E-02 | 0.54862095E+03 |   78.654
 BASOPT|        2     |       2     | 0.19741747E-02 | 0.24795768E+03 |   48.277
 BASOPT|        2     |       3     | 0.23089621E-02 | 0.31917655E+02 |   40.783
 BASOPT|        3     |       1     | 0.12236612E-02 | 0.10190567E+04 |   93.522
 BASOPT|        3     |       2     | 0.44868438E-02 | 0.38842302E+03 |   59.261
 BASOPT|        3     |       3     | 0.54876972E-02 | 0.17387975E+03 |   50.346
 BASOPT|        4     |       1     | 0.10109064E-02 | 0.70612725E+03 |   43.486
 BASOPT|        4     |       2     | 0.29973503E-02 | 0.22106791E+03 |   29.630
 BASOPT|        4     |       3     | 0.35449913E-02 | 0.11435781E+03 |   25.429
 BASOPT| -----------------------------------------------------------------------
 BASOPT| Total residuum value: -.11263675E+04

 BASOPT| Information at iteration number:    5400
 BASOPT| Training set | Combination | Rho difference | Condition num. | Time
 BASOPT| -----------------------------------------------------------------------
 BASOPT|        1     |       1     | 0.38269208E-02 | 0.13314934E+04 | 2141.057
 BASOPT|        1     |       2     | 0.12530897E-01 | 0.28458855E+03 | 1245.131
 BASOPT|        1     |       3     | 0.12830985E-01 | 0.11420014E+03 |  984.869
 BASOPT|        2     |       1     | 0.11312915E-02 | 0.54907062E+03 |   80.149
 BASOPT|        2     |       2     | 0.19742156E-02 | 0.24797809E+03 |   49.194
 BASOPT|        2     |       3     | 0.23093181E-02 | 0.31927462E+02 |   41.549
 BASOPT|        3     |       1     | 0.12231953E-02 | 0.10198424E+04 |   95.283
 BASOPT|        3     |       2     | 0.44888154E-02 | 0.38851486E+03 |   60.378
 BASOPT|        3     |       3     | 0.54897378E-02 | 0.17384122E+03 |   51.295
 BASOPT|        4     |       1     | 0.10103080E-02 | 0.70700215E+03 |   44.305
[...]
 BASOPT|        4     |       3     | 0.35370412E-02 | 0.11509355E+03 |   47.110
 BASOPT| -----------------------------------------------------------------------
 BASOPT| Total residuum value: -.11263748E+04

 BASOPT| Information at iteration number:   10000
 BASOPT| Training set | Combination | Rho difference | Condition num. | Time
 BASOPT| -----------------------------------------------------------------------
 BASOPT|        1     |       1     | 0.37339667E-02 | 0.15871908E+04 | 3968.978
 BASOPT|        1     |       2     | 0.12576790E-01 | 0.26940361E+03 | 2308.865
 BASOPT|        1     |       3     | 0.12874384E-01 | 0.11592741E+03 | 1825.963
 BASOPT|        2     |       1     | 0.11187221E-02 | 0.58232518E+03 |  149.167
 BASOPT|        2     |       2     | 0.19670318E-02 | 0.23746774E+03 |   91.125
 BASOPT|        2     |       3     | 0.23051482E-02 | 0.32411611E+02 |   77.431
 BASOPT|        3     |       1     | 0.11890323E-02 | 0.10338755E+04 |  175.615
 BASOPT|        3     |       2     | 0.44813867E-02 | 0.37371920E+03 |  111.423
 BASOPT|        3     |       3     | 0.54609761E-02 | 0.17557197E+03 |   94.484
 BASOPT|        4     |       1     | 0.98486116E-03 | 0.74358445E+03 |   81.827
 BASOPT|        4     |       2     | 0.29940192E-02 | 0.21542417E+03 |   55.735
 BASOPT|        4     |       3     | 0.35363481E-02 | 0.11510036E+03 |   47.575
 BASOPT| -----------------------------------------------------------------------
 BASOPT| Total residuum value: -.11263750E+04


 -------------------------------------------------------------------------------
 -                                                                             -
 -                                DBCSR STATISTICS                             -
 -                                                                             -
 -------------------------------------------------------------------------------
 COUNTER                                    TOTAL       BLAS       SMM       ACC
 flops    52 x    52 x     6                97344       0.0%    100.0%      0.0%
 flops    92 x    68 x     4               150144       0.0%    100.0%      0.0%
 flops    68 x    92 x     4               150144       0.0%    100.0%      0.0%
 flops    52 x    92 x     6               172224       0.0%    100.0%      0.0%
 flops    92 x    92 x     4               203136       0.0%    100.0%      0.0%
 flops    92 x    52 x     9               258336       0.0%    100.0%      0.0%
 flops    52 x    92 x     9               258336       0.0%    100.0%      0.0%
 flops    92 x    92 x     6               304704       0.0%    100.0%      0.0%
 flops    68 x    68 x     4               332928       0.0%    100.0%      0.0%
 flops    52 x    52 x     9               438048       0.0%    100.0%      0.0%
 flops    92 x    92 x     9               457056       0.0%    100.0%      0.0%
 flops    92 x    92 x    24             43877376       0.0%    100.0%      0.0%
 flops inhomo. stacks                           0       0.0%      0.0%      0.0%
 flops total                        46.699776E+06       0.0%    100.0%      0.0%
 flops max/rank                      7.312896E+06       0.0%    100.0%      0.0%
 matmuls inhomo. stacks                         0       0.0%      0.0%      0.0%
 matmuls total                                153       0.0%    100.0%      0.0%
 number of processed stacks                    39       0.0%    100.0%      0.0%
 average stack size                                     0.0       3.9       0.0
 marketing flops                    82.072800E+06
 -------------------------------------------------------------------------------
 # multiplications                              1
 max memory usage/rank             539.820032E+06
 # max total images/rank                        2
 # max 3D layers                                1
 # MPI messages exchanged                       8
 MPI messages size (bytes):
  total size                       431.232000E+03
  min size                           0.000000E+00
  max size                         141.312000E+03
  average size                      53.904000E+03
 MPI breakdown and total messages size (bytes):
             size <=      128                   4                        0
       128 < size <=     8192                   1                     7296
      8192 < size <=    32768                   0                        0
     32768 < size <=   131072                   0                        0
    131072 < size <=  4194304                   3                   423936
   4194304 < size <= 16777216                   0                        0
  16777216 < size                               0                        0
 -------------------------------------------------------------------------------

 *** WARNING in dbcsr_mm.F:294 :: Using a non-square number of MPI ranks ***
 *** might lead to poor performance. Used ranks: 2 Suggested: 1 4        ***

 -------------------------------------------------------------------------------
 -                                                                             -
 -                      DBCSR MESSAGE PASSING PERFORMANCE                      -
 -                                                                             -
 -------------------------------------------------------------------------------
 ROUTINE             CALLS      AVE VOLUME [Bytes]
 MP_Bcast               13                     12.
 MP_Allreduce           50                     21.
 MP_Alltoall        600081                 461115.
 MP_ISend                6                  23641.
 MP_IRecv                8                   8897.
 -------------------------------------------------------------------------------

 -------------------------------------------------------------------------------
 -                                                                             -
 -                                GRID STATISTICS                              -
 -                                                                             -
 -------------------------------------------------------------------------------
 LP    KERNEL    OPERATION                                     COUNT     PERCENT
 0     general   collocate                                        48       0.23%
 0     ortho     integrate                                       558       2.63%
 0     ortho     collocate                                       558       2.63%
 1     ortho     integrate                                       138       0.65%
 1     ortho     collocate                                       138       0.65%
 2     ortho     integrate                                      1269       5.98%
 2     ortho     collocate                                      1269       5.98%
 3     ortho     integrate                                      1674       7.89%
 3     ortho     collocate                                      1674       7.89%
 4     ortho     integrate                                      3606      17.01%
 4     ortho     collocate                                      3606      17.01%
 5     ortho     integrate                                       180       0.85%
 5     ortho     collocate                                       180       0.85%
 6     ortho     integrate                                      3153      14.87%
 6     ortho     collocate                                      3153      14.87%
 -------------------------------------------------------------------------------

 MEMORY| Estimated peak process memory [MiB]                                 954

 -------------------------------------------------------------------------------
 -                                                                             -
 -                         MESSAGE PASSING PERFORMANCE                         -
 -                                                                             -
 -------------------------------------------------------------------------------

 ROUTINE             CALLS      AVE VOLUME [Bytes]
 MP_Bcast            10029                   1101.
 MP_Allreduce        70132                     98.
 MP_Sync             10001
 MP_Alltoall            19               51069736.
 MP_ISendRecv            9                3051864.
 MP_Wait                 9
 MP_comm_split           1
 -------------------------------------------------------------------------------


 -------------------------------------------------------------------------------
 -                                                                             -
 -                           R E F E R E N C E S                               -
 -                                                                             -
 -------------------------------------------------------------------------------
 
 CP2K version 8.0 (Development Version), the CP2K developers group (2020).
 CP2K is freely available from https://www.cp2k.org/ .

 Kuehne,Thomas D.; Iannuzzi,Marcella; Del Ben,Mauro;
 Rybkin,Vladimir V.; Seewald,Patrick; Stein,Frederick; Laino,Teodoro;
 Khaliullin,Rustam Z.; Schuett,Ole; Schiffmann,Florian; Golze,Dorothea;
 Wilhelm,Jan; Chulkov,Sergey; Bani-Hashemian,Mohammad Hossein;
 Weber,Valery; Borstnik,Urban; Taillefumier,Mathieu;
 Jakobovits,Alice Shoshana; Lazzaro,Alfio; Pabst,Hans; Mueller,Tiziano;
 Schade,Robert; Guidon,Manuel; Andermatt,Samuel; Holmberg,Nico;
 Schenter,Gregory K.; Hehn,Anna; Bussy,Augustin; Belleflamme,Fabian;
 Tabacchi,Gloria; Gloess,Andreas; Lass,Michael; Bethune,Iain;
 Mundy,Christopher J.; Plessl,Christian; Watkins,Matt;
 VandeVondele,Joost; Krack,Matthias; Hutter,Juerg. 
 The Journal of Chemical Physics, 152 (19), (2020). 
 CP2K: An electronic structure and molecular dynamics software package -
 Quickstep: Efficient and accurate electronic structure calculations.
 https://doi.org/10.1063/5.0007045

 Schuett, Ole; Messmer, Peter; Hutter, Juerg; VandeVondele, Joost. 
 Electronic Structure Calculations on Graphics Processing Units, John
 Wiley & Sons, Ltd, 173-190 (2016). 
 GPU-Accelerated Sparse Matrix-Matrix Multiplication for
 Linear Scaling Density Functional Theory.
 https://doi.org/10.1002/9781118670712.ch8

 Borstnik, U; VandeVondele, J; Weber, V; Hutter, J. 
 PARALLEL COMPUTING, 40 (5-6), 47-58 (2014). 
 Sparse matrix multiplication: The distributed block-compressed sparse
 row library.
 https://doi.org/10.1016/j.parco.2014.03.012

 Hutter, J; Iannuzzi, M; Schiffmann, F; VandeVondele, J. 
 WIREs Comput Mol Sci., 4 (1), 15-25 (2014). 
 CP2K: atomistic simulations of condensed matter systems.
 https://doi.org/10.1002/wcms.1159

 Marek, A; Blum, V; Johanni, R; Havu, V; Lang, B; Auckenthaler, T;
 Heinecke, A; Bungartz, H; Lederer, H. 
 Journal of Physics: Condensed Matter, 26 (21), (2014). 
 The ELPA library: scalable parallel eigenvalue solutions for
 electronic structure
 theory and computational science.
 https://doi.org/10.1088/0953-8984/26/21/213201

 Guidon, M; Hutter, J; VandeVondele, J. 
 JOURNAL OF CHEMICAL THEORY AND COMPUTATION, 6 (8), 2348-2364 (2010). 
 Auxiliary Density Matrix Methods for Hartree-Fock Exchange Calculations.
 https://doi.org/10.1021/ct1002225

 VandeVondele, J; Hutter, J. 
 JOURNAL OF CHEMICAL PHYSICS, 127 (11), 114105 (2007). 
 Gaussian basis sets for accurate calculations on molecular systems in
 gas and condensed phases.
 https://doi.org/10.1063/1.2770708

 Krack, M. 
 THEORETICAL CHEMISTRY ACCOUNTS, 114 (1-3), 145-152 (2005). 
 Pseudopotentials for H to Kr optimized for gradient-corrected
 exchange-correlation functionals.
 https://doi.org/10.1007/s00214-005-0655-y

 VandeVondele, J; Krack, M; Mohamed, F; Parrinello, M; Chassaing, T;
 Hutter, J. COMPUTER PHYSICS COMMUNICATIONS, 167 (2), 103-128 (2005). 
 QUICKSTEP: Fast and accurate density functional calculations using a
 mixed Gaussian and plane waves approach.
 https://doi.org/10.1016/j.cpc.2004.12.014

 Frigo, M; Johnson, SG. 
 PROCEEDINGS OF THE IEEE, 93 (2), 216-231 (2005). 
 The design and implementation of FFTW3.
 https://doi.org/10.1109/JPROC.2004.840301

 Martyna, GJ; Tuckerman, ME. 
 JOURNAL OF CHEMICAL PHYSICS, 110 (6), 2810-2821 (1999). 
 A reciprocal space based method for treating long range interactions in
 ab initio and force-field-based calculations in clusters.
 https://doi.org/10.1063/1.477923

 Hartwigsen, C; Goedecker, S; Hutter, J. 
 PHYSICAL REVIEW B, 58 (7), 3641-3662 (1998). 
 Relativistic separable dual-space Gaussian pseudopotentials from H to Rn.
 https://doi.org/10.1103/PhysRevB.58.3641

 Lippert, G; Hutter, J; Parrinello, M. 
 MOLECULAR PHYSICS, 92 (3), 477-487 (1997). 
 A hybrid Gaussian and plane wave density functional scheme.
 https://doi.org/10.1080/002689797170220

 Perdew, JP; Burke, K; Ernzerhof, M. 
 PHYSICAL REVIEW LETTERS, 77 (18), 3865-3868 (1996). 
 Generalized gradient approximation made simple.
 https://doi.org/10.1103/PhysRevLett.77.3865

 Goedecker, S; Teter, M; Hutter, J. 
 PHYSICAL REVIEW B, 54 (3), 1703-1710 (1996). 
 Separable dual-space Gaussian pseudopotentials.
 https://doi.org/10.1103/PhysRevB.54.1703


 -------------------------------------------------------------------------------
 -                                                                             -
 -                                T I M I N G                                  -
 -                                                                             -
 -------------------------------------------------------------------------------
 SUBROUTINE                       CALLS  ASD         SELF TIME        TOTAL TIME
                                MAXIMUM       AVERAGE  MAXIMUM  AVERAGE  MAXIMUM
 CP2K                                 1  1.0    0.009    0.012 3976.847 3976.879
 run_optimize_basis                   1  2.0    0.001    0.002 3976.831 3976.862
 driver_para_opt_basis                1  3.0    0.000    0.000 3976.826 3976.857
 driver_optimization_para_low         1  4.0    0.097    0.189 3976.825 3976.856
 compute_residuum_vectors         10001  5.0    0.611    0.873 3970.613 3972.127
 mp_sum_dv                        50006  5.8 2892.895 3921.780 2892.895 3921.780
 cp_gemm                         120012  7.2    0.204    0.320  915.386 3457.121
 cp_gemm_fm_gemm                 120012  8.2    0.127    0.208  915.181 3456.853
 cp_fm_gemm                      120012  9.2  915.055 3456.691  915.055 3456.691
 admm_fit_mo_coeffs               10001  6.0    0.032    0.064  367.004 1356.857
 fit_mo_coeffs                    10001  7.0    0.104    0.163  301.662 1186.328
 cp_fm_syevd                      20002  7.0    0.069    0.106   50.643  210.724
 cp_fm_syevd_base                 20002  8.0   50.547  210.583   50.547  210.583
 purify_mo_diag                   10001  7.0    0.133    0.210   65.310  174.484
 build_overlap_matrix_low         20006  6.0   29.569   99.718   30.252  101.132
 copy_dbcsr_to_fm                 50006  6.8    0.636    1.030   37.846   88.987
 -------------------------------------------------------------------------------

 The number of warnings for this run is : 1
 
 -------------------------------------------------------------------------------
  **** **** ******  **  PROGRAM ENDED AT                 2020-12-18 16:19:28.636
 ***** ** ***  *** **   PROGRAM RAN ON                                   tcopt10
 **    ****   ******    PROGRAM RAN BY                                    hutter
 ***** **    ** ** **   PROGRAM PROCESS ID                                 13879
  **** **  *******  **  PROGRAM STOPPED IN /data/hutter/GITHUB/BASIS/MOLOPT/PBE0
                                           /Se
[1608304768.664252] [tcopt10:13885:0]          mpool.c:38   UCX  WARN  object 0x7a20280 was not returned to mpool ucp_requests
[1608304768.664275] [tcopt10:13885:0]          mpool.c:38   UCX  WARN  object 0x7a20440 was not returned to mpool ucp_requests
[1608304768.664282] [tcopt10:13885:0]          mpool.c:38   UCX  WARN  object 0x7a20600 was not returned to mpool ucp_requests
[1608304768.664287] [tcopt10:13885:0]          mpool.c:38   UCX  WARN  object 0x7a207c0 was not returned to mpool ucp_requests
[1608304768.664288] [tcopt10:13879:0]          mpool.c:38   UCX  WARN  object 0x8639840 was not returned to mpool ucp_requests
[1608304768.664310] [tcopt10:13879:0]          mpool.c:38   UCX  WARN  object 0x8639a00 was not returned to mpool ucp_requests
[1608304768.664317] [tcopt10:13879:0]          mpool.c:38   UCX  WARN  object 0x8639bc0 was not returned to mpool ucp_requests
[1608304768.664323] [tcopt10:13879:0]          mpool.c:38   UCX  WARN  object 0x8639d80 was not returned to mpool ucp_requests
[1608304768.664329] [tcopt10:13879:0]          mpool.c:38   UCX  WARN  object 0x8639f40 was not returned to mpool ucp_requests
[1608304768.664334] [tcopt10:13879:0]          mpool.c:38   UCX  WARN  object 0x863a100 was not returned to mpool ucp_requests
[1608304768.664340] [tcopt10:13879:0]          mpool.c:38   UCX  WARN  object 0x863a2c0 was not returned to mpool ucp_requests
[1608304768.664345] [tcopt10:13879:0]          mpool.c:38   UCX  WARN  object 0x863a480 was not returned to mpool ucp_requests
[1608304768.664351] [tcopt10:13879:0]          mpool.c:38   UCX  WARN  object 0x863a640 was not returned to mpool ucp_requests
[1608304768.664355] [tcopt10:13879:0]          mpool.c:38   UCX  WARN  object 0x863a800 was not returned to mpool ucp_requests
[1608304768.664609] [tcopt10:13881:0]          mpool.c:38   UCX  WARN  object 0x754b800 was not returned to mpool ucp_requests
[1608304768.664639] [tcopt10:13881:0]          mpool.c:38   UCX  WARN  object 0x754b9c0 was not returned to mpool ucp_requests
[1608304768.664649] [tcopt10:13881:0]          mpool.c:38   UCX  WARN  object 0x754bb80 was not returned to mpool ucp_requests
[1608304768.664657] [tcopt10:13881:0]          mpool.c:38   UCX  WARN  object 0x754bd40 was not returned to mpool ucp_requests
[1608304768.664663] [tcopt10:13881:0]          mpool.c:38   UCX  WARN  object 0x754bf00 was not returned to mpool ucp_requests
[1608304768.664668] [tcopt10:13881:0]          mpool.c:38   UCX  WARN  object 0x754c0c0 was not returned to mpool ucp_requests
[1608304768.664606] [tcopt10:13883:0]          mpool.c:38   UCX  WARN  object 0x74e1840 was not returned to mpool ucp_requests
[1608304768.664632] [tcopt10:13883:0]          mpool.c:38   UCX  WARN  object 0x74e1a00 was not returned to mpool ucp_requests
[1608304768.664637] [tcopt10:13883:0]          mpool.c:38   UCX  WARN  object 0x74e1bc0 was not returned to mpool ucp_requests
[1608304768.664644] [tcopt10:13883:0]          mpool.c:38   UCX  WARN  object 0x74e1d80 was not returned to mpool ucp_requests
[1608304768.664649] [tcopt10:13883:0]          mpool.c:38   UCX  WARN  object 0x74e1f40 was not returned to mpool ucp_requests
[1608304768.664655] [tcopt10:13883:0]          mpool.c:38   UCX  WARN  object 0x74e2100 was not returned to mpool ucp_requests
[1608304768.664662] [tcopt10:13883:0]          mpool.c:38   UCX  WARN  object 0x74e22c0 was not returned to mpool ucp_requests
[1608304768.664667] [tcopt10:13883:0]          mpool.c:38   UCX  WARN  object 0x74e2480 was not returned to mpool ucp_requests
[1608304768.664672] [tcopt10:13883:0]          mpool.c:38   UCX  WARN  object 0x74e2640 was not returned to mpool ucp_requests
[1608304768.664678] [tcopt10:13883:0]          mpool.c:38   UCX  WARN  object 0x74e2800 was not returned to mpool ucp_requests
[1608304768.664676] [tcopt10:13881:0]          mpool.c:38   UCX  WARN  object 0x754c280 was not returned to mpool ucp_requests
[1608304768.664683] [tcopt10:13881:0]          mpool.c:38   UCX  WARN  object 0x754c440 was not returned to mpool ucp_requests
[1608304768.664686] [tcopt10:13881:0]          mpool.c:38   UCX  WARN  object 0x754c600 was not returned to mpool ucp_requests
[1608304768.664690] [tcopt10:13881:0]          mpool.c:38   UCX  WARN  object 0x754c7c0 was not returned to mpool ucp_requests
