 DBCSR| CPU Multiplication driver                                           XSMM
 DBCSR| Multrec recursion limit                                              512
 DBCSR| Multiplication stack size                                           1000
 DBCSR| Maximum elements for images                                    UNLIMITED
 DBCSR| Multiplicative factor virtual images                                   1
 DBCSR| Use multiplication densification                                       T
 DBCSR| Multiplication size stacks                                             3
 DBCSR| Use memory pool for CPU allocation                                     F
 DBCSR| Number of 3D layers                                               SINGLE
 DBCSR| Use MPI memory allocation                                              F
 DBCSR| Use RMA algorithm                                                      F
 DBCSR| Use Communication thread                                               T
 DBCSR| Communication thread load                                             87
 DBCSR| MPI: My node id                                                        0
 DBCSR| MPI: Number of nodes                                                  32
 DBCSR| OMP: Current number of threads                                         1
 DBCSR| OMP: Max number of threads                                             1
 DBCSR| Split modifier for TAS multiplication algorithm                  1.0E+00


  **** **** ******  **  PROGRAM STARTED AT               2020-12-17 18:00:48.184
 ***** ** ***  *** **   PROGRAM STARTED ON                               tcopt10
 **    ****   ******    PROGRAM STARTED BY                                hutter
 ***** **    ** ** **   PROGRAM PROCESS ID                                  7630
  **** **  *******  **  PROGRAM STARTED IN /data/hutter/GITHUB/BASIS/MOLOPT/PBE0
                                           /Se

 CP2K| version string:                    CP2K version 8.0 (Development Version)
 CP2K| source code revision number:                                  git:7416431
 CP2K| cp2kflags: omp libint fftw3 libxc elpa parallel mpi3 scalapack xsmm spgli
 CP2K|            b sirius
 CP2K| is freely available from                            https://www.cp2k.org/
 CP2K| Program compiled at                          Thu Dec 10 17:08:57 CET 2020
 CP2K| Program compiled on                                               tcopt10
 CP2K| Program compiled for                                                local
 CP2K| Data directory path                 /data/hutter/GITHUB/CURRENT/cp2k/data
 CP2K| Input file name                                               Se8-ref.inp

 GLOBAL| Force Environment number                                              1
 GLOBAL| Basis set file name                                  ../PBE0_UCSEGBASIS
 GLOBAL| Potential file name                                        ../POTENTIAL
 GLOBAL| MM Potential file name                                     MM_POTENTIAL
 GLOBAL| Coordinate file name                                      __STD_INPUT__
 GLOBAL| Method name                                                        CP2K
 GLOBAL| Project name                                                     refSe8
 GLOBAL| Preferred FFT library                                             FFTW3
 GLOBAL| Preferred diagonalization lib.                                     ELPA
 GLOBAL| Run type                                                         ENERGY
 GLOBAL| All-to-all communication in single precision                          F
 GLOBAL| FFTs using library dependent lengths                                  F
 GLOBAL| Global print level                                                  LOW
 GLOBAL| MPI I/O enabled                                                       T
 GLOBAL| Total number of message passing processes                            32
 GLOBAL| Number of threads for this process                                    1
 GLOBAL| This output is from process                                           0
 GLOBAL| CPU model name                          AMD EPYC 7401 24-Core Processor
 GLOBAL| CPUID                                                              1002

 MEMORY| system memory details [Kb]
 MEMORY|                        rank 0           min           max       average
 MEMORY| MemTotal            263987256     263987256     263987256     263987256
 MEMORY| MemFree             260261252     260261252     260261252     260261252
 MEMORY| Buffers                    32            32            32            32
 MEMORY| Cached                 551844        551844        551844        551844
 MEMORY| Slab                   774932        774932        774932        774932
 MEMORY| SReclaimable           283740        283740        283740        283740
 MEMORY| MemLikelyFree       261096868     261096868     261096868     261096868


 GENERATE|  Preliminary Number of Bonds generated:                             8
 GENERATE|  Achieved consistency in connectivity generation.
 GENERATE|  Number of Bonds generated:                                         8
 GENERATE|  Preliminary Number of Bends generated:                             8
 GENERATE|  Number of Bends generated:                                         8
 GENERATE|  Number of UB generated:                                            8
 GENERATE|  Preliminary Number of Torsions generated:                          8
 GENERATE|  Number of Torsions generated:                                      8
 GENERATE|  Number of 1-4 interactions generated:                              8

 *******************************************************************************
 *******************************************************************************
 **                                                                           **
 **     #####                         ##              ##                      **
 **    ##   ##            ##          ##              ##                      **
 **   ##     ##                       ##            ######                    **
 **   ##     ##  ##   ##  ##   #####  ##  ##   ####   ##    #####    #####    **
 **   ##     ##  ##   ##  ##  ##      ## ##   ##      ##   ##   ##  ##   ##   **
 **   ##  ## ##  ##   ##  ##  ##      ####     ###    ##   ######   ######    **
 **    ##  ###   ##   ##  ##  ##      ## ##      ##   ##   ##       ##        **
 **     #######   #####   ##   #####  ##  ##  ####    ##    #####   ##        **
 **           ##                                                    ##        **
 **                                                                           **
 **                                                ... make the atoms dance   **
 **                                                                           **
 **            Copyright (C) by CP2K developers group (2000 - 2020)           **
 **                      J. Chem. Phys. 152, 194103 (2020)                    **
 **                                                                           **
 *******************************************************************************


 TOTAL NUMBERS AND MAXIMUM NUMBERS

  Total number of            - Atomic kinds:                                   1
                             - Atoms:                                          8
                             - Shell sets:                                    64
                             - Shells:                                       208
                             - Primitive Cartesian functions:                 64
                             - Cartesian basis functions:                    896
                             - Spherical basis functions:                    736

  Maximum angular momentum of- Orbital basis functions:                        3
                             - Local part of the GTH pseudopotential:          2
                             - Non-local part of the GTH pseudopotential:      4


 SCF PARAMETERS         Density guess:                                    ATOMIC
                        --------------------------------------------------------
                        max_scf:                                              20
                        max_scf_history:                                       0
                        max_diis:                                              4
                        --------------------------------------------------------
                        eps_scf:                                        1.00E-07
                        eps_scf_history:                                0.00E+00
                        eps_diis:                                       1.00E-01
                        eps_eigval:                                     1.00E-05
                        --------------------------------------------------------
                        level_shift [a.u.]:                                 0.00
                        --------------------------------------------------------
                        Outer loop SCF in use 
                        No variables optimised in outer loop
                        eps_scf                                         1.00E-07
                        max_scf                                               10
                        No outer loop optimization
                        step_size                                       5.00E-01
 DBCSR| CPU Multiplication driver                                           XSMM
 DBCSR| Multrec recursion limit                                              512
 DBCSR| Multiplication stack size                                           1000
 DBCSR| Maximum elements for images                                    UNLIMITED
 DBCSR| Multiplicative factor virtual images                                   1
 DBCSR| Use multiplication densification                                       T
 DBCSR| Multiplication size stacks                                             3
 DBCSR| Use memory pool for CPU allocation                                     F
 DBCSR| Number of 3D layers                                               SINGLE
 DBCSR| Use MPI memory allocation                                              F
 DBCSR| Use RMA algorithm                                                      F
 DBCSR| Use Communication thread                                               T
 DBCSR| Communication thread load                                             87
 DBCSR| MPI: My node id                                                        0
 DBCSR| MPI: Number of nodes                                                  32
 DBCSR| OMP: Current number of threads                                         1
 DBCSR| OMP: Max number of threads                                             1
 DBCSR| Split modifier for TAS multiplication algorithm                  1.0E+00


  **** **** ******  **  PROGRAM STARTED AT               2020-12-17 18:01:15.026
 ***** ** ***  *** **   PROGRAM STARTED ON                               tcopt10
 **    ****   ******    PROGRAM STARTED BY                                hutter
 ***** **    ** ** **   PROGRAM PROCESS ID                                  7812
  **** **  *******  **  PROGRAM STARTED IN /data/hutter/GITHUB/BASIS/MOLOPT/PBE0
                                           /Se

 CP2K| version string:                    CP2K version 8.0 (Development Version)
 CP2K| source code revision number:                                  git:7416431
 CP2K| cp2kflags: omp libint fftw3 libxc elpa parallel mpi3 scalapack xsmm spgli
 CP2K|            b sirius
 CP2K| is freely available from                            https://www.cp2k.org/
 CP2K| Program compiled at                          Thu Dec 10 17:08:57 CET 2020
 CP2K| Program compiled on                                               tcopt10
 CP2K| Program compiled for                                                local
 CP2K| Data directory path                 /data/hutter/GITHUB/CURRENT/cp2k/data
 CP2K| Input file name                                               Se8-ref.inp

 GLOBAL| Force Environment number                                              1
 GLOBAL| Basis set file name                                  ../PBE0_UCSEGBASIS
 GLOBAL| Potential file name                                        ../POTENTIAL
 GLOBAL| MM Potential file name                                     MM_POTENTIAL
 GLOBAL| Coordinate file name                                      __STD_INPUT__
 GLOBAL| Method name                                                        CP2K
 GLOBAL| Project name                                                     refSe8
 GLOBAL| Preferred FFT library                                             FFTW3
 GLOBAL| Preferred diagonalization lib.                                     ELPA
 GLOBAL| Run type                                                         ENERGY
 GLOBAL| All-to-all communication in single precision                          F
 GLOBAL| FFTs using library dependent lengths                                  F
 GLOBAL| Global print level                                                  LOW
 GLOBAL| MPI I/O enabled                                                       T
 GLOBAL| Total number of message passing processes                            32
 GLOBAL| Number of threads for this process                                    1
 GLOBAL| This output is from process                                           0
 GLOBAL| CPU model name                          AMD EPYC 7401 24-Core Processor
 GLOBAL| CPUID                                                              1002

 MEMORY| system memory details [Kb]
 MEMORY|                        rank 0           min           max       average
 MEMORY| MemTotal            263987256     263987256     263987256     263987256
 MEMORY| MemFree             260243960     260243960     260243960     260243960
 MEMORY| Buffers                    32            32            32            32
 MEMORY| Cached                 552472        552472        552472        552472
 MEMORY| Slab                   775556        775556        775556        775556
 MEMORY| SReclaimable           283868        283868        283868        283868
 MEMORY| MemLikelyFree       261080332     261080332     261080332     261080332


 GENERATE|  Preliminary Number of Bonds generated:                             8
 GENERATE|  Achieved consistency in connectivity generation.
 GENERATE|  Number of Bonds generated:                                         8
 GENERATE|  Preliminary Number of Bends generated:                             8
 GENERATE|  Number of Bends generated:                                         8
 GENERATE|  Number of UB generated:                                            8
 GENERATE|  Preliminary Number of Torsions generated:                          8
 GENERATE|  Number of Torsions generated:                                      8
 GENERATE|  Number of 1-4 interactions generated:                              8

 *******************************************************************************
 *******************************************************************************
 **                                                                           **
 **     #####                         ##              ##                      **
 **    ##   ##            ##          ##              ##                      **
 **   ##     ##                       ##            ######                    **
 **   ##     ##  ##   ##  ##   #####  ##  ##   ####   ##    #####    #####    **
 **   ##     ##  ##   ##  ##  ##      ## ##   ##      ##   ##   ##  ##   ##   **
 **   ##  ## ##  ##   ##  ##  ##      ####     ###    ##   ######   ######    **
 **    ##  ###   ##   ##  ##  ##      ## ##      ##   ##   ##       ##        **
 **     #######   #####   ##   #####  ##  ##  ####    ##    #####   ##        **
 **           ##                                                    ##        **
 **                                                                           **
 **                                                ... make the atoms dance   **
 **                                                                           **
 **            Copyright (C) by CP2K developers group (2000 - 2020)           **
 **                      J. Chem. Phys. 152, 194103 (2020)                    **
 **                                                                           **
 *******************************************************************************


 TOTAL NUMBERS AND MAXIMUM NUMBERS

  Total number of            - Atomic kinds:                                   1
                             - Atoms:                                          8
                             - Shell sets:                                    64
                             - Shells:                                       208
                             - Primitive Cartesian functions:                 64
                             - Cartesian basis functions:                    896
                             - Spherical basis functions:                    736

  Maximum angular momentum of- Orbital basis functions:                        3
                             - Local part of the GTH pseudopotential:          2
                             - Non-local part of the GTH pseudopotential:      4


 SCF PARAMETERS         Density guess:                                    ATOMIC
                        --------------------------------------------------------
                        max_scf:                                              20
                        max_scf_history:                                       0
                        max_diis:                                              4
                        --------------------------------------------------------
                        eps_scf:                                        1.00E-07
                        eps_scf_history:                                0.00E+00
                        eps_diis:                                       1.00E-01
                        eps_eigval:                                     1.00E-05
                        --------------------------------------------------------
                        level_shift [a.u.]:                                 0.00
                        --------------------------------------------------------
                        Outer loop SCF in use 
                        No variables optimised in outer loop
                        eps_scf                                         1.00E-07
                        max_scf                                               10
                        No outer loop optimization
                        step_size                                       5.00E-01

 Number of electrons:                                                         48
 Number of occupied orbitals:                                                 24
 Number of molecular orbitals:                                                24

 Number of orbital functions:                                                736
 Number of independent orbital functions:                                    736

 Extrapolation method: initial_guess


 SCF WAVEFUNCTION OPTIMIZATION

  ----------------------------------- OT ---------------------------------------
  Minimizer      : DIIS                : direct inversion
                                         in the iterative subspace
                                         using   7 DIIS vectors
                                         safer DIIS on
  Preconditioner : FULL_ALL            : diagonalization, state selective
  Precond_solver : DEFAULT
  stepsize       :    0.15000000                  energy_gap     :    0.08000000
  eps_taylor     :   0.10000E-15                  max_taylor     :             4
  ----------------------------------- OT ---------------------------------------

  Step     Update method      Time    Convergence         Total energy    Change
  ------------------------------------------------------------------------------
     1 OT DIIS     0.15E+00   73.7     0.05265004       -72.8340686543 -7.28E+01
     2 OT DIIS     0.15E+00    7.9     0.06363379       -72.9255749701 -9.15E-02
     3 OT DIIS     0.15E+00    6.9     0.04108968       -73.8907578581 -9.65E-01
     4 OT DIIS     0.15E+00    7.0     0.04289871       -74.6015724877 -7.11E-01
     5 OT DIIS     0.15E+00    7.0     0.01582268       -75.1701108328 -5.69E-01
     6 OT DIIS     0.15E+00    7.0     0.01606210       -75.3722616348 -2.02E-01
     7 OT DIIS     0.15E+00    7.0     0.01158589       -75.5168314867 -1.45E-01
     8 OT DIIS     0.15E+00    7.0     0.00667687       -75.6189114246 -1.02E-01
     9 OT DIIS     0.15E+00    7.0     0.00555051       -75.6661457654 -4.72E-02
    10 OT DIIS     0.15E+00    7.0     0.00346535       -75.6792054649 -1.31E-02
    11 OT DIIS     0.15E+00    7.0     0.00227577       -75.6850852726 -5.88E-03
    12 OT DIIS     0.15E+00    6.9     0.00142299       -75.6887734909 -3.69E-03
    13 OT DIIS     0.15E+00    7.0     0.00075730       -75.6907950182 -2.02E-03
    14 OT DIIS     0.15E+00    7.0     0.00056990       -75.6919203725 -1.13E-03
    15 OT DIIS     0.15E+00    7.0     0.00049542       -75.6924318960 -5.12E-04
    16 OT DIIS     0.15E+00    7.0     0.00043139       -75.6927116602 -2.80E-04
    17 OT DIIS     0.15E+00    7.0     0.00032712       -75.6931016294 -3.90E-04
    18 OT DIIS     0.15E+00    7.0     0.00031341       -75.6933031160 -2.01E-04
    19 OT DIIS     0.15E+00    7.0     0.00025378       -75.6935124587 -2.09E-04
    20 OT DIIS     0.15E+00    6.9     0.00022991       -75.6936444119 -1.32E-04

  Leaving inner SCF loop after reaching    20 steps.


  Electronic density on regular grids:        -48.0000000000        0.0000000000
  Core density on regular grids:               48.0000000000        0.0000000000
  Total charge density on r-space grids:        0.0000000000
  Total charge density g-space grids:           0.0000000000

  Overlap energy of the core charge distribution:               0.00000002056591
  Self energy of the core charge distribution:               -161.29332603472287
  Core Hamiltonian energy:                                     35.46105654496920
  Hartree energy:                                              66.42277304379658
  Exchange-correlation energy:                                -12.65866375960615
  Hartree-Fock Exchange energy:                                -3.62548422689648

  Total energy:                                               -75.69364441189379

  outer SCF iter =    1 RMS gradient =   0.23E-03 energy =        -75.6936444119

  ----------------------------------- OT ---------------------------------------
  Minimizer      : DIIS                : direct inversion
                                         in the iterative subspace
                                         using   7 DIIS vectors
                                         safer DIIS on
  Preconditioner : FULL_ALL            : diagonalization, state selective
  Precond_solver : DEFAULT
  stepsize       :    0.15000000                  energy_gap     :    0.08000000
  eps_taylor     :   0.10000E-15                  max_taylor     :             4
  ----------------------------------- OT ---------------------------------------

  Step     Update method      Time    Convergence         Total energy    Change
  ------------------------------------------------------------------------------
     1 OT DIIS     0.15E+00   14.1     0.00027993       -75.6937504698 -1.06E-04
     2 OT DIIS     0.15E+00    7.0     0.00014922       -75.6938945490 -1.44E-04
     3 OT DIIS     0.15E+00    7.0     0.00009245       -75.6939352583 -4.07E-05
     4 OT DIIS     0.15E+00    7.0     0.00001310       -75.6939484172 -1.32E-05
     5 OT DIIS     0.15E+00    7.0     0.00000689       -75.6939487440 -3.27E-07
     6 OT DIIS     0.15E+00    7.0     0.00000286       -75.6939488133 -6.92E-08
     7 OT DIIS     0.15E+00    7.0     0.00000065       -75.6939488278 -1.45E-08
     8 OT DIIS     0.15E+00    6.9     0.00000027       -75.6939488286 -7.81E-10
     9 OT DIIS     0.15E+00    7.0     0.00000010       -75.6939488287 -1.06E-10
    10 OT DIIS     0.15E+00    7.0     0.00000003       -75.6939488287 -1.86E-11

  *** SCF run converged in    10 steps ***


  Electronic density on regular grids:        -48.0000000000        0.0000000000
  Core density on regular grids:               48.0000000000        0.0000000000
  Total charge density on r-space grids:        0.0000000000
  Total charge density g-space grids:           0.0000000000

  Overlap energy of the core charge distribution:               0.00000002056591
  Self energy of the core charge distribution:               -161.29332603472287
  Core Hamiltonian energy:                                     35.46019397696229
  Hartree energy:                                              66.42299957796851
  Exchange-correlation energy:                                -12.65847024308592
  Hartree-Fock Exchange energy:                                -3.62534612639041

  Total energy:                                               -75.69394882870247

  outer SCF iter =    2 RMS gradient =   0.30E-07 energy =        -75.6939488287
  outer SCF loop converged in   2 iterations or   30 steps


 ENERGY| Total FORCE_EVAL ( QS ) energy [a.u.]:              -75.693948828702474

 -------------------------------------------------------------------------------
 -                                                                             -
 -                                DBCSR STATISTICS                             -
 -                                                                             -
 -------------------------------------------------------------------------------
 COUNTER                                    TOTAL       BLAS       SMM       ACC
 flops    24 x    24 x    24              7354368       0.0%    100.0%      0.0%
 flops    24 x    24 x    92            103440384       0.0%    100.0%      0.0%
 flops   184 x    24 x    24            128876544       0.0%    100.0%      0.0%
 flops    92 x    92 x    24            453399552       0.0%    100.0%      0.0%
 flops   184 x    24 x    92           1664090112       0.0%    100.0%      0.0%
 flops    92 x    24 x    92           1924104192       0.0%    100.0%      0.0%
 flops inhomo. stacks                           0       0.0%      0.0%      0.0%
 flops total                         4.281265E+09       0.0%    100.0%      0.0%
 flops max/rank                      1.052657E+09       0.0%    100.0%      0.0%
 matmuls inhomo. stacks                         0       0.0%      0.0%      0.0%
 matmuls total                               9750       0.0%    100.0%      0.0%
 number of processed stacks                  7103       0.0%    100.0%      0.0%
 average stack size                                     0.0       1.4       0.0
 marketing flops                     4.635605E+09
 -------------------------------------------------------------------------------
 # multiplications                            711
 max memory usage/rank               6.932500E+09
 # max total images/rank                        2
 # max 3D layers                                1
 # MPI messages exchanged                  295776
 MPI messages size (bytes):
  total size                         4.625652E+09
  min size                           0.000000E+00
  max size                         135.424000E+03
  average size                      15.639037E+03
 MPI breakdown and total messages size (bytes):
             size <=      128              242808                        0
       128 < size <=     8192                3116                 14358528
      8192 < size <=    32768               13816                244045824
     32768 < size <=   131072                5124                181020672
    131072 < size <=  4194304               30912               4186226688
   4194304 < size <= 16777216                   0                        0
  16777216 < size                               0                        0
 -------------------------------------------------------------------------------

 *** WARNING in dbcsr_mm.F:294 :: Using a non-square number of MPI ranks ***
 *** might lead to poor performance. Used ranks: 32 Suggested: 36 64     ***

 -------------------------------------------------------------------------------
 -                                                                             -
 -                      DBCSR MESSAGE PASSING PERFORMANCE                      -
 -                                                                             -
 -------------------------------------------------------------------------------
 ROUTINE             CALLS      AVE VOLUME [Bytes]
 MP_Bcast                7                     12.
 MP_Allreduce         3815                      8.
 MP_Alltoall          2546                   4686.
 MP_ISend            21692                   9180.
 MP_IRecv            21386                   8943.
 -------------------------------------------------------------------------------

 -------------------------------------------------------------------------------
 -                                                                             -
 -                                GRID STATISTICS                              -
 -                                                                             -
 -------------------------------------------------------------------------------
 LP    KERNEL    OPERATION                                     COUNT     PERCENT
 0     general   collocate                                       256       0.22%
 2     ortho     integrate                                      3360       2.86%
 2     ortho     collocate                                      3472       2.96%
 4     ortho     integrate                                     27600      23.51%
 4     ortho     collocate                                     28520      24.30%
 6     ortho     integrate                                     26640      22.70%
 6     ortho     collocate                                     27528      23.45%
 -------------------------------------------------------------------------------

 MEMORY| Estimated peak process memory [MiB]                                6612

 -------------------------------------------------------------------------------
 -                                                                             -
 -                         MESSAGE PASSING PERFORMANCE                         -
 -                                                                             -
 -------------------------------------------------------------------------------

 ROUTINE             CALLS      AVE VOLUME [Bytes]
 MP_Group                5
 MP_Bcast             1029                  75975.
 MP_Allreduce         2706                   1534.
 MP_Sync               157
 MP_Alltoall           592               31691095.
 MP_ISendRecv         5704                 169354.
 MP_Wait             10684
 MP_ISend             4550                 689514.
 MP_IRecv             4550                 689316.
 MP_Recv                14                  17664.
 -------------------------------------------------------------------------------


 -------------------------------------------------------------------------------
 -                                                                             -
 -                           R E F E R E N C E S                               -
 -                                                                             -
 -------------------------------------------------------------------------------
 
 CP2K version 8.0 (Development Version), the CP2K developers group (2020).
 CP2K is freely available from https://www.cp2k.org/ .

 Kuehne,Thomas D.; Iannuzzi,Marcella; Del Ben,Mauro;
 Rybkin,Vladimir V.; Seewald,Patrick; Stein,Frederick; Laino,Teodoro;
 Khaliullin,Rustam Z.; Schuett,Ole; Schiffmann,Florian; Golze,Dorothea;
 Wilhelm,Jan; Chulkov,Sergey; Bani-Hashemian,Mohammad Hossein;
 Weber,Valery; Borstnik,Urban; Taillefumier,Mathieu;
 Jakobovits,Alice Shoshana; Lazzaro,Alfio; Pabst,Hans; Mueller,Tiziano;
 Schade,Robert; Guidon,Manuel; Andermatt,Samuel; Holmberg,Nico;
 Schenter,Gregory K.; Hehn,Anna; Bussy,Augustin; Belleflamme,Fabian;
 Tabacchi,Gloria; Gloess,Andreas; Lass,Michael; Bethune,Iain;
 Mundy,Christopher J.; Plessl,Christian; Watkins,Matt;
 VandeVondele,Joost; Krack,Matthias; Hutter,Juerg. 
 The Journal of Chemical Physics, 152 (19), (2020). 
 CP2K: An electronic structure and molecular dynamics software package -
 Quickstep: Efficient and accurate electronic structure calculations.
 https://doi.org/10.1063/5.0007045

 Schuett, Ole; Messmer, Peter; Hutter, Juerg; VandeVondele, Joost. 
 Electronic Structure Calculations on Graphics Processing Units, John
 Wiley & Sons, Ltd, 173-190 (2016). 
 GPU-Accelerated Sparse Matrix-Matrix Multiplication for
 Linear Scaling Density Functional Theory.
 https://doi.org/10.1002/9781118670712.ch8

 Borstnik, U; VandeVondele, J; Weber, V; Hutter, J. 
 PARALLEL COMPUTING, 40 (5-6), 47-58 (2014). 
 Sparse matrix multiplication: The distributed block-compressed sparse
 row library.
 https://doi.org/10.1016/j.parco.2014.03.012

 Hutter, J; Iannuzzi, M; Schiffmann, F; VandeVondele, J. 
 WIREs Comput Mol Sci., 4 (1), 15-25 (2014). 
 CP2K: atomistic simulations of condensed matter systems.
 https://doi.org/10.1002/wcms.1159

 Marek, A; Blum, V; Johanni, R; Havu, V; Lang, B; Auckenthaler, T;
 Heinecke, A; Bungartz, H; Lederer, H. 
 Journal of Physics: Condensed Matter, 26 (21), (2014). 
 The ELPA library: scalable parallel eigenvalue solutions for
 electronic structure
 theory and computational science.
 https://doi.org/10.1088/0953-8984/26/21/213201

 Guidon, M; Hutter, J; VandeVondele, J. 
 JOURNAL OF CHEMICAL THEORY AND COMPUTATION, 5 (11), 3010-3021 (2009). 
 Robust Periodic Hartree-Fock Exchange for Large-Scale Simulations Using
 Gaussian Basis Sets.
 https://doi.org/10.1021/ct900494g

 Guidon, M; Schiffmann, F; Hutter, J; VandeVondele, J. 
 JOURNAL OF CHEMICAL PHYSICS, 128 (21), 214104 (2008). 
 Ab initio molecular dynamics using hybrid density functionals.
 https://doi.org/10.1063/1.2931945

 Krack, M. 
 THEORETICAL CHEMISTRY ACCOUNTS, 114 (1-3), 145-152 (2005). 
 Pseudopotentials for H to Kr optimized for gradient-corrected
 exchange-correlation functionals.
 https://doi.org/10.1007/s00214-005-0655-y

 VandeVondele, J; Krack, M; Mohamed, F; Parrinello, M; Chassaing, T;
 Hutter, J. COMPUTER PHYSICS COMMUNICATIONS, 167 (2), 103-128 (2005). 
 QUICKSTEP: Fast and accurate density functional calculations using a
 mixed Gaussian and plane waves approach.
 https://doi.org/10.1016/j.cpc.2004.12.014

 Frigo, M; Johnson, SG. 
 PROCEEDINGS OF THE IEEE, 93 (2), 216-231 (2005). 
 The design and implementation of FFTW3.
 https://doi.org/10.1109/JPROC.2004.840301

 VandeVondele, J; Hutter, J. 
 JOURNAL OF CHEMICAL PHYSICS, 118 (10), 4365-4369 (2003). 
 An efficient orbital transformation method for electronic structure
 calculations.
 https://doi.org/10.1063/1.1543154

 Martyna, GJ; Tuckerman, ME. 
 JOURNAL OF CHEMICAL PHYSICS, 110 (6), 2810-2821 (1999). 
 A reciprocal space based method for treating long range interactions in
 ab initio and force-field-based calculations in clusters.
 https://doi.org/10.1063/1.477923

 Hartwigsen, C; Goedecker, S; Hutter, J. 
 PHYSICAL REVIEW B, 58 (7), 3641-3662 (1998). 
 Relativistic separable dual-space Gaussian pseudopotentials from H to Rn.
 https://doi.org/10.1103/PhysRevB.58.3641

 Lippert, G; Hutter, J; Parrinello, M. 
 MOLECULAR PHYSICS, 92 (3), 477-487 (1997). 
 A hybrid Gaussian and plane wave density functional scheme.
 https://doi.org/10.1080/002689797170220

 Perdew, JP; Burke, K; Ernzerhof, M. 
 PHYSICAL REVIEW LETTERS, 77 (18), 3865-3868 (1996). 
 Generalized gradient approximation made simple.
 https://doi.org/10.1103/PhysRevLett.77.3865

 Goedecker, S; Teter, M; Hutter, J. 
 PHYSICAL REVIEW B, 54 (3), 1703-1710 (1996). 
 Separable dual-space Gaussian pseudopotentials.
 https://doi.org/10.1103/PhysRevB.54.1703


 -------------------------------------------------------------------------------
 -                                                                             -
 -                                T I M I N G                                  -
 -                                                                             -
 -------------------------------------------------------------------------------
 SUBROUTINE                       CALLS  ASD         SELF TIME        TOTAL TIME
                                MAXIMUM       AVERAGE  MAXIMUM  AVERAGE  MAXIMUM
 CP2K                                 1  1.0    0.619    0.637  279.654  279.661
 qs_energies                          1  2.0    0.000    0.000  277.986  277.993
 scf_env_do_scf                       1  3.0    0.000    0.000  277.353  277.360
 qs_ks_update_qs_env                 32  5.0    0.000    0.000  264.453  264.469
 rebuild_ks_matrix                   30  6.0    0.000    0.000  264.448  264.465
 qs_ks_build_kohn_sham_matrix        30  7.0    0.005    0.006  264.448  264.465
 hfx_ks_matrix                       30  8.0    0.001    0.001  223.573  223.579
 integrate_four_center               30  9.0    0.032    0.033  223.569  223.575
 integrate_four_center_main          30 10.0    0.007    0.010  215.901  218.996
 integrate_four_center_bin         3210 11.0  215.893  218.989  215.893  218.989
 scf_env_do_scf_inner_loop           30  4.0    0.001    0.004  196.960  196.965
 init_scf_loop                        2  4.0    0.000    0.000   80.392   80.394
 pw_transfer                        577  9.6    0.067    0.085   32.390   36.812
 fft_wrap_pw1pw2                    517 10.7    0.009    0.012   32.027   36.458
 fft_wrap_pw1pw2_300                333 11.8    2.193    2.302   30.270   34.719
 fft3d_ps                           517 12.7   10.422   11.042   23.334   27.892
 qs_vxc_create                       30  8.0    0.001    0.001   27.821   27.879
 xc_vxc_pw_create                    30  9.0    0.257    0.307   27.820   27.878
 xc_rho_set_and_dset_create          30 10.0    0.126    0.139   13.610   16.674
 mp_alltoall_z22v                   517 14.7    8.020   13.104    8.020   13.104
 mp_sync                            157 10.7    5.041   12.981    5.041   12.981
 yz_to_x                            246 13.1    2.306    2.600    7.756   12.427
 qs_rho_update_rho                   31  5.0    0.000    0.000   12.067   12.068
 calculate_rho_elec                  31  6.0    0.113    0.121   12.067   12.068
 density_rs2pw                       31  7.0    0.002    0.003    9.871   10.375
 sum_up_and_integrate                30  8.0    0.070    0.077    8.663    8.666
 integrate_v_rspace                  30  9.0    0.001    0.001    8.593    8.598
 rs_pw_transfer                     245  9.5    0.006    0.008    8.042    8.539
 xc_functional_eval                  30 11.0    0.000    0.001    4.702    7.763
 pbe_lda_eval                        30 12.0    4.702    7.763    4.702    7.763
 potential_pw2rs                     30 10.0    0.009    0.012    7.564    7.573
 -------------------------------------------------------------------------------

 The number of warnings for this run is : 1
 
 -------------------------------------------------------------------------------
  **** **** ******  **  PROGRAM ENDED AT                 2020-12-17 18:05:55.378
 ***** ** ***  *** **   PROGRAM RAN ON                                   tcopt10
 **    ****   ******    PROGRAM RAN BY                                    hutter
 ***** **    ** ** **   PROGRAM PROCESS ID                                  7812
  **** **  *******  **  PROGRAM STOPPED IN /data/hutter/GITHUB/BASIS/MOLOPT/PBE0
                                           /Se
