 DBCSR| CPU Multiplication driver                                           XSMM
 DBCSR| Multrec recursion limit                                              512
 DBCSR| Multiplication stack size                                           1000
 DBCSR| Maximum elements for images                                    UNLIMITED
 DBCSR| Multiplicative factor virtual images                                   1
 DBCSR| Use multiplication densification                                       T
 DBCSR| Multiplication size stacks                                             3
 DBCSR| Use memory pool for CPU allocation                                     F
 DBCSR| Number of 3D layers                                               SINGLE
 DBCSR| Use MPI memory allocation                                              F
 DBCSR| Use RMA algorithm                                                      F
 DBCSR| Use Communication thread                                               T
 DBCSR| Communication thread load                                             87
 DBCSR| MPI: My node id                                                        0
 DBCSR| MPI: Number of nodes                                                  16
 DBCSR| OMP: Current number of threads                                         1
 DBCSR| OMP: Max number of threads                                             1
 DBCSR| Split modifier for TAS multiplication algorithm                  1.0E+00


  **** **** ******  **  PROGRAM STARTED AT               2020-12-17 17:38:05.031
 ***** ** ***  *** **   PROGRAM STARTED ON                               tcopt10
 **    ****   ******    PROGRAM STARTED BY                                hutter
 ***** **    ** ** **   PROGRAM PROCESS ID                                  5388
  **** **  *******  **  PROGRAM STARTED IN /data/hutter/GITHUB/BASIS/MOLOPT/PBE0
                                           /Se

 CP2K| version string:                    CP2K version 8.0 (Development Version)
 CP2K| source code revision number:                                  git:7416431
 CP2K| cp2kflags: omp libint fftw3 libxc elpa parallel mpi3 scalapack xsmm spgli
 CP2K|            b sirius
 CP2K| is freely available from                            https://www.cp2k.org/
 CP2K| Program compiled at                          Thu Dec 10 17:08:57 CET 2020
 CP2K| Program compiled on                                               tcopt10
 CP2K| Program compiled for                                                local
 CP2K| Data directory path                 /data/hutter/GITHUB/CURRENT/cp2k/data
 CP2K| Input file name                                              SeH2-ref.inp

 GLOBAL| Force Environment number                                              1
 GLOBAL| Basis set file name                                  ../PBE0_UCSEGBASIS
 GLOBAL| Potential file name                                        ../POTENTIAL
 GLOBAL| MM Potential file name                                     MM_POTENTIAL
 GLOBAL| Coordinate file name                                      __STD_INPUT__
 GLOBAL| Method name                                                        CP2K
 GLOBAL| Project name                                                    refSeH2
 GLOBAL| Preferred FFT library                                             FFTW3
 GLOBAL| Preferred diagonalization lib.                                     ELPA
 GLOBAL| Run type                                                         ENERGY
 GLOBAL| All-to-all communication in single precision                          F
 GLOBAL| FFTs using library dependent lengths                                  F
 GLOBAL| Global print level                                                  LOW
 GLOBAL| MPI I/O enabled                                                       T
 GLOBAL| Total number of message passing processes                            16
 GLOBAL| Number of threads for this process                                    1
 GLOBAL| This output is from process                                           0
 GLOBAL| CPU model name                          AMD EPYC 7401 24-Core Processor
 GLOBAL| CPUID                                                              1002

 MEMORY| system memory details [Kb]
 MEMORY|                        rank 0           min           max       average
 MEMORY| MemTotal            263987256     263987256     263987256     263987256
 MEMORY| MemFree             261030980     261030980     261030980     261030980
 MEMORY| Buffers                    32            32            32            32
 MEMORY| Cached                 518068        518068        518068        518068
 MEMORY| Slab                   773840        773840        773840        773840
 MEMORY| SReclaimable           282332        282332        282332        282332
 MEMORY| MemLikelyFree       261831412     261831412     261831412     261831412


 GENERATE|  Preliminary Number of Bonds generated:                             1
 GENERATE|  Achieved consistency in connectivity generation.
 GENERATE|  Number of Bonds generated:                                         1
 GENERATE|  Preliminary Number of Bends generated:                             0
 GENERATE|  Preliminary Number of Torsions generated:                          0

 *******************************************************************************
 *******************************************************************************
 **                                                                           **
 **     #####                         ##              ##                      **
 **    ##   ##            ##          ##              ##                      **
 **   ##     ##                       ##            ######                    **
 **   ##     ##  ##   ##  ##   #####  ##  ##   ####   ##    #####    #####    **
 **   ##     ##  ##   ##  ##  ##      ## ##   ##      ##   ##   ##  ##   ##   **
 **   ##  ## ##  ##   ##  ##  ##      ####     ###    ##   ######   ######    **
 **    ##  ###   ##   ##  ##  ##      ## ##      ##   ##   ##       ##        **
 **     #######   #####   ##   #####  ##  ##  ####    ##    #####   ##        **
 **           ##                                                    ##        **
 **                                                                           **
 **                                                ... make the atoms dance   **
 **                                                                           **
 **            Copyright (C) by CP2K developers group (2000 - 2020)           **
 **                      J. Chem. Phys. 152, 194103 (2020)                    **
 **                                                                           **
 *******************************************************************************


 TOTAL NUMBERS AND MAXIMUM NUMBERS

  Total number of            - Atomic kinds:                                   2
                             - Atoms:                                          3
                             - Shell sets:                                    32
                             - Shells:                                        66
                             - Primitive Cartesian functions:                 32
                             - Cartesian basis functions:                    280
                             - Spherical basis functions:                    228

  Maximum angular momentum of- Orbital basis functions:                        3
                             - Local part of the GTH pseudopotential:          2
                             - Non-local part of the GTH pseudopotential:      4


 SCF PARAMETERS         Density guess:                                    ATOMIC
                        --------------------------------------------------------
                        max_scf:                                              10
                        max_scf_history:                                       0
                        max_diis:                                              4
                        --------------------------------------------------------
                        eps_scf:                                        1.00E-07
                        eps_scf_history:                                0.00E+00
                        eps_diis:                                       1.00E-01
                        eps_eigval:                                     1.00E-05
                        --------------------------------------------------------
                        level_shift [a.u.]:                                 0.00
                        --------------------------------------------------------
                        Outer loop SCF in use 
                        No variables optimised in outer loop
                        eps_scf                                         1.00E-07
                        max_scf                                               10
                        No outer loop optimization
                        step_size                                       5.00E-01

 Number of electrons:                                                          8
 Number of occupied orbitals:                                                  4
 Number of molecular orbitals:                                                 4

 Number of orbital functions:                                                228
 Number of independent orbital functions:                                    228

 Extrapolation method: initial_guess


 SCF WAVEFUNCTION OPTIMIZATION

  ----------------------------------- OT ---------------------------------------
  Minimizer      : DIIS                : direct inversion
                                         in the iterative subspace
                                         using   7 DIIS vectors
                                         safer DIIS on
  Preconditioner : FULL_ALL            : diagonalization, state selective
  Precond_solver : DEFAULT
  stepsize       :    0.15000000                  energy_gap     :    0.08000000
  eps_taylor     :   0.10000E-15                  max_taylor     :             4
  ----------------------------------- OT ---------------------------------------

  Step     Update method      Time    Convergence         Total energy    Change
  ------------------------------------------------------------------------------
     1 OT DIIS     0.15E+00   12.9     0.09698382        -9.5470758982 -9.55E+00
     2 OT DIIS     0.15E+00    2.7     0.13670029        -9.8111313815 -2.64E-01
     3 OT DIIS     0.15E+00    2.7     0.06797785       -10.3728542940 -5.62E-01
     4 OT DIIS     0.15E+00    2.6     0.05050029       -10.4723467829 -9.95E-02
     5 OT DIIS     0.15E+00    2.6     0.06925911       -10.5118093689 -3.95E-02
     6 OT DIIS     0.15E+00    2.6     0.01738649       -10.6136274129 -1.02E-01
     7 OT DIIS     0.15E+00    2.6     0.00896788       -10.6251357560 -1.15E-02
     8 OT DIIS     0.15E+00    2.6     0.01119306       -10.6258288557 -6.93E-04
     9 OT DIIS     0.15E+00    2.6     0.00398538       -10.6298626556 -4.03E-03
    10 OT DIIS     0.15E+00    2.6     0.00236756       -10.6303992655 -5.37E-04

  Leaving inner SCF loop after reaching    10 steps.


  Electronic density on regular grids:         -8.0000000000        0.0000000000
  Core density on regular grids:                8.0000000000       -0.0000000000
  Total charge density on r-space grids:       -0.0000000000
  Total charge density g-space grids:          -0.0000000000

  Overlap energy of the core charge distribution:               0.00000098547963
  Self energy of the core charge distribution:                -22.97564348313983
  Core Hamiltonian energy:                                      5.38539568751745
  Hartree energy:                                               9.68090760591307
  Exchange-correlation energy:                                 -2.10186854878459
  Hartree-Fock Exchange energy:                                -0.61919151248279

  Total energy:                                               -10.63039926549706

  outer SCF iter =    1 RMS gradient =   0.24E-02 energy =        -10.6303992655

  ----------------------------------- OT ---------------------------------------
  Minimizer      : DIIS                : direct inversion
                                         in the iterative subspace
                                         using   7 DIIS vectors
                                         safer DIIS on
  Preconditioner : FULL_ALL            : diagonalization, state selective
  Precond_solver : DEFAULT
  stepsize       :    0.15000000                  energy_gap     :    0.08000000
  eps_taylor     :   0.10000E-15                  max_taylor     :             4
  ----------------------------------- OT ---------------------------------------

  Step     Update method      Time    Convergence         Total energy    Change
  ------------------------------------------------------------------------------
     1 OT DIIS     0.15E+00    5.2     0.00064205       -10.6306580912 -2.59E-04
     2 OT DIIS     0.15E+00    2.6     0.00027875       -10.6306974622 -3.94E-05
     3 OT DIIS     0.15E+00    2.6     0.00005696       -10.6307068827 -9.42E-06
     4 OT DIIS     0.15E+00    2.6     0.00001092       -10.6307072503 -3.68E-07
     5 OT DIIS     0.15E+00    2.6     0.00000319       -10.6307072649 -1.46E-08
     6 OT DIIS     0.15E+00    2.6     0.00000053       -10.6307072663 -1.37E-09
     7 OT DIIS     0.15E+00    2.6     0.00000010       -10.6307072663 -3.69E-11
     8 OT DIIS     0.15E+00    2.5     0.00000003       -10.6307072663 -1.51E-12

  *** SCF run converged in     8 steps ***


  Electronic density on regular grids:         -8.0000000000        0.0000000000
  Core density on regular grids:                8.0000000000       -0.0000000000
  Total charge density on r-space grids:       -0.0000000000
  Total charge density g-space grids:          -0.0000000000

  Overlap energy of the core charge distribution:               0.00000098547963
  Self energy of the core charge distribution:                -22.97564348313983
  Core Hamiltonian energy:                                      5.38646787552280
  Hartree energy:                                               9.67906177265349
  Exchange-correlation energy:                                 -2.10166486725052
  Hartree-Fock Exchange energy:                                -0.61892954958148

  Total energy:                                               -10.63070726631591

  outer SCF iter =    2 RMS gradient =   0.28E-07 energy =        -10.6307072663
  outer SCF loop converged in   2 iterations or   18 steps


 ENERGY| Total FORCE_EVAL ( QS ) energy [a.u.]:              -10.630707266315911

 -------------------------------------------------------------------------------
 -                                                                             -
 -                                DBCSR STATISTICS                             -
 -                                                                             -
 -------------------------------------------------------------------------------
 COUNTER                                    TOTAL       BLAS       SMM       ACC
 flops     4 x     4 x     4                16384       0.0%    100.0%      0.0%
 flops     4 x     4 x    92               217856       0.0%    100.0%      0.0%
 flops    92 x     4 x     4               270848       0.0%    100.0%      0.0%
 flops     4 x     4 x    68               322048       0.0%    100.0%      0.0%
 flops    68 x     4 x     4               400384       0.0%    100.0%      0.0%
 flops    68 x    92 x     4               950912       0.0%    100.0%      0.0%
 flops    92 x    68 x     4               950912       0.0%    100.0%      0.0%
 flops    92 x    92 x     4              1286528       0.0%    100.0%      0.0%
 flops    68 x    68 x     4              2108544       0.0%    100.0%      0.0%
 flops    92 x     4 x    92              6094080       0.0%    100.0%      0.0%
 flops    92 x     4 x    68              9008640       0.0%    100.0%      0.0%
 flops    68 x     4 x    92              9008640       0.0%    100.0%      0.0%
 flops    68 x     4 x    68             13317120       0.0%    100.0%      0.0%
 flops inhomo. stacks                           0       0.0%      0.0%      0.0%
 flops total                        43.952896E+06       0.0%    100.0%      0.0%
 flops max/rank                     17.216384E+06       0.0%    100.0%      0.0%
 matmuls inhomo. stacks                         0       0.0%      0.0%      0.0%
 matmuls total                               1550       0.0%    100.0%      0.0%
 number of processed stacks                  1550       0.0%    100.0%      0.0%
 average stack size                                     0.0       1.0       0.0
 marketing flops                    46.572160E+06
 -------------------------------------------------------------------------------
 # multiplications                            405
 max memory usage/rank               1.772925E+09
 # max total images/rank                        1
 # max 3D layers                                1
 # MPI messages exchanged                   38880
 MPI messages size (bytes):
  total size                       120.473856E+06
  min size                           0.000000E+00
  max size                          67.712000E+03
  average size                       3.098607E+03
 MPI breakdown and total messages size (bytes):
             size <=      128               33138                   133632
       128 < size <=     8192                3312                  8054784
      8192 < size <=    32768                   0                        0
     32768 < size <=   131072                2430                112285440
    131072 < size <=  4194304                   0                        0
   4194304 < size <= 16777216                   0                        0
  16777216 < size                               0                        0
 -------------------------------------------------------------------------------
 -                                                                             -
 -                      DBCSR MESSAGE PASSING PERFORMANCE                      -
 -                                                                             -
 -------------------------------------------------------------------------------
 ROUTINE             CALLS      AVE VOLUME [Bytes]
 MP_Bcast               14                     12.
 MP_Allreduce         2179                      8.
 MP_Alltoall          1634                   1744.
 MP_ISend             6472                   1946.
 MP_IRecv             6472                   1605.
 -------------------------------------------------------------------------------

 -------------------------------------------------------------------------------
 -                                                                             -
 -                                GRID STATISTICS                              -
 -                                                                             -
 -------------------------------------------------------------------------------
 LP    KERNEL    OPERATION                                     COUNT     PERCENT
 0     general   collocate                                        48       0.19%
 0     ortho     integrate                                      3348      13.28%
 0     ortho     collocate                                      3534      14.02%
 1     ortho     integrate                                       828       3.28%
 1     ortho     collocate                                       874       3.47%
 2     ortho     integrate                                       162       0.64%
 2     ortho     collocate                                       171       0.68%
 3     ortho     integrate                                      4896      19.42%
 3     ortho     collocate                                      5168      20.50%
 4     ortho     integrate                                       972       3.86%
 4     ortho     collocate                                      1026       4.07%
 6     ortho     integrate                                      2034       8.07%
 6     ortho     collocate                                      2147       8.52%
 -------------------------------------------------------------------------------

 MEMORY| Estimated peak process memory [MiB]                                1692

 -------------------------------------------------------------------------------
 -                                                                             -
 -                         MESSAGE PASSING PERFORMANCE                         -
 -                                                                             -
 -------------------------------------------------------------------------------

 ROUTINE             CALLS      AVE VOLUME [Bytes]
 MP_Group                5
 MP_Bcast              185                 842175.
 MP_Allreduce          566                   6866.
 MP_Sync                97
 MP_Alltoall           364               63810989.
 MP_ISendRecv         1680                 244840.
 MP_Wait              3405
 MP_ISend             1500                1616816.
 MP_IRecv             1500                1617012.
 MP_Recv                 3                   1824.
 -------------------------------------------------------------------------------


 -------------------------------------------------------------------------------
 -                                                                             -
 -                           R E F E R E N C E S                               -
 -                                                                             -
 -------------------------------------------------------------------------------
 
 CP2K version 8.0 (Development Version), the CP2K developers group (2020).
 CP2K is freely available from https://www.cp2k.org/ .

 Kuehne,Thomas D.; Iannuzzi,Marcella; Del Ben,Mauro;
 Rybkin,Vladimir V.; Seewald,Patrick; Stein,Frederick; Laino,Teodoro;
 Khaliullin,Rustam Z.; Schuett,Ole; Schiffmann,Florian; Golze,Dorothea;
 Wilhelm,Jan; Chulkov,Sergey; Bani-Hashemian,Mohammad Hossein;
 Weber,Valery; Borstnik,Urban; Taillefumier,Mathieu;
 Jakobovits,Alice Shoshana; Lazzaro,Alfio; Pabst,Hans; Mueller,Tiziano;
 Schade,Robert; Guidon,Manuel; Andermatt,Samuel; Holmberg,Nico;
 Schenter,Gregory K.; Hehn,Anna; Bussy,Augustin; Belleflamme,Fabian;
 Tabacchi,Gloria; Gloess,Andreas; Lass,Michael; Bethune,Iain;
 Mundy,Christopher J.; Plessl,Christian; Watkins,Matt;
 VandeVondele,Joost; Krack,Matthias; Hutter,Juerg. 
 The Journal of Chemical Physics, 152 (19), (2020). 
 CP2K: An electronic structure and molecular dynamics software package -
 Quickstep: Efficient and accurate electronic structure calculations.
 https://doi.org/10.1063/5.0007045

 Schuett, Ole; Messmer, Peter; Hutter, Juerg; VandeVondele, Joost. 
 Electronic Structure Calculations on Graphics Processing Units, John
 Wiley & Sons, Ltd, 173-190 (2016). 
 GPU-Accelerated Sparse Matrix-Matrix Multiplication for
 Linear Scaling Density Functional Theory.
 https://doi.org/10.1002/9781118670712.ch8

 Borstnik, U; VandeVondele, J; Weber, V; Hutter, J. 
 PARALLEL COMPUTING, 40 (5-6), 47-58 (2014). 
 Sparse matrix multiplication: The distributed block-compressed sparse
 row library.
 https://doi.org/10.1016/j.parco.2014.03.012

 Hutter, J; Iannuzzi, M; Schiffmann, F; VandeVondele, J. 
 WIREs Comput Mol Sci., 4 (1), 15-25 (2014). 
 CP2K: atomistic simulations of condensed matter systems.
 https://doi.org/10.1002/wcms.1159

 Marek, A; Blum, V; Johanni, R; Havu, V; Lang, B; Auckenthaler, T;
 Heinecke, A; Bungartz, H; Lederer, H. 
 Journal of Physics: Condensed Matter, 26 (21), (2014). 
 The ELPA library: scalable parallel eigenvalue solutions for
 electronic structure
 theory and computational science.
 https://doi.org/10.1088/0953-8984/26/21/213201

 Guidon, M; Hutter, J; VandeVondele, J. 
 JOURNAL OF CHEMICAL THEORY AND COMPUTATION, 5 (11), 3010-3021 (2009). 
 Robust Periodic Hartree-Fock Exchange for Large-Scale Simulations Using
 Gaussian Basis Sets.
 https://doi.org/10.1021/ct900494g

 Guidon, M; Schiffmann, F; Hutter, J; VandeVondele, J. 
 JOURNAL OF CHEMICAL PHYSICS, 128 (21), 214104 (2008). 
 Ab initio molecular dynamics using hybrid density functionals.
 https://doi.org/10.1063/1.2931945

 Krack, M. 
 THEORETICAL CHEMISTRY ACCOUNTS, 114 (1-3), 145-152 (2005). 
 Pseudopotentials for H to Kr optimized for gradient-corrected
 exchange-correlation functionals.
 https://doi.org/10.1007/s00214-005-0655-y

 VandeVondele, J; Krack, M; Mohamed, F; Parrinello, M; Chassaing, T;
 Hutter, J. COMPUTER PHYSICS COMMUNICATIONS, 167 (2), 103-128 (2005). 
 QUICKSTEP: Fast and accurate density functional calculations using a
 mixed Gaussian and plane waves approach.
 https://doi.org/10.1016/j.cpc.2004.12.014

 Frigo, M; Johnson, SG. 
 PROCEEDINGS OF THE IEEE, 93 (2), 216-231 (2005). 
 The design and implementation of FFTW3.
 https://doi.org/10.1109/JPROC.2004.840301

 VandeVondele, J; Hutter, J. 
 JOURNAL OF CHEMICAL PHYSICS, 118 (10), 4365-4369 (2003). 
 An efficient orbital transformation method for electronic structure
 calculations.
 https://doi.org/10.1063/1.1543154

 Martyna, GJ; Tuckerman, ME. 
 JOURNAL OF CHEMICAL PHYSICS, 110 (6), 2810-2821 (1999). 
 A reciprocal space based method for treating long range interactions in
 ab initio and force-field-based calculations in clusters.
 https://doi.org/10.1063/1.477923

 Hartwigsen, C; Goedecker, S; Hutter, J. 
 PHYSICAL REVIEW B, 58 (7), 3641-3662 (1998). 
 Relativistic separable dual-space Gaussian pseudopotentials from H to Rn.
 https://doi.org/10.1103/PhysRevB.58.3641

 Lippert, G; Hutter, J; Parrinello, M. 
 MOLECULAR PHYSICS, 92 (3), 477-487 (1997). 
 A hybrid Gaussian and plane wave density functional scheme.
 https://doi.org/10.1080/002689797170220

 Perdew, JP; Burke, K; Ernzerhof, M. 
 PHYSICAL REVIEW LETTERS, 77 (18), 3865-3868 (1996). 
 Generalized gradient approximation made simple.
 https://doi.org/10.1103/PhysRevLett.77.3865

 Goedecker, S; Teter, M; Hutter, J. 
 PHYSICAL REVIEW B, 54 (3), 1703-1710 (1996). 
 Separable dual-space Gaussian pseudopotentials.
 https://doi.org/10.1103/PhysRevB.54.1703


 -------------------------------------------------------------------------------
 -                                                                             -
 -                                T I M I N G                                  -
 -                                                                             -
 -------------------------------------------------------------------------------
 SUBROUTINE                       CALLS  ASD         SELF TIME        TOTAL TIME
                                MAXIMUM       AVERAGE  MAXIMUM  AVERAGE  MAXIMUM
 CP2K                                 1  1.0    0.026    0.039   60.284   60.285
 qs_energies                          1  2.0    0.000    0.000   58.243   58.244
 scf_env_do_scf                       1  3.0    0.000    0.000   57.507   57.507
 qs_ks_update_qs_env                 20  5.0    0.000    0.000   49.122   49.124
 rebuild_ks_matrix                   18  6.0    0.000    0.000   49.120   49.122
 qs_ks_build_kohn_sham_matrix        18  7.0    0.003    0.004   49.120   49.122
 scf_env_do_scf_inner_loop           18  4.0    0.001    0.002   42.469   42.469
 pw_transfer                        349  9.6    0.040    0.047   30.743   33.614
 fft_wrap_pw1pw2                    313 10.7    0.005    0.007   30.515   33.395
 fft_wrap_pw1pw2_300                201 11.8    1.494    1.515   28.781   31.680
 fft3d_ps                           313 12.7    9.995   10.135   22.219   25.066
 qs_vxc_create                       18  8.0    0.000    0.000   24.236   24.284
 xc_vxc_pw_create                    18  9.0    0.294    0.306   24.235   24.283
 init_scf_loop                        2  4.0    0.000    0.000   15.037   15.037
 hfx_ks_matrix                       18  8.0    0.001    0.001   14.982   14.983
 integrate_four_center               18  9.0    0.007    0.008   14.981   14.981
 xc_rho_set_and_dset_create          18 10.0    0.102    0.105   11.026   13.974
 yz_to_x                            150 13.1    2.664    2.721    7.224   10.246
 mp_alltoall_z22v                   313 14.7    6.451    9.778    6.451    9.778
 qs_rho_update_rho                   19  5.0    0.000    0.000    8.529    8.529
 calculate_rho_elec                  19  6.0    0.138    0.140    8.529    8.529
 density_rs2pw                       19  7.0    0.001    0.001    7.566    7.767
 integrate_four_center_main          18 10.0    0.003    0.004    5.677    7.536
 integrate_four_center_bin         2286 11.0    5.674    7.533    5.674    7.533
 calc_screening_functions             1 10.0    5.679    5.707    6.105    6.139
 xc_functional_eval                  18 11.0    0.000    0.000    3.022    5.970
 pbe_lda_eval                        18 12.0    3.022    5.969    3.022    5.969
 sum_up_and_integrate                18  8.0    0.044    0.046    5.757    5.758
 integrate_v_rspace                  18  9.0    0.001    0.001    5.713    5.715
 potential_pw2rs                     18 10.0    0.007    0.007    5.215    5.218
 x_to_yz                            163 14.2    3.099    3.156    4.989    5.112
 rs_pw_transfer                     149  9.4    0.004    0.005    4.135    4.325
 mp_sync                             97 10.7    1.957    3.817    1.957    3.817
 pw_scatter_p                       163 13.2    3.598    3.668    3.598    3.668
 pw_gather_p                        150 12.1    3.094    3.142    3.094    3.142
 qs_init_subsys                       1  2.0    0.001    0.001    1.978    1.978
 qs_env_setup                         1  3.0    0.000    0.000    1.976    1.977
 qs_env_rebuild_pw_env                2  3.5    0.000    0.000    1.976    1.976
 pw_env_rebuild                       1  5.0    0.000    0.000    1.976    1.976
 pw_grid_setup                        5  6.0    0.000    0.000    1.967    1.967
 pw_grid_setup_internal               5  7.0    0.037    0.038    1.967    1.967
 pw_grid_sort                         5  8.0    1.211    1.216    1.673    1.680
 rs_pw_transfer_RS2PW_300            20  8.9    0.850    0.911    1.481    1.639
 pw_poisson_solve                    18  8.0    0.213    0.222    1.576    1.576
 rs_pw_transfer_PW2RS_300            18 12.0    0.741    0.754    1.410    1.434
 grid_collocate_task_list            19  7.0    0.787    1.255    0.787    1.255
 mp_waitany                        1500 11.4    1.019    1.226    1.019    1.226
 -------------------------------------------------------------------------------

 The number of warnings for this run is : 0
 
 -------------------------------------------------------------------------------
  **** **** ******  **  PROGRAM ENDED AT                 2020-12-17 17:39:05.934
 ***** ** ***  *** **   PROGRAM RAN ON                                   tcopt10
 **    ****   ******    PROGRAM RAN BY                                    hutter
 ***** **    ** ** **   PROGRAM PROCESS ID                                  5388
  **** **  *******  **  PROGRAM STOPPED IN /data/hutter/GITHUB/BASIS/MOLOPT/PBE0
                                           /Se
