 DBCSR| CPU Multiplication driver                                           XSMM
 DBCSR| Multrec recursion limit                                              512
 DBCSR| Multiplication stack size                                           1000
 DBCSR| Maximum elements for images                                    UNLIMITED
 DBCSR| Multiplicative factor virtual images                                   1
 DBCSR| Use multiplication densification                                       T
 DBCSR| Multiplication size stacks                                             3
 DBCSR| Use memory pool for CPU allocation                                     F
 DBCSR| Number of 3D layers                                               SINGLE
 DBCSR| Use MPI memory allocation                                              F
 DBCSR| Use RMA algorithm                                                      F
 DBCSR| Use Communication thread                                               T
 DBCSR| Communication thread load                                             87
 DBCSR| MPI: My node id                                                        0
 DBCSR| MPI: Number of nodes                                                  16
 DBCSR| OMP: Current number of threads                                         1
 DBCSR| OMP: Max number of threads                                             1
 DBCSR| Split modifier for TAS multiplication algorithm                  1.0E+00


  **** **** ******  **  PROGRAM STARTED AT               2020-12-17 17:36:42.158
 ***** ** ***  *** **   PROGRAM STARTED ON                               tcopt10
 **    ****   ******    PROGRAM STARTED BY                                hutter
 ***** **    ** ** **   PROGRAM PROCESS ID                                  5192
  **** **  *******  **  PROGRAM STARTED IN /data/hutter/GITHUB/BASIS/MOLOPT/PBE0
                                           /Se

 CP2K| version string:                    CP2K version 8.0 (Development Version)
 CP2K| source code revision number:                                  git:7416431
 CP2K| cp2kflags: omp libint fftw3 libxc elpa parallel mpi3 scalapack xsmm spgli
 CP2K|            b sirius
 CP2K| is freely available from                            https://www.cp2k.org/
 CP2K| Program compiled at                          Thu Dec 10 17:08:57 CET 2020
 CP2K| Program compiled on                                               tcopt10
 CP2K| Program compiled for                                                local
 CP2K| Data directory path                 /data/hutter/GITHUB/CURRENT/cp2k/data
 CP2K| Input file name                                              SeO2-ref.inp

 GLOBAL| Force Environment number                                              1
 GLOBAL| Basis set file name                                  ../PBE0_UCSEGBASIS
 GLOBAL| Potential file name                                        ../POTENTIAL
 GLOBAL| MM Potential file name                                     MM_POTENTIAL
 GLOBAL| Coordinate file name                                      __STD_INPUT__
 GLOBAL| Method name                                                        CP2K
 GLOBAL| Project name                                                    refSeO2
 GLOBAL| Preferred FFT library                                             FFTW3
 GLOBAL| Preferred diagonalization lib.                                     ELPA
 GLOBAL| Run type                                                         ENERGY
 GLOBAL| All-to-all communication in single precision                          F
 GLOBAL| FFTs using library dependent lengths                                  F
 GLOBAL| Global print level                                                  LOW
 GLOBAL| MPI I/O enabled                                                       T
 GLOBAL| Total number of message passing processes                            16
 GLOBAL| Number of threads for this process                                    1
 GLOBAL| This output is from process                                           0
 GLOBAL| CPU model name                          AMD EPYC 7401 24-Core Processor
 GLOBAL| CPUID                                                              1002

 MEMORY| system memory details [Kb]
 MEMORY|                        rank 0           min           max       average
 MEMORY| MemTotal            263987256     263987256     263987256     263987256
 MEMORY| MemFree             261039428     261039428     261039428     261039428
 MEMORY| Buffers                    32            32            32            32
 MEMORY| Cached                 517516        517516        517516        517516
 MEMORY| Slab                   774192        774192        774192        774192
 MEMORY| SReclaimable           282204        282204        282204        282204
 MEMORY| MemLikelyFree       261839180     261839180     261839180     261839180


 GENERATE|  Preliminary Number of Bonds generated:                             0
 GENERATE|  Achieved consistency in connectivity generation.

 *******************************************************************************
 *******************************************************************************
 **                                                                           **
 **     #####                         ##              ##                      **
 **    ##   ##            ##          ##              ##                      **
 **   ##     ##                       ##            ######                    **
 **   ##     ##  ##   ##  ##   #####  ##  ##   ####   ##    #####    #####    **
 **   ##     ##  ##   ##  ##  ##      ## ##   ##      ##   ##   ##  ##   ##   **
 **   ##  ## ##  ##   ##  ##  ##      ####     ###    ##   ######   ######    **
 **    ##  ###   ##   ##  ##  ##      ## ##      ##   ##   ##       ##        **
 **     #######   #####   ##   #####  ##  ##  ####    ##    #####   ##        **
 **           ##                                                    ##        **
 **                                                                           **
 **                                                ... make the atoms dance   **
 **                                                                           **
 **            Copyright (C) by CP2K developers group (2000 - 2020)           **
 **                      J. Chem. Phys. 152, 194103 (2020)                    **
 **                                                                           **
 *******************************************************************************


 TOTAL NUMBERS AND MAXIMUM NUMBERS

  Total number of            - Atomic kinds:                                   2
                             - Atoms:                                          3
                             - Shell sets:                                    32
                             - Shells:                                        66
                             - Primitive Cartesian functions:                 32
                             - Cartesian basis functions:                    224
                             - Spherical basis functions:                    196

  Maximum angular momentum of- Orbital basis functions:                        3
                             - Local part of the GTH pseudopotential:          2
                             - Non-local part of the GTH pseudopotential:      4


 SCF PARAMETERS         Density guess:                                    ATOMIC
                        --------------------------------------------------------
                        max_scf:                                              10
                        max_scf_history:                                       0
                        max_diis:                                              4
                        --------------------------------------------------------
                        eps_scf:                                        1.00E-07
                        eps_scf_history:                                0.00E+00
                        eps_diis:                                       1.00E-01
                        eps_eigval:                                     1.00E-05
                        --------------------------------------------------------
                        level_shift [a.u.]:                                 0.00
                        --------------------------------------------------------
                        Outer loop SCF in use 
                        No variables optimised in outer loop
                        eps_scf                                         1.00E-07
                        max_scf                                               10
                        No outer loop optimization
                        step_size                                       5.00E-01

 Number of electrons:                                                         18
 Number of occupied orbitals:                                                  9
 Number of molecular orbitals:                                                 9

 Number of orbital functions:                                                196
 Number of independent orbital functions:                                    196

 Extrapolation method: initial_guess


 SCF WAVEFUNCTION OPTIMIZATION

  ----------------------------------- OT ---------------------------------------
  Minimizer      : DIIS                : direct inversion
                                         in the iterative subspace
                                         using   7 DIIS vectors
                                         safer DIIS on
  Preconditioner : FULL_ALL            : diagonalization, state selective
  Precond_solver : DEFAULT
  stepsize       :    0.15000000                  energy_gap     :    0.08000000
  eps_taylor     :   0.10000E-15                  max_taylor     :             4
  ----------------------------------- OT ---------------------------------------

  Step     Update method      Time    Convergence         Total energy    Change
  ------------------------------------------------------------------------------
     1 OT DIIS     0.15E+00   10.1     0.07188858       -40.2724544069 -4.03E+01
     2 OT DIIS     0.15E+00    2.6     0.14736591       -40.5512265128 -2.79E-01
     3 OT DIIS     0.15E+00    2.5     0.06427364       -41.0500075291 -4.99E-01
     4 OT DIIS     0.15E+00    2.5     0.03315302       -41.2710838912 -2.21E-01
     5 OT DIIS     0.15E+00    2.5     0.05308993       -41.2930448543 -2.20E-02
     6 OT DIIS     0.15E+00    2.6     0.02844252       -41.3428218525 -4.98E-02
     7 OT DIIS     0.15E+00    2.5     0.00914394       -41.3874319524 -4.46E-02
     8 OT DIIS     0.15E+00    2.5     0.00780383       -41.3946826530 -7.25E-03
     9 OT DIIS     0.15E+00    2.5     0.00405478       -41.4011692987 -6.49E-03
    10 OT DIIS     0.15E+00    2.5     0.00227278       -41.4022565360 -1.09E-03

  Leaving inner SCF loop after reaching    10 steps.


  Electronic density on regular grids:        -18.0000000000       -0.0000000000
  Core density on regular grids:               18.0000000000       -0.0000000000
  Total charge density on r-space grids:       -0.0000000000
  Total charge density g-space grids:          -0.0000000000

  Overlap energy of the core charge distribution:               0.00000083305140
  Self energy of the core charge distribution:               -102.48834569800461
  Core Hamiltonian energy:                                     27.66853629405305
  Hartree energy:                                              42.31742564869392
  Exchange-correlation energy:                                 -6.87521622983795
  Hartree-Fock Exchange energy:                                -2.02465738400394

  Total energy:                                               -41.40225653604813

  outer SCF iter =    1 RMS gradient =   0.23E-02 energy =        -41.4022565360

  ----------------------------------- OT ---------------------------------------
  Minimizer      : DIIS                : direct inversion
                                         in the iterative subspace
                                         using   7 DIIS vectors
                                         safer DIIS on
  Preconditioner : FULL_ALL            : diagonalization, state selective
  Precond_solver : DEFAULT
  stepsize       :    0.15000000                  energy_gap     :    0.08000000
  eps_taylor     :   0.10000E-15                  max_taylor     :             4
  ----------------------------------- OT ---------------------------------------

  Step     Update method      Time    Convergence         Total energy    Change
  ------------------------------------------------------------------------------
     1 OT DIIS     0.15E+00    5.1     0.00100572       -41.4027238417 -4.67E-04
     2 OT DIIS     0.15E+00    2.5     0.00117188       -41.4028247284 -1.01E-04
     3 OT DIIS     0.15E+00    2.5     0.00047661       -41.4028943149 -6.96E-05
     4 OT DIIS     0.15E+00    2.5     0.00014044       -41.4029374422 -4.31E-05
     5 OT DIIS     0.15E+00    2.5     0.00006840       -41.4029398608 -2.42E-06
     6 OT DIIS     0.15E+00    2.5     0.00001250       -41.4029409568 -1.10E-06
     7 OT DIIS     0.15E+00    2.5     0.00000228       -41.4029410005 -4.37E-08
     8 OT DIIS     0.15E+00    2.5     0.00000069       -41.4029410018 -1.30E-09
     9 OT DIIS     0.15E+00    2.5     0.00000013       -41.4029410019 -1.33E-10
    10 OT DIIS     0.15E+00    2.5     0.00000006       -41.4029410019 -4.03E-12

  *** SCF run converged in    10 steps ***


  Electronic density on regular grids:        -18.0000000000       -0.0000000000
  Core density on regular grids:               18.0000000000       -0.0000000000
  Total charge density on r-space grids:       -0.0000000001
  Total charge density g-space grids:          -0.0000000001

  Overlap energy of the core charge distribution:               0.00000083305140
  Self energy of the core charge distribution:               -102.48834569800461
  Core Hamiltonian energy:                                     27.67814999826012
  Hartree energy:                                              42.30882470099974
  Exchange-correlation energy:                                 -6.87639456007187
  Hartree-Fock Exchange energy:                                -2.02517627616845

  Total energy:                                               -41.40294100193367

  outer SCF iter =    2 RMS gradient =   0.58E-07 energy =        -41.4029410019
  outer SCF loop converged in   2 iterations or   20 steps


 ENERGY| Total FORCE_EVAL ( QS ) energy [a.u.]:              -41.402941001933669

 -------------------------------------------------------------------------------
 -                                                                             -
 -                                DBCSR STATISTICS                             -
 -                                                                             -
 -------------------------------------------------------------------------------
 COUNTER                                    TOTAL       BLAS       SMM       ACC
 flops     9 x     9 x     9               204120       0.0%    100.0%      0.0%
 flops     9 x     9 x    92              1222128       0.0%    100.0%      0.0%
 flops     9 x     9 x    52              1381536       0.0%    100.0%      0.0%
 flops    92 x     9 x     9              1520208       0.0%    100.0%      0.0%
 flops    52 x     9 x     9              1718496       0.0%    100.0%      0.0%
 flops    52 x    92 x     9              1808352       0.0%    100.0%      0.0%
 flops    92 x    52 x     9              1808352       0.0%    100.0%      0.0%
 flops    52 x    52 x     9              3066336       0.0%    100.0%      0.0%
 flops    92 x    92 x     9              3199392       0.0%    100.0%      0.0%
 flops    92 x     9 x    92             14930496       0.0%    100.0%      0.0%
 flops    92 x     9 x    52             16877952       0.0%    100.0%      0.0%
 flops    52 x     9 x    92             16877952       0.0%    100.0%      0.0%
 flops    52 x     9 x    52             19079424       0.0%    100.0%      0.0%
 flops inhomo. stacks                           0       0.0%      0.0%      0.0%
 flops total                        83.694744E+06       0.0%    100.0%      0.0%
 flops max/rank                     39.335832E+06       0.0%    100.0%      0.0%
 matmuls inhomo. stacks                         0       0.0%      0.0%      0.0%
 matmuls total                               1700       0.0%    100.0%      0.0%
 number of processed stacks                  1700       0.0%    100.0%      0.0%
 average stack size                                     0.0       1.0       0.0
 marketing flops                    88.396896E+06
 -------------------------------------------------------------------------------
 # multiplications                            445
 max memory usage/rank               1.757610E+09
 # max total images/rank                        1
 # max 3D layers                                1
 # MPI messages exchanged                   42720
 MPI messages size (bytes):
  total size                       108.285456E+06
  min size                           0.000000E+00
  max size                          67.712000E+03
  average size                       2.534772E+03
 MPI breakdown and total messages size (bytes):
             size <=      128               35274                        0
       128 < size <=     8192                4800                 17931024
      8192 < size <=    32768                1176                 25439232
     32768 < size <=   131072                1470                 64915200
    131072 < size <=  4194304                   0                        0
   4194304 < size <= 16777216                   0                        0
  16777216 < size                               0                        0
 -------------------------------------------------------------------------------
 -                                                                             -
 -                      DBCSR MESSAGE PASSING PERFORMANCE                      -
 -                                                                             -
 -------------------------------------------------------------------------------
 ROUTINE             CALLS      AVE VOLUME [Bytes]
 MP_Bcast               14                     12.
 MP_Allreduce         2399                      8.
 MP_Alltoall          1742                   1930.
 MP_ISend             7112                   2065.
 MP_IRecv             7112                   1383.
 -------------------------------------------------------------------------------

 -------------------------------------------------------------------------------
 -                                                                             -
 -                                GRID STATISTICS                              -
 -                                                                             -
 -------------------------------------------------------------------------------
 LP    KERNEL    OPERATION                                     COUNT     PERCENT
 0     general   collocate                                        48       0.18%
 2     ortho     integrate                                      4520      16.70%
 2     ortho     collocate                                      4746      17.53%
 3     ortho     integrate                                      4200      15.52%
 3     ortho     collocate                                      4410      16.29%
 4     ortho     integrate                                      3160      11.67%
 4     ortho     collocate                                      3318      12.26%
 5     ortho     integrate                                       800       2.96%
 5     ortho     collocate                                       840       3.10%
 6     ortho     integrate                                       500       1.85%
 6     ortho     collocate                                       525       1.94%
 -------------------------------------------------------------------------------

 MEMORY| Estimated peak process memory [MiB]                                1677

 -------------------------------------------------------------------------------
 -                                                                             -
 -                         MESSAGE PASSING PERFORMANCE                         -
 -                                                                             -
 -------------------------------------------------------------------------------

 ROUTINE             CALLS      AVE VOLUME [Bytes]
 MP_Group                5
 MP_Bcast              303                 514277.
 MP_Allreduce          868                   4498.
 MP_Sync               121
 MP_Alltoall           402               64004749.
 MP_ISendRecv         1860                 245111.
 MP_Wait              3769
 MP_comm_split          14
 MP_ISend             1660                1600738.
 MP_IRecv             1660                1600916.
 MP_Recv                 2                   4704.
 -------------------------------------------------------------------------------


 -------------------------------------------------------------------------------
 -                                                                             -
 -                           R E F E R E N C E S                               -
 -                                                                             -
 -------------------------------------------------------------------------------
 
 CP2K version 8.0 (Development Version), the CP2K developers group (2020).
 CP2K is freely available from https://www.cp2k.org/ .

 Kuehne,Thomas D.; Iannuzzi,Marcella; Del Ben,Mauro;
 Rybkin,Vladimir V.; Seewald,Patrick; Stein,Frederick; Laino,Teodoro;
 Khaliullin,Rustam Z.; Schuett,Ole; Schiffmann,Florian; Golze,Dorothea;
 Wilhelm,Jan; Chulkov,Sergey; Bani-Hashemian,Mohammad Hossein;
 Weber,Valery; Borstnik,Urban; Taillefumier,Mathieu;
 Jakobovits,Alice Shoshana; Lazzaro,Alfio; Pabst,Hans; Mueller,Tiziano;
 Schade,Robert; Guidon,Manuel; Andermatt,Samuel; Holmberg,Nico;
 Schenter,Gregory K.; Hehn,Anna; Bussy,Augustin; Belleflamme,Fabian;
 Tabacchi,Gloria; Gloess,Andreas; Lass,Michael; Bethune,Iain;
 Mundy,Christopher J.; Plessl,Christian; Watkins,Matt;
 VandeVondele,Joost; Krack,Matthias; Hutter,Juerg. 
 The Journal of Chemical Physics, 152 (19), (2020). 
 CP2K: An electronic structure and molecular dynamics software package -
 Quickstep: Efficient and accurate electronic structure calculations.
 https://doi.org/10.1063/5.0007045

 Schuett, Ole; Messmer, Peter; Hutter, Juerg; VandeVondele, Joost. 
 Electronic Structure Calculations on Graphics Processing Units, John
 Wiley & Sons, Ltd, 173-190 (2016). 
 GPU-Accelerated Sparse Matrix-Matrix Multiplication for
 Linear Scaling Density Functional Theory.
 https://doi.org/10.1002/9781118670712.ch8

 Borstnik, U; VandeVondele, J; Weber, V; Hutter, J. 
 PARALLEL COMPUTING, 40 (5-6), 47-58 (2014). 
 Sparse matrix multiplication: The distributed block-compressed sparse
 row library.
 https://doi.org/10.1016/j.parco.2014.03.012

 Hutter, J; Iannuzzi, M; Schiffmann, F; VandeVondele, J. 
 WIREs Comput Mol Sci., 4 (1), 15-25 (2014). 
 CP2K: atomistic simulations of condensed matter systems.
 https://doi.org/10.1002/wcms.1159

 Marek, A; Blum, V; Johanni, R; Havu, V; Lang, B; Auckenthaler, T;
 Heinecke, A; Bungartz, H; Lederer, H. 
 Journal of Physics: Condensed Matter, 26 (21), (2014). 
 The ELPA library: scalable parallel eigenvalue solutions for
 electronic structure
 theory and computational science.
 https://doi.org/10.1088/0953-8984/26/21/213201

 Guidon, M; Hutter, J; VandeVondele, J. 
 JOURNAL OF CHEMICAL THEORY AND COMPUTATION, 5 (11), 3010-3021 (2009). 
 Robust Periodic Hartree-Fock Exchange for Large-Scale Simulations Using
 Gaussian Basis Sets.
 https://doi.org/10.1021/ct900494g

 Guidon, M; Schiffmann, F; Hutter, J; VandeVondele, J. 
 JOURNAL OF CHEMICAL PHYSICS, 128 (21), 214104 (2008). 
 Ab initio molecular dynamics using hybrid density functionals.
 https://doi.org/10.1063/1.2931945

 Krack, M. 
 THEORETICAL CHEMISTRY ACCOUNTS, 114 (1-3), 145-152 (2005). 
 Pseudopotentials for H to Kr optimized for gradient-corrected
 exchange-correlation functionals.
 https://doi.org/10.1007/s00214-005-0655-y

 VandeVondele, J; Krack, M; Mohamed, F; Parrinello, M; Chassaing, T;
 Hutter, J. COMPUTER PHYSICS COMMUNICATIONS, 167 (2), 103-128 (2005). 
 QUICKSTEP: Fast and accurate density functional calculations using a
 mixed Gaussian and plane waves approach.
 https://doi.org/10.1016/j.cpc.2004.12.014

 Frigo, M; Johnson, SG. 
 PROCEEDINGS OF THE IEEE, 93 (2), 216-231 (2005). 
 The design and implementation of FFTW3.
 https://doi.org/10.1109/JPROC.2004.840301

 VandeVondele, J; Hutter, J. 
 JOURNAL OF CHEMICAL PHYSICS, 118 (10), 4365-4369 (2003). 
 An efficient orbital transformation method for electronic structure
 calculations.
 https://doi.org/10.1063/1.1543154

 Martyna, GJ; Tuckerman, ME. 
 JOURNAL OF CHEMICAL PHYSICS, 110 (6), 2810-2821 (1999). 
 A reciprocal space based method for treating long range interactions in
 ab initio and force-field-based calculations in clusters.
 https://doi.org/10.1063/1.477923

 Hartwigsen, C; Goedecker, S; Hutter, J. 
 PHYSICAL REVIEW B, 58 (7), 3641-3662 (1998). 
 Relativistic separable dual-space Gaussian pseudopotentials from H to Rn.
 https://doi.org/10.1103/PhysRevB.58.3641

 Lippert, G; Hutter, J; Parrinello, M. 
 MOLECULAR PHYSICS, 92 (3), 477-487 (1997). 
 A hybrid Gaussian and plane wave density functional scheme.
 https://doi.org/10.1080/002689797170220

 Perdew, JP; Burke, K; Ernzerhof, M. 
 PHYSICAL REVIEW LETTERS, 77 (18), 3865-3868 (1996). 
 Generalized gradient approximation made simple.
 https://doi.org/10.1103/PhysRevLett.77.3865

 Goedecker, S; Teter, M; Hutter, J. 
 PHYSICAL REVIEW B, 54 (3), 1703-1710 (1996). 
 Separable dual-space Gaussian pseudopotentials.
 https://doi.org/10.1103/PhysRevB.54.1703


 -------------------------------------------------------------------------------
 -                                                                             -
 -                                T I M I N G                                  -
 -                                                                             -
 -------------------------------------------------------------------------------
 SUBROUTINE                       CALLS  ASD         SELF TIME        TOTAL TIME
                                MAXIMUM       AVERAGE  MAXIMUM  AVERAGE  MAXIMUM
 CP2K                                 1  1.0    0.017    0.030   61.345   61.347
 qs_energies                          1  2.0    0.000    0.000   59.306   59.307
 scf_env_do_scf                       1  3.0    0.000    0.000   58.574   58.574
 qs_ks_update_qs_env                 22  5.0    0.000    0.000   49.398   49.400
 rebuild_ks_matrix                   20  6.0    0.000    0.000   49.396   49.398
 qs_ks_build_kohn_sham_matrix        20  7.0    0.004    0.004   49.396   49.398
 scf_env_do_scf_inner_loop           20  4.0    0.001    0.002   46.413   46.413
 pw_transfer                        387  9.6    0.044    0.053   33.813   36.435
 fft_wrap_pw1pw2                    347 10.7    0.006    0.008   33.561   36.183
 fft_wrap_pw1pw2_300                223 11.8    1.660    1.685   31.687   34.308
 fft3d_ps                           347 12.7   11.074   11.452   24.360   27.063
 qs_vxc_create                       20  8.0    0.000    0.001   26.058   26.111
 xc_vxc_pw_create                    20  9.0    0.328    0.345   26.058   26.111
 xc_rho_set_and_dset_create          20 10.0    0.113    0.116   11.640   14.718
 hfx_ks_matrix                       20  8.0    0.001    0.001   12.592   12.593
 integrate_four_center               20  9.0    0.008    0.008   12.591   12.591
 init_scf_loop                        2  4.0    0.000    0.000   12.160   12.161
 yz_to_x                            166 13.1    2.945    2.986    7.714   10.469
 mp_alltoall_z22v                   347 14.7    6.890    9.981    6.890    9.981
 qs_rho_update_rho                   21  5.0    0.000    0.000    9.282    9.282
 calculate_rho_elec                  21  6.0    0.153    0.155    9.282    9.282
 density_rs2pw                       21  7.0    0.001    0.002    8.231    8.424
 integrate_four_center_main          20 10.0    0.003    0.005    3.336    8.083
 integrate_four_center_bin         2540 11.0    3.333    8.081    3.333    8.081
 sum_up_and_integrate                20  8.0    0.049    0.051    6.235    6.236
 mp_sync                            121 10.8    4.753    6.213    4.753    6.213
 integrate_v_rspace                  20  9.0    0.001    0.001    6.187    6.190
 xc_functional_eval                  20 11.0    0.000    0.000    2.729    5.805
 pbe_lda_eval                        20 12.0    2.728    5.804    2.728    5.804
 potential_pw2rs                     20 10.0    0.007    0.008    5.797    5.800
 x_to_yz                            181 14.2    3.440    3.506    5.561    5.731
 rs_pw_transfer                     165  9.4    0.005    0.006    4.437    4.612
 pw_scatter_p                       181 13.2    4.000    4.251    4.000    4.251
 pw_gather_p                        166 12.1    3.423    3.459    3.423    3.459
 calc_screening_functions             1 10.0    2.848    2.858    3.364    3.388
 qs_init_subsys                       1  2.0    0.001    0.001    1.982    1.982
 qs_env_setup                         1  3.0    0.000    0.000    1.980    1.980
 qs_env_rebuild_pw_env                2  3.5    0.000    0.000    1.980    1.980
 pw_env_rebuild                       1  5.0    0.000    0.000    1.980    1.980
 pw_grid_setup                        5  6.0    0.000    0.000    1.971    1.971
 pw_grid_setup_internal               5  7.0    0.037    0.039    1.971    1.971
 pw_grid_sort                         5  8.0    1.212    1.217    1.675    1.682
 rs_pw_transfer_RS2PW_300            22  8.9    0.950    1.017    1.507    1.650
 pw_poisson_solve                    20  8.0    0.237    0.243    1.648    1.648
 rs_pw_transfer_PW2RS_300            20 12.0    0.821    0.833    1.563    1.593
 -------------------------------------------------------------------------------

 The number of warnings for this run is : 0
 
 -------------------------------------------------------------------------------
  **** **** ******  **  PROGRAM ENDED AT                 2020-12-17 17:37:44.145
 ***** ** ***  *** **   PROGRAM RAN ON                                   tcopt10
 **    ****   ******    PROGRAM RAN BY                                    hutter
 ***** **    ** ** **   PROGRAM PROCESS ID                                  5192
  **** **  *******  **  PROGRAM STOPPED IN /data/hutter/GITHUB/BASIS/MOLOPT/PBE0
                                           /Se
