
  **** **** ******  **  PROGRAM STARTED AT               2021-01-30 11:29:50.635
 ***** ** ***  *** **   PROGRAM STARTED ON                               tcopt10
 **    ****   ******    PROGRAM STARTED BY                                hutter
 ***** **    ** ** **   PROGRAM PROCESS ID                                 89777
  **** **  *******  **  PROGRAM STARTED IN /data/hutter/GITHUB/BASIS/MOLOPT/PBE/
                                           Fe

 CP2K| version string:                    CP2K version 9.0 (Development Version)
 CP2K| source code revision number:                                  git:3a0fa18
 CP2K| cp2kflags: omp libint fftw3 libxc elpa parallel mpi3 scalapack xsmm spgli
 CP2K|            b sirius libvori libbqb
 CP2K| is freely available from                            https://www.cp2k.org/
 CP2K| Program compiled at                          Wed Jan 27 11:43:32 CET 2021
 CP2K| Program compiled on                                               tcopt10
 CP2K| Program compiled for                                                local
 CP2K| Data directory path                 /data/hutter/GITHUB/CURRENT/cp2k/data
 CP2K| Input file name                                               opt-all.inp

 GLOBAL| Method name                                              OPTIMIZE_BASIS
 GLOBAL| Project name                                                     molopt
 GLOBAL| Preferred FFT library                                             FFTW3
 GLOBAL| Preferred diagonalization lib.                                     ELPA
 GLOBAL| Run type                                                   ENERGY_FORCE
 GLOBAL| All-to-all communication in single precision                          F
 GLOBAL| FFTs using library dependent lengths                                  F
 GLOBAL| Global print level                                               MEDIUM
 GLOBAL| MPI I/O enabled                                                       T
 GLOBAL| Total number of message passing processes                            48
 GLOBAL| Number of threads for this process                                    1
 GLOBAL| This output is from process                                           0
 GLOBAL| CPU model name                          AMD EPYC 7401 24-Core Processor
 GLOBAL| CPUID                                                              1002

 MEMORY| system memory details [Kb]
 MEMORY|                        rank 0           min           max       average
 MEMORY| MemTotal            263969964     263969964     263969964     263969964
 MEMORY| MemFree             248350384     248350384     248350384     248350384
 MEMORY| Buffers                   136           136           136           136
 MEMORY| Cached               11053668      11053668      11053668      11053668
 MEMORY| Slab                   685312        685312        685312        685312
 MEMORY| SReclaimable           295632        295632        295632        295632
 MEMORY| MemLikelyFree       259699820     259699820     259699820     259699820


 *** Fundamental physical constants (SI units) ***

 *** Literature: B. J. Mohr and B. N. Taylor,
 ***             CODATA recommended values of the fundamental physical
 ***             constants: 2006, Web Version 5.1
 ***             http://physics.nist.gov/constants

 Speed of light in vacuum [m/s]                             2.99792458000000E+08
 Magnetic constant or permeability of vacuum [N/A**2]       1.25663706143592E-06
 Electric constant or permittivity of vacuum [F/m]          8.85418781762039E-12
 Planck constant (h) [J*s]                                  6.62606896000000E-34
 Planck constant (h-bar) [J*s]                              1.05457162825177E-34
 Elementary charge [C]                                      1.60217648700000E-19
 Electron mass [kg]                                         9.10938215000000E-31
 Electron g factor [ ]                                     -2.00231930436220E+00
 Proton mass [kg]                                           1.67262163700000E-27
 Fine-structure constant                                    7.29735253760000E-03
 Rydberg constant [1/m]                                     1.09737315685270E+07
 Avogadro constant [1/mol]                                  6.02214179000000E+23
 Boltzmann constant [J/K]                                   1.38065040000000E-23
 Atomic mass unit [kg]                                      1.66053878200000E-27
 Bohr radius [m]                                            5.29177208590000E-11

 *** Conversion factors ***

 [u] -> [a.u.]                                              1.82288848426455E+03
 [Angstrom] -> [Bohr] = [a.u.]                              1.88972613288564E+00
 [a.u.] = [Bohr] -> [Angstrom]                              5.29177208590000E-01
 [a.u.] -> [s]                                              2.41888432650478E-17
 [a.u.] -> [fs]                                             2.41888432650478E-02
 [a.u.] -> [J]                                              4.35974393937059E-18
 [a.u.] -> [N]                                              8.23872205491840E-08
 [a.u.] -> [K]                                              3.15774647902944E+05
 [a.u.] -> [kJ/mol]                                         2.62549961709828E+03
 [a.u.] -> [kcal/mol]                                       6.27509468713739E+02
 [a.u.] -> [Pa]                                             2.94210107994716E+13
 [a.u.] -> [bar]                                            2.94210107994716E+08
 [a.u.] -> [atm]                                            2.90362800883016E+08
 [a.u.] -> [eV]                                             2.72113838565563E+01
 [a.u.] -> [Hz]                                             6.57968392072181E+15
 [a.u.] -> [1/cm] (wave numbers)                            2.19474631370540E+05
 [a.u./Bohr**2] -> [1/cm]                                   5.14048714338585E+03
 
 DBCSR| CPU Multiplication driver                                           XSMM
 DBCSR| Multrec recursion limit                                              512
 DBCSR| Multiplication stack size                                           1000
 DBCSR| Maximum elements for images                                    UNLIMITED
 DBCSR| Multiplicative factor virtual images                                   1
 DBCSR| Use multiplication densification                                       T
 DBCSR| Multiplication size stacks                                             3
 DBCSR| Use memory pool for CPU allocation                                     F
 DBCSR| Number of 3D layers                                               SINGLE
 DBCSR| Use MPI memory allocation                                              F
 DBCSR| Use RMA algorithm                                                      F
 DBCSR| Use Communication thread                                               T
 DBCSR| Communication thread load                                             87
 DBCSR| MPI: My node id                                                        0
 DBCSR| MPI: Number of nodes                                                  48
 DBCSR| OMP: Current number of threads                                         1
 DBCSR| OMP: Max number of threads                                             1
 DBCSR| Split modifier for TAS multiplication algorithm                  1.0E+00

 BASOPT| Total number of calculations     15

 BASOPT| Content of basis combination      1
 BASOPT|     Element:   FE    Basis set:    TZV2P-MOLOPT-PBE-GTH-Q16
 BASOPT|     Element:    H    Basis set:    TZV2P-MOLOPT-PBE-GTH-Q1
 BASOPT|     Element:    S    Basis set:    TZV2P-MOLOPT-PBE-GTH-Q6
 BASOPT|     Element:    O    Basis set:    TZV2P-MOLOPT-PBE-GTH-Q6
 BASOPT|     Element:    C    Basis set:    TZV2P-MOLOPT-PBE-GTH-Q4

 BASOPT| Content of basis combination      2
 BASOPT|     Element:   FE    Basis set:    TZVP-MOLOPT-PBE-GTH-q16
 BASOPT|     Element:    H    Basis set:    TZVP-MOLOPT-PBE-GTH-q1
 BASOPT|     Element:    S    Basis set:    TZVP-MOLOPT-PBE-GTH-q6
 BASOPT|     Element:    O    Basis set:    TZVP-MOLOPT-PBE-GTH-q6
 BASOPT|     Element:    C    Basis set:    TZVP-MOLOPT-PBE-GTH-q4

 BASOPT| Content of basis combination      3
 BASOPT|     Element:   FE    Basis set:    DZVP-MOLOPT-PBE-GTH-q16
 BASOPT|     Element:    H    Basis set:    DZVP-MOLOPT-PBE-GTH-q1
 BASOPT|     Element:    S    Basis set:    DZVP-MOLOPT-PBE-GTH-q6
 BASOPT|     Element:    O    Basis set:    DZVP-MOLOPT-PBE-GTH-q6
 BASOPT|     Element:    C    Basis set:    DZVP-MOLOPT-PBE-GTH-q4

 BASOPT| Information at iteration number:       0
 BASOPT| Training set | Combination | Rho difference | Condition num. | Time
 BASOPT| -----------------------------------------------------------------------
 BASOPT|        1     |       1     | 0.44367301E-02 | 0.25732307E+06 |    2.140
 BASOPT|        1     |       2     | 0.77796054E-02 | 0.32374695E+05 |    1.299
 BASOPT|        1     |       3     | 0.15701866E-01 | 0.36397932E+04 |    1.085
 BASOPT|        2     |       1     | 0.58588007E-03 | 0.56966515E+05 |    0.198
 BASOPT|        2     |       2     | 0.61111691E-03 | 0.35172412E+05 |    0.197
 BASOPT|        2     |       3     | 0.83115234E-03 | 0.22267843E+05 |    0.183
 BASOPT|        3     |       1     | 0.50482962E-03 | 0.79785325E+05 |    0.475
 BASOPT|        3     |       2     | 0.55236410E-03 | 0.34838754E+05 |    0.504
 BASOPT|        3     |       3     | 0.72326268E-03 | 0.22169145E+05 |    0.455
 BASOPT|        4     |       1     | 0.46394596E-02 | 0.28582476E+04 |    0.049
 BASOPT|        4     |       2     | 0.58154837E-02 | 0.76806863E+03 |    0.037
 BASOPT|        4     |       3     | 0.11199134E-01 | 0.23981144E+03 |    0.032
 BASOPT|        5     |       1     | 0.41583150E-02 | 0.61375311E+06 |    7.500
 BASOPT|        5     |       2     | 0.95210422E-02 | 0.42075772E+05 |    4.164
 BASOPT|        5     |       3     | 0.13915190E-01 | 0.43702417E+04 |    3.308
 BASOPT| -----------------------------------------------------------------------
 BASOPT| Total residuum value: -.53403511E+04

 BASOPT| Information at iteration number:     100
 BASOPT| Training set | Combination | Rho difference | Condition num. | Time
 BASOPT| -----------------------------------------------------------------------
 BASOPT|        1     |       1     | 0.44442893E-02 | 0.24817818E+06 |  251.733
 BASOPT|        1     |       2     | 0.77549314E-02 | 0.32388105E+05 |  153.294
 BASOPT|        1     |       3     | 0.15683697E-01 | 0.37971543E+04 |  126.673
 BASOPT|        2     |       1     | 0.59012325E-03 | 0.56786850E+05 |   23.379
 BASOPT|        2     |       2     | 0.61536009E-03 | 0.35061482E+05 |   23.106
 BASOPT|        2     |       3     | 0.79588992E-03 | 0.22289566E+05 |   21.902
 BASOPT|        3     |       1     | 0.50624932E-03 | 0.79501345E+05 |   58.085
 BASOPT|        3     |       2     | 0.55269040E-03 | 0.34710844E+05 |   57.876
 BASOPT|        3     |       3     | 0.70428668E-03 | 0.25221288E+05 |   55.180
 BASOPT|        4     |       1     | 0.46586963E-02 | 0.28412357E+04 |    5.408
 BASOPT|        4     |       2     | 0.58640398E-02 | 0.76629678E+03 |    4.154
 BASOPT|        4     |       3     | 0.11386050E-01 | 0.24485022E+03 |    3.514
 BASOPT|        5     |       1     | 0.41711798E-02 | 0.61430705E+06 |  754.944
 BASOPT|        5     |       2     | 0.95177672E-02 | 0.42107821E+05 |  420.568
 BASOPT|        5     |       3     | 0.13921647E-01 | 0.43741097E+04 |  333.845
 BASOPT| -----------------------------------------------------------------------
 BASOPT| Total residuum value: -.53403374E+04

 BASOPT| Information at iteration number:     200
 BASOPT| Training set | Combination | Rho difference | Condition num. | Time
 BASOPT| -----------------------------------------------------------------------
 BASOPT|        1     |       1     | 0.45394788E-02 | 0.61613943E+05 |  501.332
 BASOPT|        1     |       2     | 0.78457280E-02 | 0.27330229E+05 |  305.276
 BASOPT|        1     |       3     | 0.15778128E-01 | 0.32312600E+04 |  252.235
 BASOPT|        2     |       1     | 0.61193159E-03 | 0.56635272E+05 |   46.562
 BASOPT|        2     |       2     | 0.63716137E-03 | 0.35227369E+05 |   46.001
 BASOPT|        2     |       3     | 0.86714237E-03 | 0.22832499E+05 |   43.638
 BASOPT|        3     |       1     | 0.49093568E-03 | 0.61011356E+05 |  115.691
 BASOPT|        3     |       2     | 0.53418172E-03 | 0.30955848E+05 |  114.886
 BASOPT|        3     |       3     | 0.72306992E-03 | 0.19864204E+05 |  109.921
 BASOPT|        4     |       1     | 0.47178142E-02 | 0.28304319E+04 |   10.767
 BASOPT|        4     |       2     | 0.58714927E-02 | 0.76450491E+03 |    8.269
 BASOPT|        4     |       3     | 0.11228888E-01 | 0.23143156E+03 |    6.995
 BASOPT|        5     |       1     | 0.41848785E-02 | 0.54085861E+06 | 1502.431
 BASOPT|        5     |       2     | 0.95650405E-02 | 0.42094486E+05 |  837.052
 BASOPT|        5     |       3     | 0.13865169E-01 | 0.43700813E+04 |  664.340
 BASOPT| -----------------------------------------------------------------------
 BASOPT| Total residuum value: -.53403930E+04

 BASOPT| Information at iteration number:     300
 BASOPT| Training set | Combination | Rho difference | Condition num. | Time
 BASOPT| -----------------------------------------------------------------------
 BASOPT|        1     |       1     | 0.46924363E-02 | 0.63364205E+05 |  750.891
 BASOPT|        1     |       2     | 0.79595956E-02 | 0.26119433E+05 |  457.266
 BASOPT|        1     |       3     | 0.15930640E-01 | 0.33255661E+04 |  377.771
 BASOPT|        2     |       1     | 0.75587882E-03 | 0.55804237E+05 |   69.754
 BASOPT|        2     |       2     | 0.78260831E-03 | 0.34635038E+05 |   68.928
 BASOPT|        2     |       3     | 0.10599586E-02 | 0.23435391E+05 |   65.358
 BASOPT|        3     |       1     | 0.56682050E-03 | 0.52470495E+05 |  173.306
 BASOPT|        3     |       2     | 0.61479083E-03 | 0.29181777E+05 |  172.226
 BASOPT|        3     |       3     | 0.81224139E-03 | 0.19728446E+05 |  164.653
 BASOPT|        4     |       1     | 0.49353591E-02 | 0.27886667E+04 |   16.127
 BASOPT|        4     |       2     | 0.60976404E-02 | 0.75818734E+03 |   12.386
 BASOPT|        4     |       3     | 0.11455729E-01 | 0.23346987E+03 |   10.476
 BASOPT|        5     |       1     | 0.42851727E-02 | 0.56357440E+06 | 2249.858
 BASOPT|        5     |       2     | 0.97596262E-02 | 0.42084374E+05 | 1253.749
 BASOPT|        5     |       3     | 0.14055442E-01 | 0.43688730E+04 |  994.776
 BASOPT| -----------------------------------------------------------------------
 BASOPT| Total residuum value: -.53402544E+04

 BASOPT| Information at iteration number:     400
 BASOPT| Training set | Combination | Rho difference | Condition num. | Time
 BASOPT| -----------------------------------------------------------------------
 BASOPT|        1     |       1     | 0.45651946E-02 | 0.63214971E+05 | 1000.419
 BASOPT|        1     |       2     | 0.78857438E-02 | 0.26425163E+05 |  609.337
 BASOPT|        1     |       3     | 0.15780599E-01 | 0.31646399E+04 |  503.311
 BASOPT|        2     |       1     | 0.60203783E-03 | 0.55193317E+05 |   92.940
 BASOPT|        2     |       2     | 0.62895141E-03 | 0.34368221E+05 |   91.830
 BASOPT|        2     |       3     | 0.84857678E-03 | 0.23268765E+05 |   87.065
 BASOPT|        3     |       1     | 0.48966339E-03 | 0.53112805E+05 |  230.923
 BASOPT|        3     |       2     | 0.53619510E-03 | 0.29245740E+05 |  229.259
 BASOPT|        3     |       3     | 0.71851835E-03 | 0.19958595E+05 |  219.415
 BASOPT|        4     |       1     | 0.46954090E-02 | 0.27779689E+04 |   21.483
 BASOPT|        4     |       2     | 0.58452351E-02 | 0.75450630E+03 |   16.501
 BASOPT|        4     |       3     | 0.11196967E-01 | 0.22986103E+03 |   13.958
 BASOPT|        5     |       1     | 0.41803466E-02 | 0.56013409E+06 | 2997.228
 BASOPT|        5     |       2     | 0.95760509E-02 | 0.42080601E+05 | 1670.468
 BASOPT|        5     |       3     | 0.13848831E-01 | 0.43682992E+04 | 1324.892
 BASOPT| -----------------------------------------------------------------------
 BASOPT| Total residuum value: -.53403905E+04

 BASOPT| Information at iteration number:     500
 BASOPT| Training set | Combination | Rho difference | Condition num. | Time
 BASOPT| -----------------------------------------------------------------------
 BASOPT|        1     |       1     | 0.45677145E-02 | 0.63119422E+05 | 1249.842
 BASOPT|        1     |       2     | 0.78876406E-02 | 0.26404664E+05 |  761.309
 BASOPT|        1     |       3     | 0.15783503E-01 | 0.31708996E+04 |  628.917
 BASOPT|        2     |       1     | 0.60256095E-03 | 0.55144325E+05 |  116.135
 BASOPT|        2     |       2     | 0.62948626E-03 | 0.34374937E+05 |  114.724
 BASOPT|        2     |       3     | 0.85050703E-03 | 0.23187502E+05 |  108.775
 BASOPT|        3     |       1     | 0.48965130E-03 | 0.53021302E+05 |  288.539
 BASOPT|        3     |       2     | 0.53613868E-03 | 0.29222497E+05 |  286.374
 BASOPT|        3     |       3     | 0.71865939E-03 | 0.19889749E+05 |  274.170
 BASOPT|        4     |       1     | 0.46968868E-02 | 0.27772262E+04 |   26.841
 BASOPT|        4     |       2     | 0.58465307E-02 | 0.75458676E+03 |   20.622
 BASOPT|        4     |       3     | 0.11201689E-01 | 0.22987026E+03 |   17.438
 BASOPT|        5     |       1     | 0.41816967E-02 | 0.55907921E+06 | 3744.601
 BASOPT|        5     |       2     | 0.95790571E-02 | 0.42081001E+05 | 2087.217
 BASOPT|        5     |       3     | 0.13853049E-01 | 0.43683512E+04 | 1654.962
 BASOPT| -----------------------------------------------------------------------
 BASOPT| Total residuum value: -.53404012E+04

 BASOPT| Information at iteration number:     600
 BASOPT| Training set | Combination | Rho difference | Condition num. | Time
 BASOPT| -----------------------------------------------------------------------
 BASOPT|        1     |       1     | 0.45671073E-02 | 0.63136859E+05 | 1499.278
 BASOPT|        1     |       2     | 0.78872253E-02 | 0.26411918E+05 |  913.331
 BASOPT|        1     |       3     | 0.15782705E-01 | 0.31702831E+04 |  754.587
 BASOPT|        2     |       1     | 0.60242990E-03 | 0.55147868E+05 |  139.316
 BASOPT|        2     |       2     | 0.62936770E-03 | 0.34368915E+05 |  137.634
 BASOPT|        2     |       3     | 0.85047358E-03 | 0.23166103E+05 |  130.485
 BASOPT|        3     |       1     | 0.48955797E-03 | 0.53041499E+05 |  346.152
 BASOPT|        3     |       2     | 0.53606514E-03 | 0.29229533E+05 |  343.163
 BASOPT|        3     |       3     | 0.71853056E-03 | 0.19883653E+05 |  328.943
 BASOPT|        4     |       1     | 0.46967993E-02 | 0.27770775E+04 |   32.199
 BASOPT|        4     |       2     | 0.58465276E-02 | 0.75458193E+03 |   24.741
 BASOPT|        4     |       3     | 0.11201933E-01 | 0.22986019E+03 |   20.919
 BASOPT|        5     |       1     | 0.41814486E-02 | 0.55907114E+06 | 4492.045
 BASOPT|        5     |       2     | 0.95784512E-02 | 0.42080931E+05 | 2503.864
 BASOPT|        5     |       3     | 0.13852633E-01 | 0.43683477E+04 | 1985.213
 BASOPT| -----------------------------------------------------------------------
 BASOPT| Total residuum value: -.53403920E+04

 BASOPT| Information at iteration number:     700
 BASOPT| Training set | Combination | Rho difference | Condition num. | Time
 BASOPT| -----------------------------------------------------------------------
 BASOPT|        1     |       1     | 0.45671386E-02 | 0.63132965E+05 | 1748.749
 BASOPT|        1     |       2     | 0.78873095E-02 | 0.26409595E+05 | 1065.356
 BASOPT|        1     |       3     | 0.15782841E-01 | 0.31703343E+04 |  880.241
 BASOPT|        2     |       1     | 0.60232706E-03 | 0.55145002E+05 |  162.502
 BASOPT|        2     |       2     | 0.62926066E-03 | 0.34368447E+05 |  160.539
 BASOPT|        2     |       3     | 0.85027853E-03 | 0.23164077E+05 |  152.183
 BASOPT|        3     |       1     | 0.48951147E-03 | 0.53033571E+05 |  403.772
 BASOPT|        3     |       2     | 0.53600895E-03 | 0.29227123E+05 |  400.245
 BASOPT|        3     |       3     | 0.71844968E-03 | 0.19880119E+05 |  383.713
 BASOPT|        4     |       1     | 0.46965580E-02 | 0.27769516E+04 |   37.561
 BASOPT|        4     |       2     | 0.58462351E-02 | 0.75455939E+03 |   28.859
 BASOPT|        4     |       3     | 0.11201878E-01 | 0.22984596E+03 |   24.404
 BASOPT|        5     |       1     | 0.41814523E-02 | 0.55897980E+06 | 5239.492
 BASOPT|        5     |       2     | 0.95785320E-02 | 0.42080980E+05 | 2920.725
 BASOPT|        5     |       3     | 0.13852712E-01 | 0.43683507E+04 | 2315.321
 BASOPT| -----------------------------------------------------------------------
 BASOPT| Total residuum value: -.53403917E+04

 BASOPT| Information at iteration number:     800
 BASOPT| Training set | Combination | Rho difference | Condition num. | Time
 BASOPT| -----------------------------------------------------------------------
 BASOPT|        1     |       1     | 0.45671209E-02 | 0.63132871E+05 | 1998.110
 BASOPT|        1     |       2     | 0.78873011E-02 | 0.26410076E+05 | 1217.408
 BASOPT|        1     |       3     | 0.15782834E-01 | 0.31702542E+04 | 1005.858
 BASOPT|        2     |       1     | 0.60231158E-03 | 0.55145006E+05 |  185.748
 BASOPT|        2     |       2     | 0.62924547E-03 | 0.34368513E+05 |  183.454
 BASOPT|        2     |       3     | 0.85026968E-03 | 0.23164555E+05 |  173.911
 BASOPT|        3     |       1     | 0.48950779E-03 | 0.53035103E+05 |  461.445
 BASOPT|        3     |       2     | 0.53600567E-03 | 0.29227556E+05 |  456.872
 BASOPT|        3     |       3     | 0.71844589E-03 | 0.19880470E+05 |  438.503
 BASOPT|        4     |       1     | 0.46965306E-02 | 0.27769665E+04 |   42.930
 BASOPT|        4     |       2     | 0.58462083E-02 | 0.75456133E+03 |   32.976
 BASOPT|        4     |       3     | 0.11201875E-01 | 0.22984613E+03 |   27.898
 BASOPT|        5     |       1     | 0.41814435E-02 | 0.55897345E+06 | 5987.007
 BASOPT|        5     |       2     | 0.95785038E-02 | 0.42080985E+05 | 3337.595
 BASOPT|        5     |       3     | 0.13852698E-01 | 0.43683508E+04 | 2645.671
 BASOPT| -----------------------------------------------------------------------
 BASOPT| Total residuum value: -.53404087E+04

 BASOPT| Information at iteration number:     900
 BASOPT| Training set | Combination | Rho difference | Condition num. | Time
 BASOPT| -----------------------------------------------------------------------
 BASOPT|        1     |       1     | 0.45671234E-02 | 0.63132814E+05 | 2247.402
 BASOPT|        1     |       2     | 0.78873011E-02 | 0.26410049E+05 | 1369.483
 BASOPT|        1     |       3     | 0.15782841E-01 | 0.31702604E+04 | 1131.468
 BASOPT|        2     |       1     | 0.60231487E-03 | 0.55144972E+05 |  208.981
 BASOPT|        2     |       2     | 0.62924875E-03 | 0.34368517E+05 |  206.371
 BASOPT|        2     |       3     | 0.85027499E-03 | 0.23164686E+05 |  195.630
 BASOPT|        3     |       1     | 0.48950859E-03 | 0.53034994E+05 |  519.145
 BASOPT|        3     |       2     | 0.53600642E-03 | 0.29227528E+05 |  513.570
 BASOPT|        3     |       3     | 0.71844596E-03 | 0.19880520E+05 |  493.298
 BASOPT|        4     |       1     | 0.46965363E-02 | 0.27769668E+04 |   48.316
 BASOPT|        4     |       2     | 0.58462146E-02 | 0.75456133E+03 |   37.096
 BASOPT|        4     |       3     | 0.11201877E-01 | 0.22984624E+03 |   31.388
 BASOPT|        5     |       1     | 0.41814456E-02 | 0.55897126E+06 | 6735.458
 BASOPT|        5     |       2     | 0.95785079E-02 | 0.42080983E+05 | 3754.271
 BASOPT|        5     |       3     | 0.13852703E-01 | 0.43683507E+04 | 2975.776
 BASOPT| -----------------------------------------------------------------------
 BASOPT| Total residuum value: -.53403972E+04

 BASOPT| Information at iteration number:    1000
 BASOPT| Training set | Combination | Rho difference | Condition num. | Time
 BASOPT| -----------------------------------------------------------------------
 BASOPT|        1     |       1     | 0.45671202E-02 | 0.63132885E+05 | 2496.723
 BASOPT|        1     |       2     | 0.78873011E-02 | 0.26410050E+05 | 1521.466
 BASOPT|        1     |       3     | 0.15782833E-01 | 0.31702603E+04 | 1257.144
 BASOPT|        2     |       1     | 0.60231072E-03 | 0.55144955E+05 |  232.187
 BASOPT|        2     |       2     | 0.62924465E-03 | 0.34368476E+05 |  229.313
 BASOPT|        2     |       3     | 0.85026868E-03 | 0.23164562E+05 |  217.339
 BASOPT|        3     |       1     | 0.48950746E-03 | 0.53034953E+05 |  576.805
 BASOPT|        3     |       2     | 0.53600537E-03 | 0.29227526E+05 |  570.205
 BASOPT|        3     |       3     | 0.71844497E-03 | 0.19880470E+05 |  548.095
 BASOPT|        4     |       1     | 0.46965288E-02 | 0.27769656E+04 |   53.697
 BASOPT|        4     |       2     | 0.58462063E-02 | 0.75456121E+03 |   41.211
 BASOPT|        4     |       3     | 0.11201873E-01 | 0.22984618E+03 |   34.875
 BASOPT|        5     |       1     | 0.41814437E-02 | 0.55897180E+06 | 7483.363
 BASOPT|        5     |       2     | 0.95785031E-02 | 0.42080984E+05 | 4170.959
 BASOPT|        5     |       3     | 0.13852699E-01 | 0.43683508E+04 | 3306.161
 BASOPT| -----------------------------------------------------------------------
 BASOPT| Total residuum value: -.53404020E+04

 BASOPT| Information at iteration number:    1100
 BASOPT| Training set | Combination | Rho difference | Condition num. | Time
 BASOPT| -----------------------------------------------------------------------
 BASOPT|        1     |       1     | 0.45671204E-02 | 0.63132881E+05 | 2746.052
 BASOPT|        1     |       2     | 0.78873011E-02 | 0.26410046E+05 | 1673.422
 BASOPT|        1     |       3     | 0.15782833E-01 | 0.31702601E+04 | 1382.819
 BASOPT|        2     |       1     | 0.60231097E-03 | 0.55144950E+05 |  255.390
 BASOPT|        2     |       2     | 0.62924491E-03 | 0.34368477E+05 |  252.245
 BASOPT|        2     |       3     | 0.85026877E-03 | 0.23164577E+05 |  239.051
 BASOPT|        3     |       1     | 0.48950757E-03 | 0.53034939E+05 |  634.455
 BASOPT|        3     |       2     | 0.53600548E-03 | 0.29227522E+05 |  627.393
 BASOPT|        3     |       3     | 0.71844504E-03 | 0.19880477E+05 |  602.863
 BASOPT|        4     |       1     | 0.46965290E-02 | 0.27769656E+04 |   59.085
 BASOPT|        4     |       2     | 0.58462066E-02 | 0.75456121E+03 |   45.327
 BASOPT|        4     |       3     | 0.11201873E-01 | 0.22984618E+03 |   38.361
 BASOPT|        5     |       1     | 0.41814426E-02 | 0.55897192E+06 | 8231.631
 BASOPT|        5     |       2     | 0.95785033E-02 | 0.42080984E+05 | 4587.716
 BASOPT|        5     |       3     | 0.13852698E-01 | 0.43683508E+04 | 3636.892
 BASOPT| -----------------------------------------------------------------------
 BASOPT| Total residuum value: -.53404032E+04

 BASOPT| Information at iteration number:    1200
 BASOPT| Training set | Combination | Rho difference | Condition num. | Time
 BASOPT| -----------------------------------------------------------------------
 BASOPT|        1     |       1     | 0.45671204E-02 | 0.63132881E+05 | 2995.352
 BASOPT|        1     |       2     | 0.78873011E-02 | 0.26410046E+05 | 1825.395
 BASOPT|        1     |       3     | 0.15782833E-01 | 0.31702601E+04 | 1508.485
 BASOPT|        2     |       1     | 0.60231094E-03 | 0.55144950E+05 |  278.612
 BASOPT|        2     |       2     | 0.62924488E-03 | 0.34368476E+05 |  275.154
 BASOPT|        2     |       3     | 0.85026876E-03 | 0.23164577E+05 |  260.754
 BASOPT|        3     |       1     | 0.48950757E-03 | 0.53034936E+05 |  692.095
 BASOPT|        3     |       2     | 0.53600548E-03 | 0.29227522E+05 |  684.188
 BASOPT|        3     |       3     | 0.71844503E-03 | 0.19880476E+05 |  657.644
 BASOPT|        4     |       1     | 0.46965290E-02 | 0.27769656E+04 |   64.457
 BASOPT|        4     |       2     | 0.58462065E-02 | 0.75456120E+03 |   49.444
 BASOPT|        4     |       3     | 0.11201873E-01 | 0.22984618E+03 |   41.852
 BASOPT|        5     |       1     | 0.41814430E-02 | 0.55897197E+06 | 8979.415
 BASOPT|        5     |       2     | 0.95785033E-02 | 0.42080984E+05 | 5004.814
 BASOPT|        5     |       3     | 0.13852698E-01 | 0.43683508E+04 | 3967.697
 BASOPT| -----------------------------------------------------------------------
 BASOPT| Total residuum value: -.53403992E+04

 BASOPT| Information at iteration number:    1300
 BASOPT| Training set | Combination | Rho difference | Condition num. | Time
 BASOPT| -----------------------------------------------------------------------
 BASOPT|        1     |       1     | 0.45671204E-02 | 0.63132881E+05 | 3244.681
 BASOPT|        1     |       2     | 0.78873011E-02 | 0.26410047E+05 | 1977.201
 BASOPT|        1     |       3     | 0.15782833E-01 | 0.31702601E+04 | 1634.156
 BASOPT|        2     |       1     | 0.60231095E-03 | 0.55144950E+05 |  301.833
 BASOPT|        2     |       2     | 0.62924488E-03 | 0.34368476E+05 |  298.063
 BASOPT|        2     |       3     | 0.85026875E-03 | 0.23164577E+05 |  282.476
 BASOPT|        3     |       1     | 0.48950757E-03 | 0.53034939E+05 |  749.732
 BASOPT|        3     |       2     | 0.53600548E-03 | 0.29227523E+05 |  740.827
 BASOPT|        3     |       3     | 0.71844503E-03 | 0.19880476E+05 |  712.455
 BASOPT|        4     |       1     | 0.46965290E-02 | 0.27769656E+04 |   69.840
 BASOPT|        4     |       2     | 0.58462065E-02 | 0.75456121E+03 |   53.558
 BASOPT|        4     |       3     | 0.11201873E-01 | 0.22984618E+03 |   45.340
 BASOPT|        5     |       1     | 0.41814432E-02 | 0.55897195E+06 | 9727.006
 BASOPT|        5     |       2     | 0.95785033E-02 | 0.42080984E+05 | 5421.719
 BASOPT|        5     |       3     | 0.13852698E-01 | 0.43683508E+04 | 4298.034
 BASOPT| -----------------------------------------------------------------------
 BASOPT| Total residuum value: -.53404042E+04

 BASOPT| Information at iteration number:    1400
 BASOPT| Training set | Combination | Rho difference | Condition num. | Time
 BASOPT| -----------------------------------------------------------------------
 BASOPT|        1     |       1     | 0.45671204E-02 | 0.63132881E+05 | 3493.981
 BASOPT|        1     |       2     | 0.78873011E-02 | 0.26410047E+05 | 2128.919
 BASOPT|        1     |       3     | 0.15782833E-01 | 0.31702601E+04 | 1759.825
 BASOPT|        2     |       1     | 0.60231095E-03 | 0.55144950E+05 |  325.051
 BASOPT|        2     |       2     | 0.62924489E-03 | 0.34368476E+05 |  320.975
 BASOPT|        2     |       3     | 0.85026875E-03 | 0.23164577E+05 |  304.178
 BASOPT|        3     |       1     | 0.48950757E-03 | 0.53034939E+05 |  807.439
 BASOPT|        3     |       2     | 0.53600548E-03 | 0.29227522E+05 |  797.523
 BASOPT|        3     |       3     | 0.71844503E-03 | 0.19880476E+05 |  767.286
 BASOPT|        4     |       1     | 0.46965290E-02 | 0.27769656E+04 |   75.223
 BASOPT|        4     |       2     | 0.58462065E-02 | 0.75456121E+03 |   57.675
 BASOPT|        4     |       3     | 0.11201873E-01 | 0.22984618E+03 |   48.830
 BASOPT|        5     |       1     | 0.41814434E-02 | 0.55897195E+06 | ********
 BASOPT|        5     |       2     | 0.95785033E-02 | 0.42080984E+05 | 5838.679
 BASOPT|        5     |       3     | 0.13852698E-01 | 0.43683508E+04 | 4628.157
 BASOPT| -----------------------------------------------------------------------
 BASOPT| Total residuum value: -.53403973E+04

 BASOPT| Information at iteration number:    1500
 BASOPT| Training set | Combination | Rho difference | Condition num. | Time
 BASOPT| -----------------------------------------------------------------------
 BASOPT|        1     |       1     | 0.45671204E-02 | 0.63132881E+05 | 3743.328
 BASOPT|        1     |       2     | 0.78873011E-02 | 0.26410047E+05 | 2280.651
 BASOPT|        1     |       3     | 0.15782833E-01 | 0.31702601E+04 | 1885.415
 BASOPT|        2     |       1     | 0.60231095E-03 | 0.55144950E+05 |  348.250
 BASOPT|        2     |       2     | 0.62924489E-03 | 0.34368476E+05 |  343.885
 BASOPT|        2     |       3     | 0.85026875E-03 | 0.23164577E+05 |  325.876
 BASOPT|        3     |       1     | 0.48950757E-03 | 0.53034939E+05 |  865.089
 BASOPT|        3     |       2     | 0.53600548E-03 | 0.29227522E+05 |  854.096
 BASOPT|        3     |       3     | 0.71844503E-03 | 0.19880476E+05 |  822.093
 BASOPT|        4     |       1     | 0.46965290E-02 | 0.27769656E+04 |   80.597
 BASOPT|        4     |       2     | 0.58462065E-02 | 0.75456121E+03 |   61.789
 BASOPT|        4     |       3     | 0.11201873E-01 | 0.22984618E+03 |   52.327
 BASOPT|        5     |       1     | 0.41814426E-02 | 0.55897195E+06 | ********
 BASOPT|        5     |       2     | 0.95785032E-02 | 0.42080984E+05 | 6255.569
 BASOPT|        5     |       3     | 0.13852698E-01 | 0.43683508E+04 | 4958.986
 BASOPT| -----------------------------------------------------------------------
 BASOPT| Total residuum value: -.53404000E+04


 -------------------------------------------------------------------------------
 -                                                                             -
 -                                DBCSR STATISTICS                             -
 -                                                                             -
 -------------------------------------------------------------------------------
 COUNTER                                    TOTAL       BLAS       SMM       ACC
 flops   112 x   112 x     2               150528       0.0%    100.0%      0.0%
 flops   112 x   112 x     1               150528       0.0%    100.0%      0.0%
 flops   112 x    68 x     2               456960       0.0%    100.0%      0.0%
 flops    68 x   112 x     2               456960       0.0%    100.0%      0.0%
 flops   112 x   112 x     9               677376       0.0%    100.0%      0.0%
 flops   116 x   112 x     9               701568       0.0%    100.0%      0.0%
 flops   116 x   116 x     9               726624       0.0%    100.0%      0.0%
 flops   112 x   116 x     2               779520       0.0%    100.0%      0.0%
 flops   116 x   112 x     2               779520       0.0%    100.0%      0.0%
 flops   112 x   116 x     1               779520       0.0%    100.0%      0.0%
 flops   116 x   112 x     1               779520       0.0%    100.0%      0.0%
 flops   112 x   116 x    13              1013376       0.0%    100.0%      0.0%
 flops   112 x   112 x    20              1505280       0.0%    100.0%      0.0%
 flops   112 x   116 x    20              1559040       0.0%    100.0%      0.0%
 flops   112 x   112 x    13              1956864       0.0%    100.0%      0.0%
 flops   116 x   112 x    13              2026752       0.0%    100.0%      0.0%
 flops   112 x   112 x    17              2558976       0.0%    100.0%      0.0%
 flops   112 x   116 x    17              2650368       0.0%    100.0%      0.0%
 flops    68 x    68 x     2              3051840       0.0%    100.0%      0.0%
 flops   116 x   112 x    20              3118080       0.0%    100.0%      0.0%
 flops   116 x   112 x    17              3975552       0.0%    100.0%      0.0%
 flops   116 x   116 x    13              4198272       0.0%    100.0%      0.0%
 flops   116 x    68 x     2              4732800       0.0%    100.0%      0.0%
 flops    68 x   116 x     2              4732800       0.0%    100.0%      0.0%
 flops   116 x   116 x     1              8880960       0.0%    100.0%      0.0%
 flops   116 x   116 x     2              8880960       0.0%    100.0%      0.0%
 flops   112 x   112 x    32              9633792       0.0%    100.0%      0.0%
 flops   116 x   116 x    20              9688320       0.0%    100.0%      0.0%
 flops   116 x   116 x    17             12352608       0.0%    100.0%      0.0%
 flops   112 x    68 x    32             14622720       0.0%    100.0%      0.0%
 flops    68 x   112 x    32             14622720       0.0%    100.0%      0.0%
 flops   112 x   116 x    32             49889280       0.0%    100.0%      0.0%
 flops   116 x   112 x    32             49889280       0.0%    100.0%      0.0%
 flops    68 x    68 x    32             97658880       0.0%    100.0%      0.0%
 flops   116 x    68 x    32            151449600       0.0%    100.0%      0.0%
 flops    68 x   116 x    32            151449600       0.0%    100.0%      0.0%
 flops   116 x   116 x    32            568381440       0.0%    100.0%      0.0%
 flops inhomo. stacks                           0       0.0%      0.0%      0.0%
 flops total                         1.190919E+09       0.0%    100.0%      0.0%
 flops max/rank                     90.268992E+06       0.0%    100.0%      0.0%
 matmuls inhomo. stacks                         0       0.0%      0.0%      0.0%
 matmuls total                               2985       0.0%    100.0%      0.0%
 number of processed stacks                   381       0.0%    100.0%      0.0%
 average stack size                                     0.0       7.8       0.0
 marketing flops                     2.224740E+09
 -------------------------------------------------------------------------------
 # multiplications                              2
 max memory usage/rank             239.480832E+06
 # max total images/rank                        1
 # max 3D layers                                1
 # MPI messages exchanged                     192
 MPI messages size (bytes):
  total size                        11.766720E+06
  min size                           0.000000E+00
  max size                         499.712000E+03
  average size                      61.285000E+03
 MPI breakdown and total messages size (bytes):
             size <=      128                  90                        0
       128 < size <=     8192                  24                   122112
      8192 < size <=    32768                  18                   428160
     32768 < size <=   131072                  24                  1312320
    131072 < size <=  4194304                  36                  9904128
   4194304 < size <= 16777216                   0                        0
  16777216 < size                               0                        0
 -------------------------------------------------------------------------------
 -                                                                             -
 -                      DBCSR MESSAGE PASSING PERFORMANCE                      -
 -                                                                             -
 -------------------------------------------------------------------------------
 ROUTINE             CALLS      AVE VOLUME [Bytes]
 MP_Bcast               38                     12.
 MP_Allreduce          107                     23.
 MP_Alltoall        110118                 663614.
 MP_ISend               16                  37216.
 MP_IRecv               16                   1256.
 -------------------------------------------------------------------------------

 -------------------------------------------------------------------------------
 -                                                                             -
 -                                GRID STATISTICS                              -
 -                                                                             -
 -------------------------------------------------------------------------------
 LP    KERNEL             BACKEND                              COUNT     PERCENT
 5     collocate ortho    REF                                 138414      10.00%
 5     integrate ortho    REF                                 138414      10.00%
 2     collocate ortho    REF                                 134334       9.71%
 2     integrate ortho    REF                                 134334       9.71%
 4     collocate ortho    REF                                 128610       9.29%
 4     integrate ortho    REF                                 128610       9.29%
 1     collocate ortho    REF                                  91044       6.58%
 1     integrate ortho    REF                                  91044       6.58%
 3     collocate ortho    REF                                  60048       4.34%
 3     integrate ortho    REF                                  60048       4.34%
 0     collocate ortho    REF                                  44466       3.21%
 0     integrate ortho    REF                                  44466       3.21%
 7     collocate ortho    REF                                  38316       2.77%
 7     integrate ortho    REF                                  38316       2.77%
 8     collocate ortho    REF                                  34842       2.52%
 8     integrate ortho    REF                                  34842       2.52%
 6     collocate ortho    REF                                  21906       1.58%
 6     integrate ortho    REF                                  21906       1.58%
 0     collocate general  REF                                    123       0.01%
 -------------------------------------------------------------------------------

 MEMORY| Estimated peak process memory [MiB]                                 474

 -------------------------------------------------------------------------------
 -                                                                             -
 -                         MESSAGE PASSING PERFORMANCE                         -
 -                                                                             -
 -------------------------------------------------------------------------------

 ROUTINE             CALLS      AVE VOLUME [Bytes]
 MP_Bcast             1571                  46391.
 MP_Allreduce        14133                    118.
 MP_Sync              1529
 MP_Alltoall            34                2831691.
 MP_ISendRecv           51                 183477.
 MP_Wait                51
 MP_comm_split           1
 -------------------------------------------------------------------------------


 -------------------------------------------------------------------------------
 -                                                                             -
 -                           R E F E R E N C E S                               -
 -                                                                             -
 -------------------------------------------------------------------------------
 
 CP2K version 9.0 (Development Version), the CP2K developers group (2020).
 CP2K is freely available from https://www.cp2k.org/ .

 Kuehne,Thomas D.; Iannuzzi,Marcella; Del Ben,Mauro;
 Rybkin,Vladimir V.; Seewald,Patrick; Stein,Frederick; Laino,Teodoro;
 Khaliullin,Rustam Z.; Schuett,Ole; Schiffmann,Florian; Golze,Dorothea;
 Wilhelm,Jan; Chulkov,Sergey; Bani-Hashemian,Mohammad Hossein;
 Weber,Valery; Borstnik,Urban; Taillefumier,Mathieu;
 Jakobovits,Alice Shoshana; Lazzaro,Alfio; Pabst,Hans; Mueller,Tiziano;
 Schade,Robert; Guidon,Manuel; Andermatt,Samuel; Holmberg,Nico;
 Schenter,Gregory K.; Hehn,Anna; Bussy,Augustin; Belleflamme,Fabian;
 Tabacchi,Gloria; Gloess,Andreas; Lass,Michael; Bethune,Iain;
 Mundy,Christopher J.; Plessl,Christian; Watkins,Matt;
 VandeVondele,Joost; Krack,Matthias; Hutter,Juerg. 
 The Journal of Chemical Physics, 152 (19), (2020). 
 CP2K: An electronic structure and molecular dynamics software package -
 Quickstep: Efficient and accurate electronic structure calculations.
 https://doi.org/10.1063/5.0007045

 Schuett, Ole; Messmer, Peter; Hutter, Juerg; VandeVondele, Joost. 
 Electronic Structure Calculations on Graphics Processing Units, John
 Wiley & Sons, Ltd, 173-190 (2016). 
 GPU-Accelerated Sparse Matrix-Matrix Multiplication for
 Linear Scaling Density Functional Theory.
 https://doi.org/10.1002/9781118670712.ch8

 Borstnik, U; VandeVondele, J; Weber, V; Hutter, J. 
 PARALLEL COMPUTING, 40 (5-6), 47-58 (2014). 
 Sparse matrix multiplication: The distributed block-compressed sparse
 row library.
 https://doi.org/10.1016/j.parco.2014.03.012

 Hutter, J; Iannuzzi, M; Schiffmann, F; VandeVondele, J. 
 WIREs Comput Mol Sci., 4 (1), 15-25 (2014). 
 CP2K: atomistic simulations of condensed matter systems.
 https://doi.org/10.1002/wcms.1159

 Marek, A; Blum, V; Johanni, R; Havu, V; Lang, B; Auckenthaler, T;
 Heinecke, A; Bungartz, H; Lederer, H. 
 Journal of Physics: Condensed Matter, 26 (21), (2014). 
 The ELPA library: scalable parallel eigenvalue solutions for
 electronic structure
 theory and computational science.
 https://doi.org/10.1088/0953-8984/26/21/213201

 Guidon, M; Hutter, J; VandeVondele, J. 
 JOURNAL OF CHEMICAL THEORY AND COMPUTATION, 6 (8), 2348-2364 (2010). 
 Auxiliary Density Matrix Methods for Hartree-Fock Exchange Calculations.
 https://doi.org/10.1021/ct1002225

 VandeVondele, J; Hutter, J. 
 JOURNAL OF CHEMICAL PHYSICS, 127 (11), 114105 (2007). 
 Gaussian basis sets for accurate calculations on molecular systems in
 gas and condensed phases.
 https://doi.org/10.1063/1.2770708

 Krack, M. 
 THEORETICAL CHEMISTRY ACCOUNTS, 114 (1-3), 145-152 (2005). 
 Pseudopotentials for H to Kr optimized for gradient-corrected
 exchange-correlation functionals.
 https://doi.org/10.1007/s00214-005-0655-y

 VandeVondele, J; Krack, M; Mohamed, F; Parrinello, M; Chassaing, T;
 Hutter, J. COMPUTER PHYSICS COMMUNICATIONS, 167 (2), 103-128 (2005). 
 QUICKSTEP: Fast and accurate density functional calculations using a
 mixed Gaussian and plane waves approach.
 https://doi.org/10.1016/j.cpc.2004.12.014

 Frigo, M; Johnson, SG. 
 PROCEEDINGS OF THE IEEE, 93 (2), 216-231 (2005). 
 The design and implementation of FFTW3.
 https://doi.org/10.1109/JPROC.2004.840301

 Hartwigsen, C; Goedecker, S; Hutter, J. 
 PHYSICAL REVIEW B, 58 (7), 3641-3662 (1998). 
 Relativistic separable dual-space Gaussian pseudopotentials from H to Rn.
 https://doi.org/10.1103/PhysRevB.58.3641

 Lippert, G; Hutter, J; Parrinello, M. 
 MOLECULAR PHYSICS, 92 (3), 477-487 (1997). 
 A hybrid Gaussian and plane wave density functional scheme.
 https://doi.org/10.1080/002689797170220

 Perdew, JP; Burke, K; Ernzerhof, M. 
 PHYSICAL REVIEW LETTERS, 77 (18), 3865-3868 (1996). 
 Generalized gradient approximation made simple.
 https://doi.org/10.1103/PhysRevLett.77.3865

 Goedecker, S; Teter, M; Hutter, J. 
 PHYSICAL REVIEW B, 54 (3), 1703-1710 (1996). 
 Separable dual-space Gaussian pseudopotentials.
 https://doi.org/10.1103/PhysRevB.54.1703


 -------------------------------------------------------------------------------
 -                                                                             -
 -                                T I M I N G                                  -
 -                                                                             -
 -------------------------------------------------------------------------------
 SUBROUTINE                       CALLS  ASD         SELF TIME        TOTAL TIME
                                MAXIMUM       AVERAGE  MAXIMUM  AVERAGE  MAXIMUM
 CP2K                                 1  1.0     0.00     0.00 11444.59 11446.61
 run_optimize_basis                   1  2.0     0.00     0.00 11444.58 11446.60
 driver_para_opt_basis                1  3.0     0.00     0.00 11444.57 11446.59
 driver_optimization_para_low         1  4.0     0.03     0.05 11444.57 11446.59
 compute_residuum_vectors          1529  5.0     0.16     0.24 11439.76 11444.78
 mp_sum_dv                         7646  5.8  9100.84 11389.94  9100.84 11389.94
 cp_gemm                          32109  7.1     0.07     0.12  2030.17 10463.95
 cp_gemm_fm_gemm                  32109  8.1     0.04     0.09  2030.10 10463.85
 cp_fm_gemm                       32109  9.1  2030.06 10463.79  2030.06 10463.79
 admm_fit_mo_coeffs                1529  6.0     0.01     0.01   739.91  3527.07
 fit_mo_coeffs                     1529  7.0     0.02     0.05   613.86  3103.71
 build_overlap_matrix_low          3062  6.0   154.39   592.91   154.61   593.60
 purify_mo_diag                    1529  7.0     0.05     0.11   126.05   428.45
 copy_dbcsr_to_fm                  9175  6.7     0.18     0.31    72.37   252.92
 -------------------------------------------------------------------------------

 The number of warnings for this run is : 0
 
 -------------------------------------------------------------------------------
  **** **** ******  **  PROGRAM ENDED AT                 2021-01-30 14:40:36.079
 ***** ** ***  *** **   PROGRAM RAN ON                                   tcopt10
 **    ****   ******    PROGRAM RAN BY                                    hutter
 ***** **    ** ** **   PROGRAM PROCESS ID                                 89777
  **** **  *******  **  PROGRAM STOPPED IN /data/hutter/GITHUB/BASIS/MOLOPT/PBE/
                                           Fe
