
  **** **** ******  **  PROGRAM STARTED AT               2021-01-28 12:10:11.553
 ***** ** ***  *** **   PROGRAM STARTED ON                               tcopt10
 **    ****   ******    PROGRAM STARTED BY                                hutter
 ***** **    ** ** **   PROGRAM PROCESS ID                                 66440
  **** **  *******  **  PROGRAM STARTED IN /data/hutter/GITHUB/BASIS/MOLOPT/PBE/
                                           Fe

 CP2K| version string:                    CP2K version 9.0 (Development Version)
 CP2K| source code revision number:                                  git:3a0fa18
 CP2K| cp2kflags: omp libint fftw3 libxc elpa parallel mpi3 scalapack xsmm spgli
 CP2K|            b sirius libvori libbqb
 CP2K| is freely available from                            https://www.cp2k.org/
 CP2K| Program compiled at                          Wed Jan 27 11:43:32 CET 2021
 CP2K| Program compiled on                                               tcopt10
 CP2K| Program compiled for                                                local
 CP2K| Data directory path                 /data/hutter/GITHUB/CURRENT/cp2k/data
 CP2K| Input file name                                              opt-dzvp.inp

 GLOBAL| Method name                                              OPTIMIZE_BASIS
 GLOBAL| Project name                                                     molopt
 GLOBAL| Preferred FFT library                                             FFTW3
 GLOBAL| Preferred diagonalization lib.                                     ELPA
 GLOBAL| Run type                                                   ENERGY_FORCE
 GLOBAL| All-to-all communication in single precision                          F
 GLOBAL| FFTs using library dependent lengths                                  F
 GLOBAL| Global print level                                               MEDIUM
 GLOBAL| MPI I/O enabled                                                       T
 GLOBAL| Total number of message passing processes                            48
 GLOBAL| Number of threads for this process                                    1
 GLOBAL| This output is from process                                           0
 GLOBAL| CPU model name                          AMD EPYC 7401 24-Core Processor
 GLOBAL| CPUID                                                              1002

 MEMORY| system memory details [Kb]
 MEMORY|                        rank 0           min           max       average
 MEMORY| MemTotal            263969964     263969964     263969964     263969964
 MEMORY| MemFree             248415364     248415364     248415364     248415364
 MEMORY| Buffers                   136           136           136           136
 MEMORY| Cached               11049780      11049780      11049780      11049780
 MEMORY| Slab                   685384        685384        685384        685384
 MEMORY| SReclaimable           288880        288880        288880        288880
 MEMORY| MemLikelyFree       259754160     259754160     259754160     259754160


 *** Fundamental physical constants (SI units) ***

 *** Literature: B. J. Mohr and B. N. Taylor,
 ***             CODATA recommended values of the fundamental physical
 ***             constants: 2006, Web Version 5.1
 ***             http://physics.nist.gov/constants

 Speed of light in vacuum [m/s]                             2.99792458000000E+08
 Magnetic constant or permeability of vacuum [N/A**2]       1.25663706143592E-06
 Electric constant or permittivity of vacuum [F/m]          8.85418781762039E-12
 Planck constant (h) [J*s]                                  6.62606896000000E-34
 Planck constant (h-bar) [J*s]                              1.05457162825177E-34
 Elementary charge [C]                                      1.60217648700000E-19
 Electron mass [kg]                                         9.10938215000000E-31
 Electron g factor [ ]                                     -2.00231930436220E+00
 Proton mass [kg]                                           1.67262163700000E-27
 Fine-structure constant                                    7.29735253760000E-03
 Rydberg constant [1/m]                                     1.09737315685270E+07
 Avogadro constant [1/mol]                                  6.02214179000000E+23
 Boltzmann constant [J/K]                                   1.38065040000000E-23
 Atomic mass unit [kg]                                      1.66053878200000E-27
 Bohr radius [m]                                            5.29177208590000E-11

 *** Conversion factors ***

 [u] -> [a.u.]                                              1.82288848426455E+03
 [Angstrom] -> [Bohr] = [a.u.]                              1.88972613288564E+00
 [a.u.] = [Bohr] -> [Angstrom]                              5.29177208590000E-01
 [a.u.] -> [s]                                              2.41888432650478E-17
 [a.u.] -> [fs]                                             2.41888432650478E-02
 [a.u.] -> [J]                                              4.35974393937059E-18
 [a.u.] -> [N]                                              8.23872205491840E-08
 [a.u.] -> [K]                                              3.15774647902944E+05
 [a.u.] -> [kJ/mol]                                         2.62549961709828E+03
 [a.u.] -> [kcal/mol]                                       6.27509468713739E+02
 [a.u.] -> [Pa]                                             2.94210107994716E+13
 [a.u.] -> [bar]                                            2.94210107994716E+08
 [a.u.] -> [atm]                                            2.90362800883016E+08
 [a.u.] -> [eV]                                             2.72113838565563E+01
 [a.u.] -> [Hz]                                             6.57968392072181E+15
 [a.u.] -> [1/cm] (wave numbers)                            2.19474631370540E+05
 [a.u./Bohr**2] -> [1/cm]                                   5.14048714338585E+03
 
 DBCSR| CPU Multiplication driver                                           XSMM
 DBCSR| Multrec recursion limit                                              512
 DBCSR| Multiplication stack size                                           1000
 DBCSR| Maximum elements for images                                    UNLIMITED
 DBCSR| Multiplicative factor virtual images                                   1
 DBCSR| Use multiplication densification                                       T
 DBCSR| Multiplication size stacks                                             3
 DBCSR| Use memory pool for CPU allocation                                     F
 DBCSR| Number of 3D layers                                               SINGLE
 DBCSR| Use MPI memory allocation                                              F
 DBCSR| Use RMA algorithm                                                      F
 DBCSR| Use Communication thread                                               T
 DBCSR| Communication thread load                                             87
 DBCSR| MPI: My node id                                                        0
 DBCSR| MPI: Number of nodes                                                  48
 DBCSR| OMP: Current number of threads                                         1
 DBCSR| OMP: Max number of threads                                             1
 DBCSR| Split modifier for TAS multiplication algorithm                  1.0E+00

 BASOPT| Total number of calculations      5

 BASOPT| Content of basis combination      1
 BASOPT|     Element:   FE    Basis set:    DZVP-MOLOPT-PBE-GTH-Q16
 BASOPT|     Element:    H    Basis set:    DZVP-MOLOPT-PBE-GTH-Q1
 BASOPT|     Element:    F    Basis set:    DZVP-MOLOPT-PBE-GTH-Q7
 BASOPT|     Element:    C    Basis set:    DZVP-MOLOPT-PBE-GTH-Q4
 BASOPT|     Element:    O    Basis set:    DZVP-MOLOPT-PBE-GTH-Q6

 BASOPT| Information at iteration number:       0
 BASOPT| Training set | Combination | Rho difference | Condition num. | Time
 BASOPT| -----------------------------------------------------------------------
 BASOPT|        1     |       1     | 0.17029245E-01 | 0.27298097E+04 |    1.157
 BASOPT|        2     |       1     | 0.64749194E-02 | 0.24545039E+03 |    0.067
 BASOPT|        3     |       1     | 0.87287427E-02 | 0.16807990E+03 |    0.098
 BASOPT|        4     |       1     | 0.90544618E-02 | 0.20401881E+03 |    0.035
 BASOPT|        5     |       1     | 0.14262835E-01 | 0.43836129E+04 |    3.200
 BASOPT| -----------------------------------------------------------------------
 BASOPT| Total residuum value: -.17792346E+04

 BASOPT| Information at iteration number:     100
 BASOPT| Training set | Combination | Rho difference | Condition num. | Time
 BASOPT| -----------------------------------------------------------------------
 BASOPT|        1     |       1     | 0.16972473E-01 | 0.27461142E+04 |  115.193
 BASOPT|        2     |       1     | 0.64075871E-02 | 0.24545039E+03 |    6.475
 BASOPT|        3     |       1     | 0.85900702E-02 | 0.16875539E+03 |    9.404
 BASOPT|        4     |       1     | 0.89981665E-02 | 0.20512209E+03 |    3.495
 BASOPT|        5     |       1     | 0.14224939E-01 | 0.43836129E+04 |  320.525
 BASOPT| -----------------------------------------------------------------------
 BASOPT| Total residuum value: -.17792489E+04

 BASOPT| Information at iteration number:     200
 BASOPT| Training set | Combination | Rho difference | Condition num. | Time
 BASOPT| -----------------------------------------------------------------------
 BASOPT|        1     |       1     | 0.16033705E-01 | 0.33064275E+04 |  229.429
 BASOPT|        2     |       1     | 0.64767832E-02 | 0.30027358E+03 |   12.937
 BASOPT|        3     |       1     | 0.83344130E-02 | 0.19206749E+03 |   18.754
 BASOPT|        4     |       1     | 0.10405807E-01 | 0.23066139E+03 |    7.028
 BASOPT|        5     |       1     | 0.13971848E-01 | 0.43800500E+04 |  637.825
 BASOPT| -----------------------------------------------------------------------
 BASOPT| Total residuum value: -.17793180E+04

 BASOPT| Information at iteration number:     300
 BASOPT| Training set | Combination | Rho difference | Condition num. | Time
 BASOPT| -----------------------------------------------------------------------
 BASOPT|        1     |       1     | 0.16284748E-01 | 0.33151860E+04 |  343.441
 BASOPT|        2     |       1     | 0.64129047E-02 | 0.29298482E+03 |   19.315
 BASOPT|        3     |       1     | 0.82361141E-02 | 0.18814191E+03 |   28.036
 BASOPT|        4     |       1     | 0.10047250E-01 | 0.22752386E+03 |   10.488
 BASOPT|        5     |       1     | 0.14042581E-01 | 0.43789221E+04 |  954.817
 BASOPT| -----------------------------------------------------------------------
 BASOPT| Total residuum value: -.17793233E+04

 BASOPT| Information at iteration number:     400
 BASOPT| Training set | Combination | Rho difference | Condition num. | Time
 BASOPT| -----------------------------------------------------------------------
 BASOPT|        1     |       1     | 0.15858860E-01 | 0.35961138E+04 |  457.414
 BASOPT|        2     |       1     | 0.63759086E-02 | 0.31705539E+03 |   25.694
 BASOPT|        3     |       1     | 0.80955262E-02 | 0.19949358E+03 |   37.315
 BASOPT|        4     |       1     | 0.10797107E-01 | 0.24000972E+03 |   13.949
 BASOPT|        5     |       1     | 0.13967095E-01 | 0.43741714E+04 | 1271.758
 BASOPT| -----------------------------------------------------------------------
 BASOPT| Total residuum value: -.17793311E+04

 BASOPT| Information at iteration number:     500
 BASOPT| Training set | Combination | Rho difference | Condition num. | Time
 BASOPT| -----------------------------------------------------------------------
 BASOPT|        1     |       1     | 0.14993077E-01 | 0.39677203E+04 |  571.400
 BASOPT|        2     |       1     | 0.66851603E-02 | 0.37780527E+03 |   32.081
 BASOPT|        3     |       1     | 0.79878708E-02 | 0.22520121E+03 |   46.592
 BASOPT|        4     |       1     | 0.13352375E-01 | 0.25833324E+03 |   17.411
 BASOPT|        5     |       1     | 0.13786198E-01 | 0.43644625E+04 | 1588.677
 BASOPT| -----------------------------------------------------------------------
 BASOPT| Total residuum value: -.17792902E+04

 BASOPT| Information at iteration number:     600
 BASOPT| Training set | Combination | Rho difference | Condition num. | Time
 BASOPT| -----------------------------------------------------------------------
 BASOPT|        1     |       1     | 0.15734824E-01 | 0.36241706E+04 |  685.426
 BASOPT|        2     |       1     | 0.63650159E-02 | 0.32123541E+03 |   38.467
 BASOPT|        3     |       1     | 0.80347997E-02 | 0.20106267E+03 |   55.862
 BASOPT|        4     |       1     | 0.11100674E-01 | 0.23892122E+03 |   20.870
 BASOPT|        5     |       1     | 0.13920589E-01 | 0.43699357E+04 | 1905.670
 BASOPT| -----------------------------------------------------------------------
 BASOPT| Total residuum value: -.17793322E+04

 BASOPT| Information at iteration number:     700
 BASOPT| Training set | Combination | Rho difference | Condition num. | Time
 BASOPT| -----------------------------------------------------------------------
 BASOPT|        1     |       1     | 0.15698108E-01 | 0.36453007E+04 |  799.474
 BASOPT|        2     |       1     | 0.63728479E-02 | 0.32410121E+03 |   44.848
 BASOPT|        3     |       1     | 0.80252072E-02 | 0.20222873E+03 |   65.136
 BASOPT|        4     |       1     | 0.11202573E-01 | 0.23975020E+03 |   24.329
 BASOPT|        5     |       1     | 0.13914012E-01 | 0.43694652E+04 | 2222.631
 BASOPT| -----------------------------------------------------------------------
 BASOPT| Total residuum value: -.17793363E+04

 BASOPT| Information at iteration number:     800
 BASOPT| Training set | Combination | Rho difference | Condition num. | Time
 BASOPT| -----------------------------------------------------------------------
 BASOPT|        1     |       1     | 0.15698952E-01 | 0.36446916E+04 |  913.567
 BASOPT|        2     |       1     | 0.63728539E-02 | 0.32402350E+03 |   51.235
 BASOPT|        3     |       1     | 0.80255315E-02 | 0.20219556E+03 |   74.420
 BASOPT|        4     |       1     | 0.11200306E-01 | 0.23972777E+03 |   27.791
 BASOPT|        5     |       1     | 0.13914281E-01 | 0.43694823E+04 | 2539.598
 BASOPT| -----------------------------------------------------------------------
 BASOPT| Total residuum value: -.17793337E+04

 BASOPT| Information at iteration number:     900
 BASOPT| Training set | Combination | Rho difference | Condition num. | Time
 BASOPT| -----------------------------------------------------------------------
 BASOPT|        1     |       1     | 0.15699436E-01 | 0.36444821E+04 | 1027.658
 BASOPT|        2     |       1     | 0.63727899E-02 | 0.32399659E+03 |   57.620
 BASOPT|        3     |       1     | 0.80255936E-02 | 0.20218375E+03 |   83.700
 BASOPT|        4     |       1     | 0.11199323E-01 | 0.23971572E+03 |   31.253
 BASOPT|        5     |       1     | 0.13914409E-01 | 0.43694862E+04 | 2856.575
 BASOPT| -----------------------------------------------------------------------
 BASOPT| Total residuum value: -.17793340E+04

 BASOPT| Information at iteration number:    1000
 BASOPT| Training set | Combination | Rho difference | Condition num. | Time
 BASOPT| -----------------------------------------------------------------------
 BASOPT|        1     |       1     | 0.15699440E-01 | 0.36444849E+04 | 1141.788
 BASOPT|        2     |       1     | 0.63727867E-02 | 0.32399605E+03 |   64.013
 BASOPT|        3     |       1     | 0.80255961E-02 | 0.20218360E+03 |   92.988
 BASOPT|        4     |       1     | 0.11199305E-01 | 0.23971562E+03 |   34.713
 BASOPT|        5     |       1     | 0.13914410E-01 | 0.43694864E+04 | 3173.663
 BASOPT| -----------------------------------------------------------------------
 BASOPT| Total residuum value: -.17793347E+04

 BASOPT| Information at iteration number:    1100
 BASOPT| Training set | Combination | Rho difference | Condition num. | Time
 BASOPT| -----------------------------------------------------------------------
 BASOPT|        1     |       1     | 0.15699443E-01 | 0.36444828E+04 | 1255.944
 BASOPT|        2     |       1     | 0.63727857E-02 | 0.32399583E+03 |   70.396
 BASOPT|        3     |       1     | 0.80255965E-02 | 0.20218351E+03 |  102.280
 BASOPT|        4     |       1     | 0.11199298E-01 | 0.23971552E+03 |   38.173
 BASOPT|        5     |       1     | 0.13914411E-01 | 0.43694864E+04 | 3490.721
 BASOPT| -----------------------------------------------------------------------
 BASOPT| Total residuum value: -.17793357E+04

 BASOPT| Information at iteration number:    1200
 BASOPT| Training set | Combination | Rho difference | Condition num. | Time
 BASOPT| -----------------------------------------------------------------------
 BASOPT|        1     |       1     | 0.15699443E-01 | 0.36444828E+04 | 1370.072
 BASOPT|        2     |       1     | 0.63727857E-02 | 0.32399583E+03 |   76.779
 BASOPT|        3     |       1     | 0.80255966E-02 | 0.20218351E+03 |  111.569
 BASOPT|        4     |       1     | 0.11199298E-01 | 0.23971552E+03 |   41.634
 BASOPT|        5     |       1     | 0.13914411E-01 | 0.43694864E+04 | 3807.815
 BASOPT| -----------------------------------------------------------------------
 BASOPT| Total residuum value: -.17793381E+04

 BASOPT| Information at iteration number:    1300
 BASOPT| Training set | Combination | Rho difference | Condition num. | Time
 BASOPT| -----------------------------------------------------------------------
 BASOPT|        1     |       1     | 0.15699443E-01 | 0.36444828E+04 | 1484.246
 BASOPT|        2     |       1     | 0.63727857E-02 | 0.32399583E+03 |   83.163
 BASOPT|        3     |       1     | 0.80255966E-02 | 0.20218351E+03 |  120.860
 BASOPT|        4     |       1     | 0.11199298E-01 | 0.23971552E+03 |   45.097
 BASOPT|        5     |       1     | 0.13914411E-01 | 0.43694864E+04 | 4124.906
 BASOPT| -----------------------------------------------------------------------
 BASOPT| Total residuum value: -.17793373E+04

 BASOPT| Information at iteration number:    1400
 BASOPT| Training set | Combination | Rho difference | Condition num. | Time
 BASOPT| -----------------------------------------------------------------------
 BASOPT|        1     |       1     | 0.15699443E-01 | 0.36444828E+04 | 1598.395
 BASOPT|        2     |       1     | 0.63727857E-02 | 0.32399583E+03 |   89.545
 BASOPT|        3     |       1     | 0.80255966E-02 | 0.20218351E+03 |  130.151
 BASOPT|        4     |       1     | 0.11199298E-01 | 0.23971552E+03 |   48.561
 BASOPT|        5     |       1     | 0.13914411E-01 | 0.43694864E+04 | 4441.972
 BASOPT| -----------------------------------------------------------------------
 BASOPT| Total residuum value: -.17793377E+04


 -------------------------------------------------------------------------------
 -                                                                             -
 -                                DBCSR STATISTICS                             -
 -                                                                             -
 -------------------------------------------------------------------------------
 COUNTER                                    TOTAL       BLAS       SMM       ACC
 flops   112 x   112 x     2                50176       0.0%    100.0%      0.0%
 flops   112 x   112 x     1                50176       0.0%    100.0%      0.0%
 flops    68 x   112 x     2               152320       0.0%    100.0%      0.0%
 flops   112 x    68 x     2               152320       0.0%    100.0%      0.0%
 flops   112 x   112 x     9               225792       0.0%    100.0%      0.0%
 flops   116 x   112 x     9               233856       0.0%    100.0%      0.0%
 flops   116 x   116 x     9               242208       0.0%    100.0%      0.0%
 flops   116 x   112 x     2               259840       0.0%    100.0%      0.0%
 flops   112 x   116 x     2               259840       0.0%    100.0%      0.0%
 flops   112 x   116 x     1               259840       0.0%    100.0%      0.0%
 flops   116 x   112 x     1               259840       0.0%    100.0%      0.0%
 flops   112 x   116 x    13               337792       0.0%    100.0%      0.0%
 flops   112 x   112 x    20               501760       0.0%    100.0%      0.0%
 flops   112 x   116 x    20               519680       0.0%    100.0%      0.0%
 flops   112 x   112 x    13               652288       0.0%    100.0%      0.0%
 flops   116 x   112 x    13               675584       0.0%    100.0%      0.0%
 flops   112 x   112 x    17               852992       0.0%    100.0%      0.0%
 flops   112 x   116 x    17               883456       0.0%    100.0%      0.0%
 flops    68 x    68 x     2              1017280       0.0%    100.0%      0.0%
 flops   116 x   112 x    20              1039360       0.0%    100.0%      0.0%
 flops   116 x   112 x    17              1325184       0.0%    100.0%      0.0%
 flops   116 x   116 x    13              1399424       0.0%    100.0%      0.0%
 flops   116 x    68 x     2              1577600       0.0%    100.0%      0.0%
 flops    68 x   116 x     2              1577600       0.0%    100.0%      0.0%
 flops   116 x   116 x     1              2960320       0.0%    100.0%      0.0%
 flops   116 x   116 x     2              2960320       0.0%    100.0%      0.0%
 flops   112 x   112 x    32              3211264       0.0%    100.0%      0.0%
 flops   116 x   116 x    20              3229440       0.0%    100.0%      0.0%
 flops   116 x   116 x    17              4117536       0.0%    100.0%      0.0%
 flops    68 x   112 x    32              4874240       0.0%    100.0%      0.0%
 flops   112 x    68 x    32              4874240       0.0%    100.0%      0.0%
 flops   116 x   112 x    32             16629760       0.0%    100.0%      0.0%
 flops   112 x   116 x    32             16629760       0.0%    100.0%      0.0%
 flops    68 x    68 x    32             32552960       0.0%    100.0%      0.0%
 flops   116 x    68 x    32             50483200       0.0%    100.0%      0.0%
 flops    68 x   116 x    32             50483200       0.0%    100.0%      0.0%
 flops   116 x   116 x    32            189460480       0.0%    100.0%      0.0%
 flops inhomo. stacks                           0       0.0%      0.0%      0.0%
 flops total                       396.972928E+06       0.0%    100.0%      0.0%
 flops max/rank                     33.918720E+06       0.0%    100.0%      0.0%
 matmuls inhomo. stacks                         0       0.0%      0.0%      0.0%
 matmuls total                                995       0.0%    100.0%      0.0%
 number of processed stacks                   239       0.0%    100.0%      0.0%
 average stack size                                     0.0       4.2       0.0
 marketing flops                   741.579904E+06
 -------------------------------------------------------------------------------
 # multiplications                              2
 max memory usage/rank             181.194752E+06
 # max total images/rank                        5
 # max 3D layers                                1
 # MPI messages exchanged                     924
 MPI messages size (bytes):
  total size                         8.734816E+06
  min size                           0.000000E+00
  max size                         177.152000E+03
  average size                       9.453264E+03
 MPI breakdown and total messages size (bytes):
             size <=      128                 786                        0
       128 < size <=     8192                  30                   134016
      8192 < size <=    32768                  41                   567392
     32768 < size <=   131072                  27                  1430656
    131072 < size <=  4194304                  40                  6602752
   4194304 < size <= 16777216                   0                        0
  16777216 < size                               0                        0
 -------------------------------------------------------------------------------

 *** WARNING in dbcsr_mm.F:294 :: Using a non-square number of MPI ranks ***
 *** might lead to poor performance. Used ranks: 10 Suggested: 9 16      ***

 -------------------------------------------------------------------------------
 -                                                                             -
 -                      DBCSR MESSAGE PASSING PERFORMANCE                      -
 -                                                                             -
 -------------------------------------------------------------------------------
 ROUTINE             CALLS      AVE VOLUME [Bytes]
 MP_Bcast               38                     12.
 MP_Allreduce          107                     23.
 MP_Alltoall        101910                 197675.
 MP_ISend               68                   8988.
 MP_IRecv               68                    251.
 -------------------------------------------------------------------------------

 -------------------------------------------------------------------------------
 -                                                                             -
 -                                GRID STATISTICS                              -
 -                                                                             -
 -------------------------------------------------------------------------------
 LP    KERNEL             BACKEND                              COUNT     PERCENT
 5     collocate ortho    REF                                  46138      10.00%
 5     integrate ortho    REF                                  46138      10.00%
 2     collocate ortho    REF                                  44778       9.71%
 2     integrate ortho    REF                                  44778       9.71%
 4     collocate ortho    REF                                  42870       9.29%
 4     integrate ortho    REF                                  42870       9.29%
 1     collocate ortho    REF                                  30348       6.58%
 1     integrate ortho    REF                                  30348       6.58%
 3     collocate ortho    REF                                  20016       4.34%
 3     integrate ortho    REF                                  20016       4.34%
 0     collocate ortho    REF                                  14822       3.21%
 0     integrate ortho    REF                                  14822       3.21%
 7     collocate ortho    REF                                  12772       2.77%
 7     integrate ortho    REF                                  12772       2.77%
 8     collocate ortho    REF                                  11614       2.52%
 8     integrate ortho    REF                                  11614       2.52%
 6     collocate ortho    REF                                   7302       1.58%
 6     integrate ortho    REF                                   7302       1.58%
 0     collocate general  REF                                     41       0.01%
 -------------------------------------------------------------------------------

 MEMORY| Estimated peak process memory [MiB]                                 283

 -------------------------------------------------------------------------------
 -                                                                             -
 -                         MESSAGE PASSING PERFORMANCE                         -
 -                                                                             -
 -------------------------------------------------------------------------------

 ROUTINE             CALLS      AVE VOLUME [Bytes]
 MP_Bcast             5702                   4629.
 MP_Allreduce        25842                     40.
 MP_Sync              5660
 MP_Alltoall            34                1098662.
 MP_ISendRecv          153                  81016.
 MP_Wait               153
 MP_comm_split        4246
 -------------------------------------------------------------------------------


 -------------------------------------------------------------------------------
 -                                                                             -
 -                           R E F E R E N C E S                               -
 -                                                                             -
 -------------------------------------------------------------------------------
 
 CP2K version 9.0 (Development Version), the CP2K developers group (2020).
 CP2K is freely available from https://www.cp2k.org/ .

 Kuehne,Thomas D.; Iannuzzi,Marcella; Del Ben,Mauro;
 Rybkin,Vladimir V.; Seewald,Patrick; Stein,Frederick; Laino,Teodoro;
 Khaliullin,Rustam Z.; Schuett,Ole; Schiffmann,Florian; Golze,Dorothea;
 Wilhelm,Jan; Chulkov,Sergey; Bani-Hashemian,Mohammad Hossein;
 Weber,Valery; Borstnik,Urban; Taillefumier,Mathieu;
 Jakobovits,Alice Shoshana; Lazzaro,Alfio; Pabst,Hans; Mueller,Tiziano;
 Schade,Robert; Guidon,Manuel; Andermatt,Samuel; Holmberg,Nico;
 Schenter,Gregory K.; Hehn,Anna; Bussy,Augustin; Belleflamme,Fabian;
 Tabacchi,Gloria; Gloess,Andreas; Lass,Michael; Bethune,Iain;
 Mundy,Christopher J.; Plessl,Christian; Watkins,Matt;
 VandeVondele,Joost; Krack,Matthias; Hutter,Juerg. 
 The Journal of Chemical Physics, 152 (19), (2020). 
 CP2K: An electronic structure and molecular dynamics software package -
 Quickstep: Efficient and accurate electronic structure calculations.
 https://doi.org/10.1063/5.0007045

 Schuett, Ole; Messmer, Peter; Hutter, Juerg; VandeVondele, Joost. 
 Electronic Structure Calculations on Graphics Processing Units, John
 Wiley & Sons, Ltd, 173-190 (2016). 
 GPU-Accelerated Sparse Matrix-Matrix Multiplication for
 Linear Scaling Density Functional Theory.
 https://doi.org/10.1002/9781118670712.ch8

 Borstnik, U; VandeVondele, J; Weber, V; Hutter, J. 
 PARALLEL COMPUTING, 40 (5-6), 47-58 (2014). 
 Sparse matrix multiplication: The distributed block-compressed sparse
 row library.
 https://doi.org/10.1016/j.parco.2014.03.012

 Hutter, J; Iannuzzi, M; Schiffmann, F; VandeVondele, J. 
 WIREs Comput Mol Sci., 4 (1), 15-25 (2014). 
 CP2K: atomistic simulations of condensed matter systems.
 https://doi.org/10.1002/wcms.1159

 Marek, A; Blum, V; Johanni, R; Havu, V; Lang, B; Auckenthaler, T;
 Heinecke, A; Bungartz, H; Lederer, H. 
 Journal of Physics: Condensed Matter, 26 (21), (2014). 
 The ELPA library: scalable parallel eigenvalue solutions for
 electronic structure
 theory and computational science.
 https://doi.org/10.1088/0953-8984/26/21/213201

 Guidon, M; Hutter, J; VandeVondele, J. 
 JOURNAL OF CHEMICAL THEORY AND COMPUTATION, 6 (8), 2348-2364 (2010). 
 Auxiliary Density Matrix Methods for Hartree-Fock Exchange Calculations.
 https://doi.org/10.1021/ct1002225

 VandeVondele, J; Hutter, J. 
 JOURNAL OF CHEMICAL PHYSICS, 127 (11), 114105 (2007). 
 Gaussian basis sets for accurate calculations on molecular systems in
 gas and condensed phases.
 https://doi.org/10.1063/1.2770708

 Krack, M. 
 THEORETICAL CHEMISTRY ACCOUNTS, 114 (1-3), 145-152 (2005). 
 Pseudopotentials for H to Kr optimized for gradient-corrected
 exchange-correlation functionals.
 https://doi.org/10.1007/s00214-005-0655-y

 VandeVondele, J; Krack, M; Mohamed, F; Parrinello, M; Chassaing, T;
 Hutter, J. COMPUTER PHYSICS COMMUNICATIONS, 167 (2), 103-128 (2005). 
 QUICKSTEP: Fast and accurate density functional calculations using a
 mixed Gaussian and plane waves approach.
 https://doi.org/10.1016/j.cpc.2004.12.014

 Frigo, M; Johnson, SG. 
 PROCEEDINGS OF THE IEEE, 93 (2), 216-231 (2005). 
 The design and implementation of FFTW3.
 https://doi.org/10.1109/JPROC.2004.840301

 Hartwigsen, C; Goedecker, S; Hutter, J. 
 PHYSICAL REVIEW B, 58 (7), 3641-3662 (1998). 
 Relativistic separable dual-space Gaussian pseudopotentials from H to Rn.
 https://doi.org/10.1103/PhysRevB.58.3641

 Lippert, G; Hutter, J; Parrinello, M. 
 MOLECULAR PHYSICS, 92 (3), 477-487 (1997). 
 A hybrid Gaussian and plane wave density functional scheme.
 https://doi.org/10.1080/002689797170220

 Perdew, JP; Burke, K; Ernzerhof, M. 
 PHYSICAL REVIEW LETTERS, 77 (18), 3865-3868 (1996). 
 Generalized gradient approximation made simple.
 https://doi.org/10.1103/PhysRevLett.77.3865

 Goedecker, S; Teter, M; Hutter, J. 
 PHYSICAL REVIEW B, 54 (3), 1703-1710 (1996). 
 Separable dual-space Gaussian pseudopotentials.
 https://doi.org/10.1103/PhysRevB.54.1703


 -------------------------------------------------------------------------------
 -                                                                             -
 -                                T I M I N G                                  -
 -                                                                             -
 -------------------------------------------------------------------------------
 SUBROUTINE                       CALLS  ASD         SELF TIME        TOTAL TIME
                                MAXIMUM       AVERAGE  MAXIMUM  AVERAGE  MAXIMUM
 CP2K                                 1  1.0    0.002    0.005 4494.264 4494.568
 run_optimize_basis                   1  2.0    0.002    0.004 4494.253 4494.557
 driver_para_opt_basis                1  3.0    0.000    0.000 4494.242 4494.547
 driver_optimization_para_low         1  4.0    0.027    0.037 4494.242 4494.546
 compute_residuum_vectors          1415  5.0    0.112    0.160 4491.380 4493.586
 mp_sum_dv                         7076  5.8 3258.459 4444.526 3258.459 4444.526
 cp_gemm                          29715  7.1    0.047    0.081 1134.875 4286.384
 cp_gemm_fm_gemm                  29715  8.1    0.029    0.049 1134.827 4286.324
 cp_fm_gemm                       29715  9.1 1134.799 4286.290 1134.799 4286.290
 admm_fit_mo_coeffs                1415  6.0    0.004    0.007  430.657 1541.177
 fit_mo_coeffs                     1415  7.0    0.015    0.019  321.239 1183.617
 purify_mo_diag                    1415  7.0    0.035    0.055  109.414  362.876
 build_overlap_matrix_low          2834  6.0   28.385  103.725   28.470  103.878
 copy_dbcsr_to_fm                  8491  6.7    0.111    0.179   41.473  102.440
 -------------------------------------------------------------------------------

 The number of warnings for this run is : 1
 
 -------------------------------------------------------------------------------
  **** **** ******  **  PROGRAM ENDED AT                 2021-01-28 13:25:06.649
 ***** ** ***  *** **   PROGRAM RAN ON                                   tcopt10
 **    ****   ******    PROGRAM RAN BY                                    hutter
 ***** **    ** ** **   PROGRAM PROCESS ID                                 66440
  **** **  *******  **  PROGRAM STOPPED IN /data/hutter/GITHUB/BASIS/MOLOPT/PBE/
                                           Fe
