
  **** **** ******  **  PROGRAM STARTED AT               2021-01-05 21:46:11.170
 ***** ** ***  *** **   PROGRAM STARTED ON                               tcopt10
 **    ****   ******    PROGRAM STARTED BY                                hutter
 ***** **    ** ** **   PROGRAM PROCESS ID                                 60537
  **** **  *******  **  PROGRAM STARTED IN /data/hutter/GITHUB/BASIS/MOLOPT/PBE/
                                           Se

 CP2K| version string:                    CP2K version 9.0 (Development Version)
 CP2K| source code revision number:                                  git:e8cde91
 CP2K| cp2kflags: omp libint fftw3 libxc elpa parallel mpi3 scalapack xsmm spgli
 CP2K|            b sirius
 CP2K| is freely available from                            https://www.cp2k.org/
 CP2K| Program compiled at                          Tue Jan  5 16:49:35 CET 2021
 CP2K| Program compiled on                                               tcopt10
 CP2K| Program compiled for                                                local
 CP2K| Data directory path                 /data/hutter/GITHUB/CURRENT/cp2k/data
 CP2K| Input file name                                              opt-dzvp.inp

 GLOBAL| Method name                                              OPTIMIZE_BASIS
 GLOBAL| Project name                                                     molopt
 GLOBAL| Preferred FFT library                                             FFTW3
 GLOBAL| Preferred diagonalization lib.                                     ELPA
 GLOBAL| Run type                                                   ENERGY_FORCE
 GLOBAL| All-to-all communication in single precision                          F
 GLOBAL| FFTs using library dependent lengths                                  F
 GLOBAL| Global print level                                               MEDIUM
 GLOBAL| MPI I/O enabled                                                       T
 GLOBAL| Total number of message passing processes                            24
 GLOBAL| Number of threads for this process                                    1
 GLOBAL| This output is from process                                           0
 GLOBAL| CPU model name                          AMD EPYC 7401 24-Core Processor
 GLOBAL| CPUID                                                              1002

 MEMORY| system memory details [Kb]
 MEMORY|                        rank 0           min           max       average
 MEMORY| MemTotal            263987256     263987256     263987256     263987256
 MEMORY| MemFree             180883228     180883228     180883228     180883228
 MEMORY| Buffers                   148           148           148           148
 MEMORY| Cached               31471876      31471876      31471876      31471876
 MEMORY| Slab                  1106716       1106716       1106716       1106716
 MEMORY| SReclaimable           501824        501824        501824        501824
 MEMORY| MemLikelyFree       212857076     212857076     212857076     212857076


 *** Fundamental physical constants (SI units) ***

 *** Literature: B. J. Mohr and B. N. Taylor,
 ***             CODATA recommended values of the fundamental physical
 ***             constants: 2006, Web Version 5.1
 ***             http://physics.nist.gov/constants

 Speed of light in vacuum [m/s]                             2.99792458000000E+08
 Magnetic constant or permeability of vacuum [N/A**2]       1.25663706143592E-06
 Electric constant or permittivity of vacuum [F/m]          8.85418781762039E-12
 Planck constant (h) [J*s]                                  6.62606896000000E-34
 Planck constant (h-bar) [J*s]                              1.05457162825177E-34
 Elementary charge [C]                                      1.60217648700000E-19
 Electron mass [kg]                                         9.10938215000000E-31
 Electron g factor [ ]                                     -2.00231930436220E+00
 Proton mass [kg]                                           1.67262163700000E-27
 Fine-structure constant                                    7.29735253760000E-03
 Rydberg constant [1/m]                                     1.09737315685270E+07
 Avogadro constant [1/mol]                                  6.02214179000000E+23
 Boltzmann constant [J/K]                                   1.38065040000000E-23
 Atomic mass unit [kg]                                      1.66053878200000E-27
 Bohr radius [m]                                            5.29177208590000E-11

 *** Conversion factors ***

 [u] -> [a.u.]                                              1.82288848426455E+03
 [Angstrom] -> [Bohr] = [a.u.]                              1.88972613288564E+00
 [a.u.] = [Bohr] -> [Angstrom]                              5.29177208590000E-01
 [a.u.] -> [s]                                              2.41888432650478E-17
 [a.u.] -> [fs]                                             2.41888432650478E-02
 [a.u.] -> [J]                                              4.35974393937059E-18
 [a.u.] -> [N]                                              8.23872205491840E-08
 [a.u.] -> [K]                                              3.15774647902944E+05
 [a.u.] -> [kJ/mol]                                         2.62549961709828E+03
 [a.u.] -> [kcal/mol]                                       6.27509468713739E+02
 [a.u.] -> [Pa]                                             2.94210107994716E+13
 [a.u.] -> [bar]                                            2.94210107994716E+08
 [a.u.] -> [atm]                                            2.90362800883016E+08
 [a.u.] -> [eV]                                             2.72113838565563E+01
 [a.u.] -> [Hz]                                             6.57968392072181E+15
 [a.u.] -> [1/cm] (wave numbers)                            2.19474631370540E+05
 [a.u./Bohr**2] -> [1/cm]                                   5.14048714338585E+03
 
 DBCSR| CPU Multiplication driver                                           XSMM
 DBCSR| Multrec recursion limit                                              512
 DBCSR| Multiplication stack size                                           1000
 DBCSR| Maximum elements for images                                    UNLIMITED
 DBCSR| Multiplicative factor virtual images                                   1
 DBCSR| Use multiplication densification                                       T
 DBCSR| Multiplication size stacks                                             3
 DBCSR| Use memory pool for CPU allocation                                     F
 DBCSR| Number of 3D layers                                               SINGLE
 DBCSR| Use MPI memory allocation                                              F
 DBCSR| Use RMA algorithm                                                      F
 DBCSR| Use Communication thread                                               T
 DBCSR| Communication thread load                                             87
 DBCSR| MPI: My node id                                                        0
 DBCSR| MPI: Number of nodes                                                  24
 DBCSR| OMP: Current number of threads                                         1
 DBCSR| OMP: Max number of threads                                             1
 DBCSR| Split modifier for TAS multiplication algorithm                  1.0E+00

 BASOPT| Total number of calculations      4

 BASOPT| Content of basis combination      1
 BASOPT|     Element:   SE    Basis set:    DZVP-MOLOPT-PBE-GTH-Q6
 BASOPT|     Element:    H    Basis set:    DZVP-MOLOPT-PBE-GTH-Q1
 BASOPT|     Element:    O    Basis set:    DZVP-MOLOPT-PBE-GTH-Q6

 BASOPT| Information at iteration number:       0
 BASOPT| Training set | Combination | Rho difference | Condition num. | Time
 BASOPT| -----------------------------------------------------------------------
 BASOPT|        1     |       1     | 0.17168833E-01 | 0.79852946E+02 |    0.223
 BASOPT|        2     |       1     | 0.40221103E-02 | 0.39593562E+02 |    0.016
 BASOPT|        3     |       1     | 0.63014639E-02 | 0.19066856E+03 |    0.026
 BASOPT|        4     |       1     | 0.48312012E-02 | 0.10245379E+03 |    0.015
 BASOPT| -----------------------------------------------------------------------
 BASOPT| Total residuum value: -.37066600E+03

 BASOPT| Information at iteration number:     100
 BASOPT| Training set | Combination | Rho difference | Condition num. | Time
 BASOPT| -----------------------------------------------------------------------
 BASOPT|        1     |       1     | 0.13335908E-01 | 0.19384629E+03 |   22.211
 BASOPT|        2     |       1     | 0.27234993E-02 | 0.37946182E+02 |    1.201
 BASOPT|        3     |       1     | 0.55790427E-02 | 0.20721971E+03 |    2.240
 BASOPT|        4     |       1     | 0.38943135E-02 | 0.13410317E+03 |    1.204
 BASOPT| -----------------------------------------------------------------------
 BASOPT| Total residuum value: -.37085808E+03

 BASOPT| Information at iteration number:     200
 BASOPT| Training set | Combination | Rho difference | Condition num. | Time
 BASOPT| -----------------------------------------------------------------------
 BASOPT|        1     |       1     | 0.13145672E-01 | 0.18180342E+03 |   44.165
 BASOPT|        2     |       1     | 0.26690476E-02 | 0.38010561E+02 |    2.378
 BASOPT|        3     |       1     | 0.56505689E-02 | 0.19527614E+03 |    4.452
 BASOPT|        4     |       1     | 0.38689965E-02 | 0.12892126E+03 |    2.383
 BASOPT| -----------------------------------------------------------------------
 BASOPT| Total residuum value: -.37086688E+03

 BASOPT| Information at iteration number:     300
 BASOPT| Training set | Combination | Rho difference | Condition num. | Time
 BASOPT| -----------------------------------------------------------------------
 BASOPT|        1     |       1     | 0.13094414E-01 | 0.17565725E+03 |   66.129
 BASOPT|        2     |       1     | 0.26440407E-02 | 0.38051698E+02 |    3.555
 BASOPT|        3     |       1     | 0.57080802E-02 | 0.18856835E+03 |    6.666
 BASOPT|        4     |       1     | 0.38598603E-02 | 0.12623005E+03 |    3.561
 BASOPT| -----------------------------------------------------------------------
 BASOPT| Total residuum value: -.37087062E+03

 BASOPT| Information at iteration number:     400
 BASOPT| Training set | Combination | Rho difference | Condition num. | Time
 BASOPT| -----------------------------------------------------------------------
 BASOPT|        1     |       1     | 0.13100569E-01 | 0.16903667E+03 |   88.096
 BASOPT|        2     |       1     | 0.26928079E-02 | 0.38188853E+02 |    4.733
 BASOPT|        3     |       1     | 0.57255802E-02 | 0.18741057E+03 |    8.879
 BASOPT|        4     |       1     | 0.38792886E-02 | 0.12633143E+03 |    4.741
 BASOPT| -----------------------------------------------------------------------
 BASOPT| Total residuum value: -.37087339E+03

 BASOPT| Information at iteration number:     500
 BASOPT| Training set | Combination | Rho difference | Condition num. | Time
 BASOPT| -----------------------------------------------------------------------
 BASOPT|        1     |       1     | 0.12741488E-01 | 0.17558462E+03 |  110.065
 BASOPT|        2     |       1     | 0.26045387E-02 | 0.38750135E+02 |    5.911
 BASOPT|        3     |       1     | 0.58032749E-02 | 0.18642796E+03 |   11.089
 BASOPT|        4     |       1     | 0.38464606E-02 | 0.12554315E+03 |    5.919
 BASOPT| -----------------------------------------------------------------------
 BASOPT| Total residuum value: -.37088389E+03

 BASOPT| Information at iteration number:     600
 BASOPT| Training set | Combination | Rho difference | Condition num. | Time
 BASOPT| -----------------------------------------------------------------------
 BASOPT|        1     |       1     | 0.12483401E-01 | 0.17529037E+03 |  132.043
 BASOPT|        2     |       1     | 0.26241777E-02 | 0.39186189E+02 |    7.089
 BASOPT|        3     |       1     | 0.57736016E-02 | 0.18660856E+03 |   13.300
 BASOPT|        4     |       1     | 0.38567787E-02 | 0.12414520E+03 |    7.097
 BASOPT| -----------------------------------------------------------------------
 BASOPT| Total residuum value: -.37089550E+03

 BASOPT| Information at iteration number:     700
 BASOPT| Training set | Combination | Rho difference | Condition num. | Time
 BASOPT| -----------------------------------------------------------------------
 BASOPT|        1     |       1     | 0.12378650E-01 | 0.16581614E+03 |  154.054
 BASOPT|        2     |       1     | 0.26416006E-02 | 0.39435372E+02 |    8.267
 BASOPT|        3     |       1     | 0.57913367E-02 | 0.18140009E+03 |   15.512
 BASOPT|        4     |       1     | 0.38783448E-02 | 0.12219117E+03 |    8.273
 BASOPT| -----------------------------------------------------------------------
 BASOPT| Total residuum value: -.37089918E+03

 BASOPT| Information at iteration number:     800
 BASOPT| Training set | Combination | Rho difference | Condition num. | Time
 BASOPT| -----------------------------------------------------------------------
 BASOPT|        1     |       1     | 0.12377086E-01 | 0.17089398E+03 |  176.100
 BASOPT|        2     |       1     | 0.25712419E-02 | 0.39761406E+02 |    9.443
 BASOPT|        3     |       1     | 0.57396179E-02 | 0.18145739E+03 |   17.722
 BASOPT|        4     |       1     | 0.38483562E-02 | 0.12053148E+03 |    9.449
 BASOPT| -----------------------------------------------------------------------
 BASOPT| Total residuum value: -.37090687E+03

 BASOPT| Information at iteration number:     900
 BASOPT| Training set | Combination | Rho difference | Condition num. | Time
 BASOPT| -----------------------------------------------------------------------
 BASOPT|        1     |       1     | 0.12210407E-01 | 0.16711151E+03 |  198.154
 BASOPT|        2     |       1     | 0.25292087E-02 | 0.39903063E+02 |   10.621
 BASOPT|        3     |       1     | 0.58032179E-02 | 0.17628514E+03 |   19.935
 BASOPT|        4     |       1     | 0.38465102E-02 | 0.11842085E+03 |   10.627
 BASOPT| -----------------------------------------------------------------------
 BASOPT| Total residuum value: -.37090805E+03

 BASOPT| Information at iteration number:    1000
 BASOPT| Training set | Combination | Rho difference | Condition num. | Time
 BASOPT| -----------------------------------------------------------------------
 BASOPT|        1     |       1     | 0.12126681E-01 | 0.17078999E+03 |  220.218
 BASOPT|        2     |       1     | 0.25520882E-02 | 0.40096315E+02 |   11.800
 BASOPT|        3     |       1     | 0.57929666E-02 | 0.17876552E+03 |   22.147
 BASOPT|        4     |       1     | 0.38561343E-02 | 0.11941410E+03 |   11.804
 BASOPT| -----------------------------------------------------------------------
 BASOPT| Total residuum value: -.37091022E+03

 BASOPT| Information at iteration number:    1100
 BASOPT| Training set | Combination | Rho difference | Condition num. | Time
 BASOPT| -----------------------------------------------------------------------
 BASOPT|        1     |       1     | 0.12106612E-01 | 0.17149087E+03 |  242.301
 BASOPT|        2     |       1     | 0.25306565E-02 | 0.40214660E+02 |   12.980
 BASOPT|        3     |       1     | 0.57680775E-02 | 0.17847557E+03 |   24.363
 BASOPT|        4     |       1     | 0.38478717E-02 | 0.11896421E+03 |   12.982
 BASOPT| -----------------------------------------------------------------------
 BASOPT| Total residuum value: -.37091404E+03

 BASOPT| Information at iteration number:    1200
 BASOPT| Training set | Combination | Rho difference | Condition num. | Time
 BASOPT| -----------------------------------------------------------------------
 BASOPT|        1     |       1     | 0.12252713E-01 | 0.16900364E+03 |  264.372
 BASOPT|        2     |       1     | 0.25048712E-02 | 0.40168011E+02 |   14.160
 BASOPT|        3     |       1     | 0.57167961E-02 | 0.17775228E+03 |   26.574
 BASOPT|        4     |       1     | 0.38218962E-02 | 0.11824403E+03 |   14.162
 BASOPT| -----------------------------------------------------------------------
 BASOPT| Total residuum value: -.37091492E+03

 BASOPT| Information at iteration number:    1300
 BASOPT| Training set | Combination | Rho difference | Condition num. | Time
 BASOPT| -----------------------------------------------------------------------
 BASOPT|        1     |       1     | 0.12068456E-01 | 0.17999041E+03 |  286.437
 BASOPT|        2     |       1     | 0.24653615E-02 | 0.41001450E+02 |   15.339
 BASOPT|        3     |       1     | 0.56935135E-02 | 0.18224673E+03 |   28.786
 BASOPT|        4     |       1     | 0.38111521E-02 | 0.11949514E+03 |   15.339
 BASOPT| -----------------------------------------------------------------------
 BASOPT| Total residuum value: -.37092455E+03

 BASOPT| Information at iteration number:    1400
 BASOPT| Training set | Combination | Rho difference | Condition num. | Time
 BASOPT| -----------------------------------------------------------------------
 BASOPT|        1     |       1     | 0.12113153E-01 | 0.18135275E+03 |  308.492
 BASOPT|        2     |       1     | 0.24545464E-02 | 0.41120950E+02 |   16.520
 BASOPT|        3     |       1     | 0.56745604E-02 | 0.18118365E+03 |   30.996
 BASOPT|        4     |       1     | 0.37965903E-02 | 0.11912755E+03 |   16.519
 BASOPT| -----------------------------------------------------------------------
 BASOPT| Total residuum value: -.37092579E+03

 BASOPT| Information at iteration number:    1500
 BASOPT| Training set | Combination | Rho difference | Condition num. | Time
 BASOPT| -----------------------------------------------------------------------
 BASOPT|        1     |       1     | 0.11901195E-01 | 0.17718405E+03 |  330.531
 BASOPT|        2     |       1     | 0.24991791E-02 | 0.41419851E+02 |   17.699
 BASOPT|        3     |       1     | 0.57147735E-02 | 0.17936076E+03 |   33.205
 BASOPT|        4     |       1     | 0.38215240E-02 | 0.11932426E+03 |   17.698
 BASOPT| -----------------------------------------------------------------------
 BASOPT| Total residuum value: -.37092779E+03

 BASOPT| Information at iteration number:    1600
 BASOPT| Training set | Combination | Rho difference | Condition num. | Time
 BASOPT| -----------------------------------------------------------------------
 BASOPT|        1     |       1     | 0.11922667E-01 | 0.18059261E+03 |  352.564
 BASOPT|        2     |       1     | 0.24788810E-02 | 0.41563462E+02 |   18.883
 BASOPT|        3     |       1     | 0.56832069E-02 | 0.18011601E+03 |   35.419
 BASOPT|        4     |       1     | 0.37950379E-02 | 0.11976938E+03 |   18.875
 BASOPT| -----------------------------------------------------------------------
 BASOPT| Total residuum value: -.37093035E+03

 BASOPT| Information at iteration number:    1700
 BASOPT| Training set | Combination | Rho difference | Condition num. | Time
 BASOPT| -----------------------------------------------------------------------
 BASOPT|        1     |       1     | 0.11854336E-01 | 0.18142823E+03 |  374.594
 BASOPT|        2     |       1     | 0.24281608E-02 | 0.41620895E+02 |   20.066
 BASOPT|        3     |       1     | 0.57054024E-02 | 0.17746589E+03 |   37.628
 BASOPT|        4     |       1     | 0.37806030E-02 | 0.11878466E+03 |   20.054
 BASOPT| -----------------------------------------------------------------------
 BASOPT| Total residuum value: -.37093190E+03

 BASOPT| Information at iteration number:    1800
 BASOPT| Training set | Combination | Rho difference | Condition num. | Time
 BASOPT| -----------------------------------------------------------------------
 BASOPT|        1     |       1     | 0.11774256E-01 | 0.17989079E+03 |  396.603
 BASOPT|        2     |       1     | 0.24371250E-02 | 0.41796543E+02 |   21.251
 BASOPT|        3     |       1     | 0.57193364E-02 | 0.17713514E+03 |   39.842
 BASOPT|        4     |       1     | 0.37889367E-02 | 0.11911057E+03 |   21.233
 BASOPT| -----------------------------------------------------------------------
 BASOPT| Total residuum value: -.37093248E+03

 BASOPT| Information at iteration number:    1900
 BASOPT| Training set | Combination | Rho difference | Condition num. | Time
 BASOPT| -----------------------------------------------------------------------
 BASOPT|        1     |       1     | 0.11752983E-01 | 0.17691509E+03 |  418.588
 BASOPT|        2     |       1     | 0.24530236E-02 | 0.41945146E+02 |   22.433
 BASOPT|        3     |       1     | 0.57256859E-02 | 0.17658010E+03 |   42.059
 BASOPT|        4     |       1     | 0.37795633E-02 | 0.11947552E+03 |   22.412
 BASOPT| -----------------------------------------------------------------------
 BASOPT| Total residuum value: -.37093440E+03

 BASOPT| Information at iteration number:    2000
 BASOPT| Training set | Combination | Rho difference | Condition num. | Time
 BASOPT| -----------------------------------------------------------------------
 BASOPT|        1     |       1     | 0.11717427E-01 | 0.17890227E+03 |  440.565
 BASOPT|        2     |       1     | 0.24251083E-02 | 0.41972667E+02 |   23.615
 BASOPT|        3     |       1     | 0.57147720E-02 | 0.17528088E+03 |   44.273
 BASOPT|        4     |       1     | 0.37604763E-02 | 0.11892692E+03 |   23.592
 BASOPT| -----------------------------------------------------------------------
 BASOPT| Total residuum value: -.37093577E+03

 BASOPT| Information at iteration number:    2100
 BASOPT| Training set | Combination | Rho difference | Condition num. | Time
 BASOPT| -----------------------------------------------------------------------
 BASOPT|        1     |       1     | 0.11691603E-01 | 0.17969319E+03 |  462.556
 BASOPT|        2     |       1     | 0.24253711E-02 | 0.42137595E+02 |   24.799
 BASOPT|        3     |       1     | 0.57212280E-02 | 0.17537728E+03 |   46.490
 BASOPT|        4     |       1     | 0.37633246E-02 | 0.11914187E+03 |   24.771
 BASOPT| -----------------------------------------------------------------------
 BASOPT| Total residuum value: -.37093627E+03

 BASOPT| Information at iteration number:    2200
 BASOPT| Training set | Combination | Rho difference | Condition num. | Time
 BASOPT| -----------------------------------------------------------------------
 BASOPT|        1     |       1     | 0.11716709E-01 | 0.18097826E+03 |  484.546
 BASOPT|        2     |       1     | 0.24201088E-02 | 0.42166508E+02 |   25.981
 BASOPT|        3     |       1     | 0.57042933E-02 | 0.17612979E+03 |   48.701
 BASOPT|        4     |       1     | 0.37588106E-02 | 0.11923837E+03 |   25.950
 BASOPT| -----------------------------------------------------------------------
 BASOPT| Total residuum value: -.37093652E+03

 BASOPT| Information at iteration number:    2300
 BASOPT| Training set | Combination | Rho difference | Condition num. | Time
 BASOPT| -----------------------------------------------------------------------
 BASOPT|        1     |       1     | 0.11680737E-01 | 0.18092721E+03 |  506.540
 BASOPT|        2     |       1     | 0.24264083E-02 | 0.42232918E+02 |   27.163
 BASOPT|        3     |       1     | 0.57168743E-02 | 0.17612783E+03 |   50.919
 BASOPT|        4     |       1     | 0.37636291E-02 | 0.11933836E+03 |   27.129
 BASOPT| -----------------------------------------------------------------------
 BASOPT| Total residuum value: -.37093669E+03

 BASOPT| Information at iteration number:    2400
 BASOPT| Training set | Combination | Rho difference | Condition num. | Time
 BASOPT| -----------------------------------------------------------------------
 BASOPT|        1     |       1     | 0.11703366E-01 | 0.17750540E+03 |  528.527
 BASOPT|        2     |       1     | 0.24209934E-02 | 0.42239879E+02 |   28.346
 BASOPT|        3     |       1     | 0.57106921E-02 | 0.17537583E+03 |   53.133
 BASOPT|        4     |       1     | 0.37626931E-02 | 0.11891485E+03 |   28.306
 BASOPT| -----------------------------------------------------------------------
 BASOPT| Total residuum value: -.37093709E+03

 BASOPT| Information at iteration number:    2500
 BASOPT| Training set | Combination | Rho difference | Condition num. | Time
 BASOPT| -----------------------------------------------------------------------
 BASOPT|        1     |       1     | 0.11720400E-01 | 0.17846523E+03 |  550.546
 BASOPT|        2     |       1     | 0.24669680E-02 | 0.42440814E+02 |   29.531
 BASOPT|        3     |       1     | 0.57055645E-02 | 0.17795655E+03 |   55.353
 BASOPT|        4     |       1     | 0.37767836E-02 | 0.11981840E+03 |   29.483
 BASOPT| -----------------------------------------------------------------------
 BASOPT| Total residuum value: -.37093709E+03

 BASOPT| Information at iteration number:    2600
 BASOPT| Training set | Combination | Rho difference | Condition num. | Time
 BASOPT| -----------------------------------------------------------------------
 BASOPT|        1     |       1     | 0.11766218E-01 | 0.17750098E+03 |  572.592
 BASOPT|        2     |       1     | 0.24319865E-02 | 0.42480027E+02 |   30.717
 BASOPT|        3     |       1     | 0.56952028E-02 | 0.17762770E+03 |   57.570
 BASOPT|        4     |       1     | 0.37658002E-02 | 0.11963261E+03 |   30.660
 BASOPT| -----------------------------------------------------------------------
 BASOPT| Total residuum value: -.37093753E+03

 BASOPT| Information at iteration number:    2700
 BASOPT| Training set | Combination | Rho difference | Condition num. | Time
 BASOPT| -----------------------------------------------------------------------
 BASOPT|        1     |       1     | 0.11862675E-01 | 0.17707619E+03 |  594.646
 BASOPT|        2     |       1     | 0.24192384E-02 | 0.42530489E+02 |   31.904
 BASOPT|        3     |       1     | 0.56724799E-02 | 0.17872834E+03 |   59.792
 BASOPT|        4     |       1     | 0.37557334E-02 | 0.12003469E+03 |   31.839
 BASOPT| -----------------------------------------------------------------------
 BASOPT| Total residuum value: -.37093708E+03

 BASOPT| Information at iteration number:    2800
 BASOPT| Training set | Combination | Rho difference | Condition num. | Time
 BASOPT| -----------------------------------------------------------------------
 BASOPT|        1     |       1     | 0.11792635E-01 | 0.17729938E+03 |  616.692
 BASOPT|        2     |       1     | 0.24344984E-02 | 0.42671839E+02 |   33.088
 BASOPT|        3     |       1     | 0.56988216E-02 | 0.17882979E+03 |   62.014
 BASOPT|        4     |       1     | 0.37699278E-02 | 0.12014697E+03 |   33.023
 BASOPT| -----------------------------------------------------------------------
 BASOPT| Total residuum value: -.37093805E+03

 BASOPT| Information at iteration number:    2900
 BASOPT| Training set | Combination | Rho difference | Condition num. | Time
 BASOPT| -----------------------------------------------------------------------
 BASOPT|        1     |       1     | 0.11769590E-01 | 0.17426795E+03 |  638.733
 BASOPT|        2     |       1     | 0.24331432E-02 | 0.42809465E+02 |   34.272
 BASOPT|        3     |       1     | 0.57130621E-02 | 0.17752926E+03 |   64.231
 BASOPT|        4     |       1     | 0.37732608E-02 | 0.11966092E+03 |   34.204
 BASOPT| -----------------------------------------------------------------------
 BASOPT| Total residuum value: -.37093848E+03

 BASOPT| Information at iteration number:    3000
 BASOPT| Training set | Combination | Rho difference | Condition num. | Time
 BASOPT| -----------------------------------------------------------------------
 BASOPT|        1     |       1     | 0.11788030E-01 | 0.17280654E+03 |  660.769
 BASOPT|        2     |       1     | 0.24236041E-02 | 0.43147041E+02 |   35.456
 BASOPT|        3     |       1     | 0.56967844E-02 | 0.17642396E+03 |   66.447
 BASOPT|        4     |       1     | 0.37724924E-02 | 0.11869759E+03 |   35.387
 BASOPT| -----------------------------------------------------------------------
 BASOPT| Total residuum value: -.37093949E+03

 BASOPT| Information at iteration number:    3100
 BASOPT| Training set | Combination | Rho difference | Condition num. | Time
 BASOPT| -----------------------------------------------------------------------
 BASOPT|        1     |       1     | 0.11785380E-01 | 0.17391908E+03 |  682.762
 BASOPT|        2     |       1     | 0.24201213E-02 | 0.43477240E+02 |   36.638
 BASOPT|        3     |       1     | 0.56818958E-02 | 0.17678340E+03 |   68.660
 BASOPT|        4     |       1     | 0.37718128E-02 | 0.11848845E+03 |   36.569
 BASOPT| -----------------------------------------------------------------------
 BASOPT| Total residuum value: -.37094011E+03

 BASOPT| Information at iteration number:    3200
 BASOPT| Training set | Combination | Rho difference | Condition num. | Time
 BASOPT| -----------------------------------------------------------------------
 BASOPT|        1     |       1     | 0.11737520E-01 | 0.16900340E+03 |  704.742
 BASOPT|        2     |       1     | 0.24197923E-02 | 0.44044092E+02 |   37.821
 BASOPT|        3     |       1     | 0.57098936E-02 | 0.17465798E+03 |   70.878
 BASOPT|        4     |       1     | 0.37817326E-02 | 0.11786373E+03 |   37.751
 BASOPT| -----------------------------------------------------------------------
 BASOPT| Total residuum value: -.37094094E+03

 BASOPT| Information at iteration number:    3300
 BASOPT| Training set | Combination | Rho difference | Condition num. | Time
 BASOPT| -----------------------------------------------------------------------
 BASOPT|        1     |       1     | 0.11763622E-01 | 0.16653435E+03 |  726.758
 BASOPT|        2     |       1     | 0.23874331E-02 | 0.44339329E+02 |   39.002
 BASOPT|        3     |       1     | 0.56857910E-02 | 0.17300463E+03 |   73.095
 BASOPT|        4     |       1     | 0.37694853E-02 | 0.11699455E+03 |   38.933
 BASOPT| -----------------------------------------------------------------------
 BASOPT| Total residuum value: -.37094138E+03

 BASOPT| Information at iteration number:    3400
 BASOPT| Training set | Combination | Rho difference | Condition num. | Time
 BASOPT| -----------------------------------------------------------------------
 BASOPT|        1     |       1     | 0.11758405E-01 | 0.16786998E+03 |  748.789
 BASOPT|        2     |       1     | 0.24175052E-02 | 0.44709900E+02 |   40.187
 BASOPT|        3     |       1     | 0.56804301E-02 | 0.17474836E+03 |   75.311
 BASOPT|        4     |       1     | 0.37747301E-02 | 0.11770271E+03 |   40.117
 BASOPT| -----------------------------------------------------------------------
 BASOPT| Total residuum value: -.37094202E+03

 BASOPT| Information at iteration number:    3500
 BASOPT| Training set | Combination | Rho difference | Condition num. | Time
 BASOPT| -----------------------------------------------------------------------
 BASOPT|        1     |       1     | 0.11729069E-01 | 0.16676921E+03 |  770.797
 BASOPT|        2     |       1     | 0.24233359E-02 | 0.44918827E+02 |   41.372
 BASOPT|        3     |       1     | 0.56948108E-02 | 0.17493038E+03 |   77.525
 BASOPT|        4     |       1     | 0.37752306E-02 | 0.11809299E+03 |   41.303
 BASOPT| -----------------------------------------------------------------------
 BASOPT| Total residuum value: -.37094242E+03

 BASOPT| Information at iteration number:    3600
 BASOPT| Training set | Combination | Rho difference | Condition num. | Time
 BASOPT| -----------------------------------------------------------------------
 BASOPT|        1     |       1     | 0.11745328E-01 | 0.16716150E+03 |  792.790
 BASOPT|        2     |       1     | 0.24243628E-02 | 0.45199598E+02 |   42.555
 BASOPT|        3     |       1     | 0.56852283E-02 | 0.17644038E+03 |   79.741
 BASOPT|        4     |       1     | 0.37682431E-02 | 0.11897864E+03 |   42.487
 BASOPT| -----------------------------------------------------------------------
 BASOPT| Total residuum value: -.37094298E+03

 BASOPT| Information at iteration number:    3700
 BASOPT| Training set | Combination | Rho difference | Condition num. | Time
 BASOPT| -----------------------------------------------------------------------
 BASOPT|        1     |       1     | 0.11741854E-01 | 0.16729134E+03 |  814.805
 BASOPT|        2     |       1     | 0.24209434E-02 | 0.45760067E+02 |   43.742
 BASOPT|        3     |       1     | 0.56729141E-02 | 0.17710724E+03 |   81.951
 BASOPT|        4     |       1     | 0.37608987E-02 | 0.11943732E+03 |   43.670
 BASOPT| -----------------------------------------------------------------------
 BASOPT| Total residuum value: -.37094364E+03

 BASOPT| Information at iteration number:    3800
 BASOPT| Training set | Combination | Rho difference | Condition num. | Time
 BASOPT| -----------------------------------------------------------------------
 BASOPT|        1     |       1     | 0.11727273E-01 | 0.16592547E+03 |  836.849
 BASOPT|        2     |       1     | 0.24175957E-02 | 0.46253155E+02 |   44.926
 BASOPT|        3     |       1     | 0.56803112E-02 | 0.17614704E+03 |   84.163
 BASOPT|        4     |       1     | 0.37578150E-02 | 0.11931314E+03 |   44.854
 BASOPT| -----------------------------------------------------------------------
 BASOPT| Total residuum value: -.37094408E+03

 BASOPT| Information at iteration number:    3900
 BASOPT| Training set | Combination | Rho difference | Condition num. | Time
 BASOPT| -----------------------------------------------------------------------
 BASOPT|        1     |       1     | 0.11731266E-01 | 0.16594808E+03 |  858.908
 BASOPT|        2     |       1     | 0.24144184E-02 | 0.46821973E+02 |   46.111
 BASOPT|        3     |       1     | 0.56714982E-02 | 0.17660969E+03 |   86.372
 BASOPT|        4     |       1     | 0.37553672E-02 | 0.11968899E+03 |   46.039
 BASOPT| -----------------------------------------------------------------------
 BASOPT| Total residuum value: -.37094458E+03

 BASOPT| Information at iteration number:    4000
 BASOPT| Training set | Combination | Rho difference | Condition num. | Time
 BASOPT| -----------------------------------------------------------------------
 BASOPT|        1     |       1     | 0.11712030E-01 | 0.16947237E+03 |  880.944
 BASOPT|        2     |       1     | 0.24212623E-02 | 0.47489291E+02 |   47.296
 BASOPT|        3     |       1     | 0.56736045E-02 | 0.17798032E+03 |   88.584
 BASOPT|        4     |       1     | 0.37553665E-02 | 0.12030580E+03 |   47.224
 BASOPT| -----------------------------------------------------------------------
 BASOPT| Total residuum value: -.37094508E+03

 BASOPT| Information at iteration number:    4100
 BASOPT| Training set | Combination | Rho difference | Condition num. | Time
 BASOPT| -----------------------------------------------------------------------
 BASOPT|        1     |       1     | 0.11720244E-01 | 0.17093708E+03 |  902.977
 BASOPT|        2     |       1     | 0.24191464E-02 | 0.47874166E+02 |   48.483
 BASOPT|        3     |       1     | 0.56655290E-02 | 0.17891135E+03 |   90.798
 BASOPT|        4     |       1     | 0.37523080E-02 | 0.12073767E+03 |   48.407
 BASOPT| -----------------------------------------------------------------------
 BASOPT| Total residuum value: -.37094536E+03

 BASOPT| Information at iteration number:    4200
 BASOPT| Training set | Combination | Rho difference | Condition num. | Time
 BASOPT| -----------------------------------------------------------------------
 BASOPT|        1     |       1     | 0.11702562E-01 | 0.17143634E+03 |  925.017
 BASOPT|        2     |       1     | 0.24159143E-02 | 0.48302099E+02 |   49.671
 BASOPT|        3     |       1     | 0.56660534E-02 | 0.17829674E+03 |   93.013
 BASOPT|        4     |       1     | 0.37516866E-02 | 0.12052589E+03 |   49.590
 BASOPT| -----------------------------------------------------------------------
 BASOPT| Total residuum value: -.37094563E+03

 BASOPT| Information at iteration number:    4300
 BASOPT| Training set | Combination | Rho difference | Condition num. | Time
 BASOPT| -----------------------------------------------------------------------
 BASOPT|        1     |       1     | 0.11668718E-01 | 0.17104297E+03 |  947.067
 BASOPT|        2     |       1     | 0.24015330E-02 | 0.48975409E+02 |   50.859
 BASOPT|        3     |       1     | 0.56715751E-02 | 0.17682967E+03 |   95.226
 BASOPT|        4     |       1     | 0.37487678E-02 | 0.12011978E+03 |   50.775
 BASOPT| -----------------------------------------------------------------------
 BASOPT| Total residuum value: -.37094593E+03

 BASOPT| Information at iteration number:    4400
 BASOPT| Training set | Combination | Rho difference | Condition num. | Time
 BASOPT| -----------------------------------------------------------------------
 BASOPT|        1     |       1     | 0.11673051E-01 | 0.17245125E+03 |  969.123
 BASOPT|        2     |       1     | 0.24036400E-02 | 0.49338052E+02 |   52.049
 BASOPT|        3     |       1     | 0.56619868E-02 | 0.17758854E+03 |   97.439
 BASOPT|        4     |       1     | 0.37464954E-02 | 0.12045700E+03 |   51.963
 BASOPT| -----------------------------------------------------------------------
 BASOPT| Total residuum value: -.37094612E+03

 BASOPT| Information at iteration number:    4500
 BASOPT| Training set | Combination | Rho difference | Condition num. | Time
 BASOPT| -----------------------------------------------------------------------
 BASOPT|        1     |       1     | 0.11666726E-01 | 0.17258787E+03 |  991.180
 BASOPT|        2     |       1     | 0.24111063E-02 | 0.49928861E+02 |   53.239
 BASOPT|        3     |       1     | 0.56666554E-02 | 0.17775850E+03 |   99.654
 BASOPT|        4     |       1     | 0.37512325E-02 | 0.12036109E+03 |   53.150
 BASOPT| -----------------------------------------------------------------------
 BASOPT| Total residuum value: -.37094605E+03

 BASOPT| Information at iteration number:    4600
 BASOPT| Training set | Combination | Rho difference | Condition num. | Time
 BASOPT| -----------------------------------------------------------------------
 BASOPT|        1     |       1     | 0.11666385E-01 | 0.17296643E+03 | 1013.232
 BASOPT|        2     |       1     | 0.24047352E-02 | 0.50134040E+02 |   54.429
 BASOPT|        3     |       1     | 0.56668493E-02 | 0.17735791E+03 |  101.867
 BASOPT|        4     |       1     | 0.37489560E-02 | 0.12030092E+03 |   54.339
 BASOPT| -----------------------------------------------------------------------
 BASOPT| Total residuum value: -.37094643E+03

 BASOPT| Information at iteration number:    4700
 BASOPT| Training set | Combination | Rho difference | Condition num. | Time
 BASOPT| -----------------------------------------------------------------------
 BASOPT|        1     |       1     | 0.11685569E-01 | 0.17426538E+03 | 1035.280
 BASOPT|        2     |       1     | 0.24050042E-02 | 0.50495279E+02 |   55.621
 BASOPT|        3     |       1     | 0.56514733E-02 | 0.17819121E+03 |  104.082
 BASOPT|        4     |       1     | 0.37474785E-02 | 0.12046687E+03 |   55.528
 BASOPT| -----------------------------------------------------------------------
 BASOPT| Total residuum value: -.37094658E+03

 BASOPT| Information at iteration number:    4800
 BASOPT| Training set | Combination | Rho difference | Condition num. | Time
 BASOPT| -----------------------------------------------------------------------
 BASOPT|        1     |       1     | 0.11682567E-01 | 0.17587008E+03 | 1057.315
 BASOPT|        2     |       1     | 0.23967397E-02 | 0.50658925E+02 |   56.811
 BASOPT|        3     |       1     | 0.56501319E-02 | 0.17838118E+03 |  106.295
 BASOPT|        4     |       1     | 0.37447349E-02 | 0.12056469E+03 |   56.719
 BASOPT| -----------------------------------------------------------------------
 BASOPT| Total residuum value: -.37094661E+03

 BASOPT| Information at iteration number:    4900
 BASOPT| Training set | Combination | Rho difference | Condition num. | Time
 BASOPT| -----------------------------------------------------------------------
 BASOPT|        1     |       1     | 0.11693589E-01 | 0.17532264E+03 | 1079.341
 BASOPT|        2     |       1     | 0.24015531E-02 | 0.50836119E+02 |   57.999
 BASOPT|        3     |       1     | 0.56487102E-02 | 0.17881842E+03 |  108.511
 BASOPT|        4     |       1     | 0.37462374E-02 | 0.12075654E+03 |   57.909
 BASOPT| -----------------------------------------------------------------------
 BASOPT| Total residuum value: -.37094672E+03

 BASOPT| Information at iteration number:    5000
 BASOPT| Training set | Combination | Rho difference | Condition num. | Time
 BASOPT| -----------------------------------------------------------------------
 BASOPT|        1     |       1     | 0.11685262E-01 | 0.17563005E+03 | 1101.890
 BASOPT|        2     |       1     | 0.23988681E-02 | 0.50986315E+02 |   59.191
 BASOPT|        3     |       1     | 0.56506775E-02 | 0.17852408E+03 |  110.728
 BASOPT|        4     |       1     | 0.37460714E-02 | 0.12061351E+03 |   59.103
 BASOPT| -----------------------------------------------------------------------
 BASOPT| Total residuum value: -.37094677E+03

 BASOPT| Information at iteration number:    5100
 BASOPT| Training set | Combination | Rho difference | Condition num. | Time
 BASOPT| -----------------------------------------------------------------------
 BASOPT|        1     |       1     | 0.11687138E-01 | 0.17590553E+03 | 1123.872
 BASOPT|        2     |       1     | 0.24004567E-02 | 0.51092408E+02 |   60.380
 BASOPT|        3     |       1     | 0.56480996E-02 | 0.17887283E+03 |  112.943
 BASOPT|        4     |       1     | 0.37459554E-02 | 0.12076131E+03 |   60.294
 BASOPT| -----------------------------------------------------------------------
 BASOPT| Total residuum value: -.37094682E+03

 BASOPT| Information at iteration number:    5200
 BASOPT| Training set | Combination | Rho difference | Condition num. | Time
 BASOPT| -----------------------------------------------------------------------
 BASOPT|        1     |       1     | 0.11695215E-01 | 0.17502011E+03 | 1145.872
 BASOPT|        2     |       1     | 0.24029318E-02 | 0.51351977E+02 |   61.570
 BASOPT|        3     |       1     | 0.56477145E-02 | 0.17904556E+03 |  115.159
 BASOPT|        4     |       1     | 0.37466190E-02 | 0.12092260E+03 |   61.484
 BASOPT| -----------------------------------------------------------------------
 BASOPT| Total residuum value: -.37094691E+03

 BASOPT| Information at iteration number:    5300
 BASOPT| Training set | Combination | Rho difference | Condition num. | Time
 BASOPT| -----------------------------------------------------------------------
 BASOPT|        1     |       1     | 0.11688690E-01 | 0.17545265E+03 | 1167.864
 BASOPT|        2     |       1     | 0.23989428E-02 | 0.51512236E+02 |   62.760
 BASOPT|        3     |       1     | 0.56459351E-02 | 0.17904008E+03 |  117.377
 BASOPT|        4     |       1     | 0.37452148E-02 | 0.12094660E+03 |   62.675
 BASOPT| -----------------------------------------------------------------------
 BASOPT| Total residuum value: -.37094697E+03

 BASOPT| Information at iteration number:    5400
 BASOPT| Training set | Combination | Rho difference | Condition num. | Time
 BASOPT| -----------------------------------------------------------------------
 BASOPT|        1     |       1     | 0.11709080E-01 | 0.17576768E+03 | 1189.894
 BASOPT|        2     |       1     | 0.24024753E-02 | 0.51799270E+02 |   63.951
 BASOPT|        3     |       1     | 0.56334419E-02 | 0.17981573E+03 |  119.592
 BASOPT|        4     |       1     | 0.37412383E-02 | 0.12136795E+03 |   63.865
 BASOPT| -----------------------------------------------------------------------
 BASOPT| Total residuum value: -.37094709E+03

 BASOPT| Information at iteration number:    5500
 BASOPT| Training set | Combination | Rho difference | Condition num. | Time
 BASOPT| -----------------------------------------------------------------------
 BASOPT|        1     |       1     | 0.11709059E-01 | 0.17563299E+03 | 1211.901
 BASOPT|        2     |       1     | 0.24010054E-02 | 0.52152903E+02 |   65.143
 BASOPT|        3     |       1     | 0.56382716E-02 | 0.17979556E+03 |  121.806
 BASOPT|        4     |       1     | 0.37390803E-02 | 0.12149064E+03 |   65.054
 BASOPT| -----------------------------------------------------------------------
 BASOPT| Total residuum value: -.37094719E+03

 BASOPT| Information at iteration number:    5600
 BASOPT| Training set | Combination | Rho difference | Condition num. | Time
 BASOPT| -----------------------------------------------------------------------
 BASOPT|        1     |       1     | 0.11704128E-01 | 0.17625407E+03 | 1233.934
 BASOPT|        2     |       1     | 0.24026071E-02 | 0.52344881E+02 |   66.336
 BASOPT|        3     |       1     | 0.56360340E-02 | 0.18025616E+03 |  124.026
 BASOPT|        4     |       1     | 0.37370131E-02 | 0.12181385E+03 |   66.245
 BASOPT| -----------------------------------------------------------------------
 BASOPT| Total residuum value: -.37094727E+03

 BASOPT| Information at iteration number:    5700
 BASOPT| Training set | Combination | Rho difference | Condition num. | Time
 BASOPT| -----------------------------------------------------------------------
 BASOPT|        1     |       1     | 0.11701247E-01 | 0.17686705E+03 | 1255.968
 BASOPT|        2     |       1     | 0.24018816E-02 | 0.52374009E+02 |   67.530
 BASOPT|        3     |       1     | 0.56319094E-02 | 0.18048346E+03 |  126.246
 BASOPT|        4     |       1     | 0.37352933E-02 | 0.12195107E+03 |   67.436
 BASOPT| -----------------------------------------------------------------------
 BASOPT| Total residuum value: -.37094731E+03

 BASOPT| Information at iteration number:    5800
 BASOPT| Training set | Combination | Rho difference | Condition num. | Time
 BASOPT| -----------------------------------------------------------------------
 BASOPT|        1     |       1     | 0.11688676E-01 | 0.17708881E+03 | 1278.000
 BASOPT|        2     |       1     | 0.24010044E-02 | 0.52483280E+02 |   68.725
 BASOPT|        3     |       1     | 0.56306123E-02 | 0.18012863E+03 |  128.468
 BASOPT|        4     |       1     | 0.37326402E-02 | 0.12187991E+03 |   68.626
 BASOPT| -----------------------------------------------------------------------
 BASOPT| Total residuum value: -.37094737E+03

 BASOPT| Information at iteration number:    5900
 BASOPT| Training set | Combination | Rho difference | Condition num. | Time
 BASOPT| -----------------------------------------------------------------------
 BASOPT|        1     |       1     | 0.11678788E-01 | 0.17644540E+03 | 1300.031
 BASOPT|        2     |       1     | 0.23998766E-02 | 0.52691189E+02 |   69.921
 BASOPT|        3     |       1     | 0.56361766E-02 | 0.17973635E+03 |  130.690
 BASOPT|        4     |       1     | 0.37338290E-02 | 0.12168130E+03 |   69.816
 BASOPT| -----------------------------------------------------------------------
 BASOPT| Total residuum value: -.37094744E+03

 BASOPT| Information at iteration number:    6000
 BASOPT| Training set | Combination | Rho difference | Condition num. | Time
 BASOPT| -----------------------------------------------------------------------
 BASOPT|        1     |       1     | 0.11679142E-01 | 0.17640771E+03 | 1322.065
 BASOPT|        2     |       1     | 0.23978560E-02 | 0.52831396E+02 |   71.121
 BASOPT|        3     |       1     | 0.56375108E-02 | 0.17972473E+03 |  132.919
 BASOPT|        4     |       1     | 0.37342213E-02 | 0.12164698E+03 |   71.010
 BASOPT| -----------------------------------------------------------------------
 BASOPT| Total residuum value: -.37094748E+03

 BASOPT| Information at iteration number:    6100
 BASOPT| Training set | Combination | Rho difference | Condition num. | Time
 BASOPT| -----------------------------------------------------------------------
 BASOPT|        1     |       1     | 0.11690526E-01 | 0.17569755E+03 | 1344.133
 BASOPT|        2     |       1     | 0.24000363E-02 | 0.53037907E+02 |   72.304
 BASOPT|        3     |       1     | 0.56310608E-02 | 0.18009669E+03 |  135.122
 BASOPT|        4     |       1     | 0.37362963E-02 | 0.12172786E+03 |   72.178
 BASOPT| -----------------------------------------------------------------------
 BASOPT| Total residuum value: -.37094758E+03

 BASOPT| Information at iteration number:    6200
 BASOPT| Training set | Combination | Rho difference | Condition num. | Time
 BASOPT| -----------------------------------------------------------------------
 BASOPT|        1     |       1     | 0.11694665E-01 | 0.17435138E+03 | 1366.164
 BASOPT|        2     |       1     | 0.24027566E-02 | 0.53405188E+02 |   73.475
 BASOPT|        3     |       1     | 0.56281071E-02 | 0.17962114E+03 |  137.321
 BASOPT|        4     |       1     | 0.37394112E-02 | 0.12136761E+03 |   73.336
 BASOPT| -----------------------------------------------------------------------
 BASOPT| Total residuum value: -.37094767E+03

 BASOPT| Information at iteration number:    6300
 BASOPT| Training set | Combination | Rho difference | Condition num. | Time
 BASOPT| -----------------------------------------------------------------------
 BASOPT|        1     |       1     | 0.11694360E-01 | 0.17437679E+03 | 1388.204
 BASOPT|        2     |       1     | 0.23959892E-02 | 0.53553557E+02 |   74.646
 BASOPT|        3     |       1     | 0.56303919E-02 | 0.17948748E+03 |  139.520
 BASOPT|        4     |       1     | 0.37391707E-02 | 0.12125393E+03 |   74.495
 BASOPT| -----------------------------------------------------------------------
 BASOPT| Total residuum value: -.37094772E+03

 BASOPT| Information at iteration number:    6400
 BASOPT| Training set | Combination | Rho difference | Condition num. | Time
 BASOPT| -----------------------------------------------------------------------
 BASOPT|        1     |       1     | 0.11686277E-01 | 0.17448477E+03 | 1410.257
 BASOPT|        2     |       1     | 0.23967443E-02 | 0.53718666E+02 |   75.820
 BASOPT|        3     |       1     | 0.56326973E-02 | 0.17949679E+03 |  141.718
 BASOPT|        4     |       1     | 0.37391179E-02 | 0.12131195E+03 |   75.658
 BASOPT| -----------------------------------------------------------------------
 BASOPT| Total residuum value: -.37094777E+03

 BASOPT| Information at iteration number:    6500
 BASOPT| Training set | Combination | Rho difference | Condition num. | Time
 BASOPT| -----------------------------------------------------------------------
 BASOPT|        1     |       1     | 0.11675486E-01 | 0.17470933E+03 | 1432.305
 BASOPT|        2     |       1     | 0.23952048E-02 | 0.53856343E+02 |   76.993
 BASOPT|        3     |       1     | 0.56352628E-02 | 0.17941242E+03 |  143.922
 BASOPT|        4     |       1     | 0.37385850E-02 | 0.12131241E+03 |   76.822
 BASOPT| -----------------------------------------------------------------------
 BASOPT| Total residuum value: -.37094781E+03

 BASOPT| Information at iteration number:    6600
 BASOPT| Training set | Combination | Rho difference | Condition num. | Time
 BASOPT| -----------------------------------------------------------------------
 BASOPT|        1     |       1     | 0.11683753E-01 | 0.17403860E+03 | 1454.354
 BASOPT|        2     |       1     | 0.23901468E-02 | 0.53945724E+02 |   78.163
 BASOPT|        3     |       1     | 0.56338344E-02 | 0.17916519E+03 |  146.123
 BASOPT|        4     |       1     | 0.37360175E-02 | 0.12126939E+03 |   77.982
 BASOPT| -----------------------------------------------------------------------
 BASOPT| Total residuum value: -.37094785E+03

 BASOPT| Information at iteration number:    6700
 BASOPT| Training set | Combination | Rho difference | Condition num. | Time
 BASOPT| -----------------------------------------------------------------------
 BASOPT|        1     |       1     | 0.11680389E-01 | 0.17449144E+03 | 1476.389
 BASOPT|        2     |       1     | 0.23952933E-02 | 0.54035034E+02 |   79.336
 BASOPT|        3     |       1     | 0.56310536E-02 | 0.17952744E+03 |  148.326
 BASOPT|        4     |       1     | 0.37353618E-02 | 0.12149493E+03 |   79.139
 BASOPT| -----------------------------------------------------------------------
 BASOPT| Total residuum value: -.37094788E+03

 BASOPT| Information at iteration number:    6800
 BASOPT| Training set | Combination | Rho difference | Condition num. | Time
 BASOPT| -----------------------------------------------------------------------
 BASOPT|        1     |       1     | 0.11680365E-01 | 0.17507631E+03 | 1498.408
 BASOPT|        2     |       1     | 0.23955052E-02 | 0.54214962E+02 |   80.504
 BASOPT|        3     |       1     | 0.56284554E-02 | 0.17983573E+03 |  150.526
 BASOPT|        4     |       1     | 0.37336289E-02 | 0.12167246E+03 |   80.295
 BASOPT| -----------------------------------------------------------------------
 BASOPT| Total residuum value: -.37094791E+03

 BASOPT| Information at iteration number:    6900
 BASOPT| Training set | Combination | Rho difference | Condition num. | Time
 BASOPT| -----------------------------------------------------------------------
 BASOPT|        1     |       1     | 0.11669423E-01 | 0.17486278E+03 | 1520.468
 BASOPT|        2     |       1     | 0.23955654E-02 | 0.54410652E+02 |   81.676
 BASOPT|        3     |       1     | 0.56336339E-02 | 0.17954048E+03 |  152.730
 BASOPT|        4     |       1     | 0.37342106E-02 | 0.12164215E+03 |   81.453
 BASOPT| -----------------------------------------------------------------------
 BASOPT| Total residuum value: -.37094795E+03

 BASOPT| Information at iteration number:    7000
 BASOPT| Training set | Combination | Rho difference | Condition num. | Time
 BASOPT| -----------------------------------------------------------------------
 BASOPT|        1     |       1     | 0.11678233E-01 | 0.17431196E+03 | 1542.508
 BASOPT|        2     |       1     | 0.23958708E-02 | 0.54592682E+02 |   82.846
 BASOPT|        3     |       1     | 0.56356378E-02 | 0.17953545E+03 |  154.935
 BASOPT|        4     |       1     | 0.37347996E-02 | 0.12164406E+03 |   82.612
 BASOPT| -----------------------------------------------------------------------
 BASOPT| Total residuum value: -.37094797E+03

 BASOPT| Information at iteration number:    7100
 BASOPT| Training set | Combination | Rho difference | Condition num. | Time
 BASOPT| -----------------------------------------------------------------------
 BASOPT|        1     |       1     | 0.11674331E-01 | 0.17484480E+03 | 1564.461
 BASOPT|        2     |       1     | 0.23950354E-02 | 0.54696241E+02 |   84.017
 BASOPT|        3     |       1     | 0.56328217E-02 | 0.17968015E+03 |  157.136
 BASOPT|        4     |       1     | 0.37344281E-02 | 0.12165208E+03 |   83.770
 BASOPT| -----------------------------------------------------------------------
 BASOPT| Total residuum value: -.37094799E+03

 BASOPT| Information at iteration number:    7200
 BASOPT| Training set | Combination | Rho difference | Condition num. | Time
 BASOPT| -----------------------------------------------------------------------
 BASOPT|        1     |       1     | 0.11681653E-01 | 0.17531239E+03 | 1586.447
 BASOPT|        2     |       1     | 0.23963422E-02 | 0.54820040E+02 |   85.191
 BASOPT|        3     |       1     | 0.56276488E-02 | 0.18011534E+03 |  159.343
 BASOPT|        4     |       1     | 0.37341670E-02 | 0.12187894E+03 |   84.933
 BASOPT| -----------------------------------------------------------------------
 BASOPT| Total residuum value: -.37094801E+03

 BASOPT| Information at iteration number:    7300
 BASOPT| Training set | Combination | Rho difference | Condition num. | Time
 BASOPT| -----------------------------------------------------------------------
 BASOPT|        1     |       1     | 0.11682245E-01 | 0.17443969E+03 | 1608.427
 BASOPT|        2     |       1     | 0.23965990E-02 | 0.55070581E+02 |   86.365
 BASOPT|        3     |       1     | 0.56324487E-02 | 0.17961133E+03 |  161.551
 BASOPT|        4     |       1     | 0.37362191E-02 | 0.12158505E+03 |   86.095
 BASOPT| -----------------------------------------------------------------------
 BASOPT| Total residuum value: -.37094805E+03

 BASOPT| Information at iteration number:    7400
 BASOPT| Training set | Combination | Rho difference | Condition num. | Time
 BASOPT| -----------------------------------------------------------------------
 BASOPT|        1     |       1     | 0.11685668E-01 | 0.17497517E+03 | 1630.424
 BASOPT|        2     |       1     | 0.23992233E-02 | 0.55172636E+02 |   87.540
 BASOPT|        3     |       1     | 0.56332331E-02 | 0.18010170E+03 |  163.755
 BASOPT|        4     |       1     | 0.37372062E-02 | 0.12181395E+03 |   87.258
 BASOPT| -----------------------------------------------------------------------
 BASOPT| Total residuum value: -.37094809E+03

 BASOPT| Information at iteration number:    7500
 BASOPT| Training set | Combination | Rho difference | Condition num. | Time
 BASOPT| -----------------------------------------------------------------------
 BASOPT|        1     |       1     | 0.11678726E-01 | 0.17463007E+03 | 1652.411
 BASOPT|        2     |       1     | 0.23979638E-02 | 0.55417667E+02 |   88.712
 BASOPT|        3     |       1     | 0.56364450E-02 | 0.17986265E+03 |  165.958
 BASOPT|        4     |       1     | 0.37375713E-02 | 0.12174779E+03 |   88.419
 BASOPT| -----------------------------------------------------------------------
 BASOPT| Total residuum value: -.37094813E+03

 BASOPT| Information at iteration number:    7600
 BASOPT| Training set | Combination | Rho difference | Condition num. | Time
 BASOPT| -----------------------------------------------------------------------
 BASOPT|        1     |       1     | 0.11672895E-01 | 0.17485128E+03 | 1674.382
 BASOPT|        2     |       1     | 0.23966481E-02 | 0.55541162E+02 |   89.885
 BASOPT|        3     |       1     | 0.56375969E-02 | 0.17979272E+03 |  168.163
 BASOPT|        4     |       1     | 0.37373192E-02 | 0.12171153E+03 |   89.581
 BASOPT| -----------------------------------------------------------------------
 BASOPT| Total residuum value: -.37094815E+03

 BASOPT| Information at iteration number:    7700
 BASOPT| Training set | Combination | Rho difference | Condition num. | Time
 BASOPT| -----------------------------------------------------------------------
 BASOPT|        1     |       1     | 0.11676396E-01 | 0.17455586E+03 | 1696.361
 BASOPT|        2     |       1     | 0.23970402E-02 | 0.55617316E+02 |   91.057
 BASOPT|        3     |       1     | 0.56367613E-02 | 0.17993132E+03 |  170.365
 BASOPT|        4     |       1     | 0.37365909E-02 | 0.12176844E+03 |   90.743
 BASOPT| -----------------------------------------------------------------------
 BASOPT| Total residuum value: -.37094816E+03

 BASOPT| Information at iteration number:    7800
 BASOPT| Training set | Combination | Rho difference | Condition num. | Time
 BASOPT| -----------------------------------------------------------------------
 BASOPT|        1     |       1     | 0.11672609E-01 | 0.17457943E+03 | 1718.310
 BASOPT|        2     |       1     | 0.23980750E-02 | 0.55713639E+02 |   92.222
 BASOPT|        3     |       1     | 0.56376797E-02 | 0.18012899E+03 |  172.562
 BASOPT|        4     |       1     | 0.37361948E-02 | 0.12191869E+03 |   91.899
 BASOPT| -----------------------------------------------------------------------
 BASOPT| Total residuum value: -.37094818E+03

 BASOPT| Information at iteration number:    7900
 BASOPT| Training set | Combination | Rho difference | Condition num. | Time
 BASOPT| -----------------------------------------------------------------------
 BASOPT|        1     |       1     | 0.11672232E-01 | 0.17444801E+03 | 1740.269
 BASOPT|        2     |       1     | 0.23955921E-02 | 0.55793605E+02 |   93.396
 BASOPT|        3     |       1     | 0.56358461E-02 | 0.17994375E+03 |  174.767
 BASOPT|        4     |       1     | 0.37350026E-02 | 0.12184777E+03 |   93.062
 BASOPT| -----------------------------------------------------------------------
 BASOPT| Total residuum value: -.37094819E+03

 BASOPT| Information at iteration number:    8000
 BASOPT| Training set | Combination | Rho difference | Condition num. | Time
 BASOPT| -----------------------------------------------------------------------
 BASOPT|        1     |       1     | 0.11668483E-01 | 0.17452143E+03 | 1762.203
 BASOPT|        2     |       1     | 0.23970397E-02 | 0.55873613E+02 |   94.564
 BASOPT|        3     |       1     | 0.56368077E-02 | 0.18009073E+03 |  176.972
 BASOPT|        4     |       1     | 0.37353105E-02 | 0.12193460E+03 |   94.220
 BASOPT| -----------------------------------------------------------------------
 BASOPT| Total residuum value: -.37094820E+03

 BASOPT| Information at iteration number:    8100
 BASOPT| Training set | Combination | Rho difference | Condition num. | Time
 BASOPT| -----------------------------------------------------------------------
 BASOPT|        1     |       1     | 0.11668218E-01 | 0.17422470E+03 | 1784.132
 BASOPT|        2     |       1     | 0.23988990E-02 | 0.55959117E+02 |   95.737
 BASOPT|        3     |       1     | 0.56394613E-02 | 0.18014202E+03 |  179.181
 BASOPT|        4     |       1     | 0.37370789E-02 | 0.12195546E+03 |   95.381
 BASOPT| -----------------------------------------------------------------------
 BASOPT| Total residuum value: -.37094821E+03

 BASOPT| Information at iteration number:    8200
 BASOPT| Training set | Combination | Rho difference | Condition num. | Time
 BASOPT| -----------------------------------------------------------------------
 BASOPT|        1     |       1     | 0.11674330E-01 | 0.17421174E+03 | 1806.034
 BASOPT|        2     |       1     | 0.23968619E-02 | 0.56057124E+02 |   96.905
 BASOPT|        3     |       1     | 0.56350720E-02 | 0.18026957E+03 |  181.392
 BASOPT|        4     |       1     | 0.37363702E-02 | 0.12194579E+03 |   96.540
 BASOPT| -----------------------------------------------------------------------
 BASOPT| Total residuum value: -.37094822E+03

 BASOPT| Information at iteration number:    8300
 BASOPT| Training set | Combination | Rho difference | Condition num. | Time
 BASOPT| -----------------------------------------------------------------------
 BASOPT|        1     |       1     | 0.11685369E-01 | 0.17341431E+03 | 1827.930
 BASOPT|        2     |       1     | 0.23962321E-02 | 0.56229720E+02 |   98.068
 BASOPT|        3     |       1     | 0.56337041E-02 | 0.18019028E+03 |  183.598
 BASOPT|        4     |       1     | 0.37370335E-02 | 0.12189450E+03 |   97.700
 BASOPT| -----------------------------------------------------------------------
 BASOPT| Total residuum value: -.37094824E+03

 BASOPT| Information at iteration number:    8400
 BASOPT| Training set | Combination | Rho difference | Condition num. | Time
 BASOPT| -----------------------------------------------------------------------
 BASOPT|        1     |       1     | 0.11678830E-01 | 0.17351679E+03 | 1849.835
 BASOPT|        2     |       1     | 0.23967276E-02 | 0.56252223E+02 |   99.229
 BASOPT|        3     |       1     | 0.56357612E-02 | 0.18022975E+03 |  185.804
 BASOPT|        4     |       1     | 0.37380677E-02 | 0.12191452E+03 |   98.868
 BASOPT| -----------------------------------------------------------------------
 BASOPT| Total residuum value: -.37094824E+03

 BASOPT| Information at iteration number:    8500
 BASOPT| Training set | Combination | Rho difference | Condition num. | Time
 BASOPT| -----------------------------------------------------------------------
 BASOPT|        1     |       1     | 0.11679863E-01 | 0.17367379E+03 | 1871.738
 BASOPT|        2     |       1     | 0.23964286E-02 | 0.56386906E+02 |  100.391
 BASOPT|        3     |       1     | 0.56343740E-02 | 0.18042641E+03 |  188.014
 BASOPT|        4     |       1     | 0.37379686E-02 | 0.12196296E+03 |  100.039
 BASOPT| -----------------------------------------------------------------------
 BASOPT| Total residuum value: -.37094826E+03

 BASOPT| Information at iteration number:    8600
 BASOPT| Training set | Combination | Rho difference | Condition num. | Time
 BASOPT| -----------------------------------------------------------------------
 BASOPT|        1     |       1     | 0.11676973E-01 | 0.17320050E+03 | 1893.641
 BASOPT|        2     |       1     | 0.24020477E-02 | 0.56709168E+02 |  101.555
 BASOPT|        3     |       1     | 0.56323838E-02 | 0.18077084E+03 |  190.223
 BASOPT|        4     |       1     | 0.37385098E-02 | 0.12213803E+03 |  101.210
 BASOPT| -----------------------------------------------------------------------
 BASOPT| Total residuum value: -.37094828E+03

 BASOPT| Information at iteration number:    8700
 BASOPT| Training set | Combination | Rho difference | Condition num. | Time
 BASOPT| -----------------------------------------------------------------------
 BASOPT|        1     |       1     | 0.11656994E-01 | 0.17351682E+03 | 1915.529
 BASOPT|        2     |       1     | 0.24009344E-02 | 0.56925265E+02 |  102.716
 BASOPT|        3     |       1     | 0.56401286E-02 | 0.18070008E+03 |  192.430
 BASOPT|        4     |       1     | 0.37402642E-02 | 0.12213611E+03 |  102.379
 BASOPT| -----------------------------------------------------------------------
 BASOPT| Total residuum value: -.37094828E+03

 BASOPT| Information at iteration number:    8800
 BASOPT| Training set | Combination | Rho difference | Condition num. | Time
 BASOPT| -----------------------------------------------------------------------
 BASOPT|        1     |       1     | 0.11663873E-01 | 0.17394974E+03 | 1937.460
 BASOPT|        2     |       1     | 0.23941605E-02 | 0.57035462E+02 |  103.883
 BASOPT|        3     |       1     | 0.56355391E-02 | 0.18053769E+03 |  194.640
 BASOPT|        4     |       1     | 0.37363058E-02 | 0.12206927E+03 |  103.554
 BASOPT| -----------------------------------------------------------------------
 BASOPT| Total residuum value: -.37094831E+03

 BASOPT| Information at iteration number:    8900
 BASOPT| Training set | Combination | Rho difference | Condition num. | Time
 BASOPT| -----------------------------------------------------------------------
 BASOPT|        1     |       1     | 0.11673269E-01 | 0.17377408E+03 | 1959.383
 BASOPT|        2     |       1     | 0.23944582E-02 | 0.57178888E+02 |  105.050
 BASOPT|        3     |       1     | 0.56341554E-02 | 0.18067315E+03 |  196.849
 BASOPT|        4     |       1     | 0.37353469E-02 | 0.12215217E+03 |  104.726
 BASOPT| -----------------------------------------------------------------------
 BASOPT| Total residuum value: -.37094832E+03

 BASOPT| Information at iteration number:    9000
 BASOPT| Training set | Combination | Rho difference | Condition num. | Time
 BASOPT| -----------------------------------------------------------------------
 BASOPT|        1     |       1     | 0.11676333E-01 | 0.17381514E+03 | 1981.289
 BASOPT|        2     |       1     | 0.23949488E-02 | 0.57349757E+02 |  106.216
 BASOPT|        3     |       1     | 0.56315776E-02 | 0.18089100E+03 |  199.059
 BASOPT|        4     |       1     | 0.37347955E-02 | 0.12226139E+03 |  105.900
 BASOPT| -----------------------------------------------------------------------
 BASOPT| Total residuum value: -.37094835E+03

 BASOPT| Information at iteration number:    9100
 BASOPT| Training set | Combination | Rho difference | Condition num. | Time
 BASOPT| -----------------------------------------------------------------------
 BASOPT|        1     |       1     | 0.11677214E-01 | 0.17371152E+03 | 2003.864
 BASOPT|        2     |       1     | 0.23977916E-02 | 0.57414574E+02 |  107.461
 BASOPT|        3     |       1     | 0.56315426E-02 | 0.18116574E+03 |  201.380
 BASOPT|        4     |       1     | 0.37360972E-02 | 0.12239564E+03 |  107.140
 BASOPT| -----------------------------------------------------------------------
 BASOPT| Total residuum value: -.37094836E+03

 BASOPT| Information at iteration number:    9200
 BASOPT| Training set | Combination | Rho difference | Condition num. | Time
 BASOPT| -----------------------------------------------------------------------
 BASOPT|        1     |       1     | 0.11677884E-01 | 0.17347071E+03 | 2026.589
 BASOPT|        2     |       1     | 0.23972385E-02 | 0.57443249E+02 |  108.974
 BASOPT|        3     |       1     | 0.56320117E-02 | 0.18107196E+03 |  203.903
 BASOPT|        4     |       1     | 0.37360356E-02 | 0.12238212E+03 |  108.649
 BASOPT| -----------------------------------------------------------------------
 BASOPT| Total residuum value: -.37094837E+03

 BASOPT| Information at iteration number:    9300
 BASOPT| Training set | Combination | Rho difference | Condition num. | Time
 BASOPT| -----------------------------------------------------------------------
 BASOPT|        1     |       1     | 0.11676255E-01 | 0.17379874E+03 | 2048.447
 BASOPT|        2     |       1     | 0.23956049E-02 | 0.57499183E+02 |  110.168
 BASOPT|        3     |       1     | 0.56326822E-02 | 0.18111301E+03 |  206.079
 BASOPT|        4     |       1     | 0.37355719E-02 | 0.12239357E+03 |  109.836
 BASOPT| -----------------------------------------------------------------------
 BASOPT| Total residuum value: -.37094837E+03

 BASOPT| Information at iteration number:    9400
 BASOPT| Training set | Combination | Rho difference | Condition num. | Time
 BASOPT| -----------------------------------------------------------------------
 BASOPT|        1     |       1     | 0.11681359E-01 | 0.17360952E+03 | 2070.318
 BASOPT|        2     |       1     | 0.23978850E-02 | 0.57566796E+02 |  111.360
 BASOPT|        3     |       1     | 0.56302169E-02 | 0.18115657E+03 |  208.255
 BASOPT|        4     |       1     | 0.37354141E-02 | 0.12239167E+03 |  111.028
 BASOPT| -----------------------------------------------------------------------
 BASOPT| Total residuum value: -.37094838E+03

 BASOPT| Information at iteration number:    9500
 BASOPT| Training set | Combination | Rho difference | Condition num. | Time
 BASOPT| -----------------------------------------------------------------------
 BASOPT|        1     |       1     | 0.11674508E-01 | 0.17364106E+03 | 2092.211
 BASOPT|        2     |       1     | 0.23957240E-02 | 0.57587740E+02 |  112.553
 BASOPT|        3     |       1     | 0.56318212E-02 | 0.18101536E+03 |  210.433
 BASOPT|        4     |       1     | 0.37349548E-02 | 0.12237401E+03 |  112.218
 BASOPT| -----------------------------------------------------------------------
 BASOPT| Total residuum value: -.37094839E+03

 BASOPT| Information at iteration number:    9600
 BASOPT| Training set | Combination | Rho difference | Condition num. | Time
 BASOPT| -----------------------------------------------------------------------
 BASOPT|        1     |       1     | 0.11676395E-01 | 0.17376376E+03 | 2114.102
 BASOPT|        2     |       1     | 0.23973198E-02 | 0.57626796E+02 |  113.747
 BASOPT|        3     |       1     | 0.56301657E-02 | 0.18107806E+03 |  212.607
 BASOPT|        4     |       1     | 0.37341676E-02 | 0.12242679E+03 |  113.408
 BASOPT| -----------------------------------------------------------------------
 BASOPT| Total residuum value: -.37094839E+03

 BASOPT| Information at iteration number:    9700
 BASOPT| Training set | Combination | Rho difference | Condition num. | Time
 BASOPT| -----------------------------------------------------------------------
 BASOPT|        1     |       1     | 0.11673466E-01 | 0.17371076E+03 | 2135.999
 BASOPT|        2     |       1     | 0.23960051E-02 | 0.57638696E+02 |  114.947
 BASOPT|        3     |       1     | 0.56312138E-02 | 0.18098499E+03 |  214.782
 BASOPT|        4     |       1     | 0.37338278E-02 | 0.12240448E+03 |  114.601
 BASOPT| -----------------------------------------------------------------------
 BASOPT| Total residuum value: -.37094840E+03

 BASOPT| Information at iteration number:    9800
 BASOPT| Training set | Combination | Rho difference | Condition num. | Time
 BASOPT| -----------------------------------------------------------------------
 BASOPT|        1     |       1     | 0.11668247E-01 | 0.17366607E+03 | 2157.896
 BASOPT|        2     |       1     | 0.23944177E-02 | 0.57670141E+02 |  116.144
 BASOPT|        3     |       1     | 0.56333751E-02 | 0.18087321E+03 |  216.953
 BASOPT|        4     |       1     | 0.37336151E-02 | 0.12238288E+03 |  115.793
 BASOPT| -----------------------------------------------------------------------
 BASOPT| Total residuum value: -.37094840E+03

 BASOPT| Information at iteration number:    9900
 BASOPT| Training set | Combination | Rho difference | Condition num. | Time
 BASOPT| -----------------------------------------------------------------------
 BASOPT|        1     |       1     | 0.11672959E-01 | 0.17396694E+03 | 2179.771
 BASOPT|        2     |       1     | 0.23969369E-02 | 0.57695897E+02 |  117.343
 BASOPT|        3     |       1     | 0.56300974E-02 | 0.18121768E+03 |  219.126
 BASOPT|        4     |       1     | 0.37334261E-02 | 0.12248836E+03 |  116.987
 BASOPT| -----------------------------------------------------------------------
 BASOPT| Total residuum value: -.37094841E+03

 BASOPT| Information at iteration number:   10000
 BASOPT| Training set | Combination | Rho difference | Condition num. | Time
 BASOPT| -----------------------------------------------------------------------
 BASOPT|        1     |       1     | 0.11674805E-01 | 0.17442303E+03 | 2201.678
 BASOPT|        2     |       1     | 0.23951187E-02 | 0.57827850E+02 |  118.541
 BASOPT|        3     |       1     | 0.56303350E-02 | 0.18128727E+03 |  221.297
 BASOPT|        4     |       1     | 0.37329356E-02 | 0.12246272E+03 |  118.181
 BASOPT| -----------------------------------------------------------------------
 BASOPT| Total residuum value: -.37094841E+03

 BASOPT| Information at iteration number:   10100
 BASOPT| Training set | Combination | Rho difference | Condition num. | Time
 BASOPT| -----------------------------------------------------------------------
 BASOPT|        1     |       1     | 0.11662418E-01 | 0.17420623E+03 | 2223.574
 BASOPT|        2     |       1     | 0.23947517E-02 | 0.57878630E+02 |  119.741
 BASOPT|        3     |       1     | 0.56364318E-02 | 0.18107053E+03 |  223.469
 BASOPT|        4     |       1     | 0.37351200E-02 | 0.12243789E+03 |  119.372
 BASOPT| -----------------------------------------------------------------------
 BASOPT| Total residuum value: -.37094841E+03

 BASOPT| Information at iteration number:   10200
 BASOPT| Training set | Combination | Rho difference | Condition num. | Time
 BASOPT| -----------------------------------------------------------------------
 BASOPT|        1     |       1     | 0.11667969E-01 | 0.17390345E+03 | 2245.463
 BASOPT|        2     |       1     | 0.23982042E-02 | 0.57930888E+02 |  120.940
 BASOPT|        3     |       1     | 0.56331629E-02 | 0.18115269E+03 |  225.645
 BASOPT|        4     |       1     | 0.37351594E-02 | 0.12245844E+03 |  120.568
 BASOPT| -----------------------------------------------------------------------
 BASOPT| Total residuum value: -.37094842E+03

 BASOPT| Information at iteration number:   10300
 BASOPT| Training set | Combination | Rho difference | Condition num. | Time
 BASOPT| -----------------------------------------------------------------------
 BASOPT|        1     |       1     | 0.11668377E-01 | 0.17402423E+03 | 2267.344
 BASOPT|        2     |       1     | 0.23990200E-02 | 0.58073599E+02 |  122.138
 BASOPT|        3     |       1     | 0.56338669E-02 | 0.18114833E+03 |  227.822
 BASOPT|        4     |       1     | 0.37358881E-02 | 0.12241255E+03 |  121.759
 BASOPT| -----------------------------------------------------------------------
 BASOPT| Total residuum value: -.37094843E+03

 BASOPT| Information at iteration number:   10400
 BASOPT| Training set | Combination | Rho difference | Condition num. | Time
 BASOPT| -----------------------------------------------------------------------
 BASOPT|        1     |       1     | 0.11670350E-01 | 0.17412334E+03 | 2289.230
 BASOPT|        2     |       1     | 0.23951580E-02 | 0.58092623E+02 |  123.337
 BASOPT|        3     |       1     | 0.56312206E-02 | 0.18111570E+03 |  230.008
 BASOPT|        4     |       1     | 0.37349364E-02 | 0.12233691E+03 |  122.958
 BASOPT| -----------------------------------------------------------------------
 BASOPT| Total residuum value: -.37094844E+03

 BASOPT| Information at iteration number:   10500
 BASOPT| Training set | Combination | Rho difference | Condition num. | Time
 BASOPT| -----------------------------------------------------------------------
 BASOPT|        1     |       1     | 0.11674266E-01 | 0.17399494E+03 | 2311.127
 BASOPT|        2     |       1     | 0.23952071E-02 | 0.58123965E+02 |  124.536
 BASOPT|        3     |       1     | 0.56307078E-02 | 0.18117534E+03 |  232.185
 BASOPT|        4     |       1     | 0.37352497E-02 | 0.12232768E+03 |  124.153
 BASOPT| -----------------------------------------------------------------------
 BASOPT| Total residuum value: -.37094844E+03

 BASOPT| Information at iteration number:   10600
 BASOPT| Training set | Combination | Rho difference | Condition num. | Time
 BASOPT| -----------------------------------------------------------------------
 BASOPT|        1     |       1     | 0.11676593E-01 | 0.17374924E+03 | 2333.013
 BASOPT|        2     |       1     | 0.23972422E-02 | 0.58211378E+02 |  125.736
 BASOPT|        3     |       1     | 0.56289942E-02 | 0.18122698E+03 |  234.366
 BASOPT|        4     |       1     | 0.37354594E-02 | 0.12231022E+03 |  125.346
 BASOPT| -----------------------------------------------------------------------
 BASOPT| Total residuum value: -.37094845E+03

 BASOPT| Information at iteration number:   10700
 BASOPT| Training set | Combination | Rho difference | Condition num. | Time
 BASOPT| -----------------------------------------------------------------------
 BASOPT|        1     |       1     | 0.11671857E-01 | 0.17342418E+03 | 2354.887
 BASOPT|        2     |       1     | 0.24017009E-02 | 0.58284702E+02 |  126.934
 BASOPT|        3     |       1     | 0.56300932E-02 | 0.18140691E+03 |  236.541
 BASOPT|        4     |       1     | 0.37373982E-02 | 0.12240939E+03 |  126.539
 BASOPT| -----------------------------------------------------------------------
 BASOPT| Total residuum value: -.37094845E+03

 BASOPT| Information at iteration number:   10800
 BASOPT| Training set | Combination | Rho difference | Condition num. | Time
 BASOPT| -----------------------------------------------------------------------
 BASOPT|        1     |       1     | 0.11673530E-01 | 0.17350596E+03 | 2376.769
 BASOPT|        2     |       1     | 0.23939475E-02 | 0.58441820E+02 |  128.134
 BASOPT|        3     |       1     | 0.56283932E-02 | 0.18152983E+03 |  238.717
 BASOPT|        4     |       1     | 0.37336356E-02 | 0.12239638E+03 |  127.729
 BASOPT| -----------------------------------------------------------------------
 BASOPT| Total residuum value: -.37094849E+03

 BASOPT| Information at iteration number:   10900
 BASOPT| Training set | Combination | Rho difference | Condition num. | Time
 BASOPT| -----------------------------------------------------------------------
 BASOPT|        1     |       1     | 0.11678015E-01 | 0.17372162E+03 | 2398.633
 BASOPT|        2     |       1     | 0.23936589E-02 | 0.58632675E+02 |  129.335
[...]
 BASOPT|        2     |       1     | 0.23953294E-02 | 0.59258189E+02 |  135.347
 BASOPT|        3     |       1     | 0.56268558E-02 | 0.18227742E+03 |  251.789
 BASOPT|        4     |       1     | 0.37328830E-02 | 0.12250327E+03 |  134.876
 BASOPT| -----------------------------------------------------------------------
 BASOPT| Total residuum value: -.37094859E+03

 BASOPT| Information at iteration number:   11500
 BASOPT| Training set | Combination | Rho difference | Condition num. | Time
 BASOPT| -----------------------------------------------------------------------
 BASOPT|        1     |       1     | 0.11674775E-01 | 0.17358966E+03 | 2529.999
 BASOPT|        2     |       1     | 0.23954251E-02 | 0.59315349E+02 |  136.552
 BASOPT|        3     |       1     | 0.56275316E-02 | 0.18220034E+03 |  253.969
 BASOPT|        4     |       1     | 0.37328938E-02 | 0.12245327E+03 |  136.067
 BASOPT| -----------------------------------------------------------------------
 BASOPT| Total residuum value: -.37094859E+03

 BASOPT| Information at iteration number:   11600
 BASOPT| Training set | Combination | Rho difference | Condition num. | Time
 BASOPT| -----------------------------------------------------------------------
 BASOPT|        1     |       1     | 0.11681561E-01 | 0.17373561E+03 | 2551.890
 BASOPT|        2     |       1     | 0.23964069E-02 | 0.59333165E+02 |  137.753
 BASOPT|        3     |       1     | 0.56248037E-02 | 0.18248816E+03 |  256.147
 BASOPT|        4     |       1     | 0.37324171E-02 | 0.12255091E+03 |  137.259
 BASOPT| -----------------------------------------------------------------------
 BASOPT| Total residuum value: -.37094860E+03

 BASOPT| Information at iteration number:   11700
 BASOPT| Training set | Combination | Rho difference | Condition num. | Time
 BASOPT| -----------------------------------------------------------------------
 BASOPT|        1     |       1     | 0.11678634E-01 | 0.17359623E+03 | 2573.777
 BASOPT|        2     |       1     | 0.23972616E-02 | 0.59364085E+02 |  138.958
 BASOPT|        3     |       1     | 0.56261082E-02 | 0.18250356E+03 |  258.330
 BASOPT|        4     |       1     | 0.37327371E-02 | 0.12257511E+03 |  138.452
 BASOPT| -----------------------------------------------------------------------
 BASOPT| Total residuum value: -.37094861E+03

 BASOPT| Information at iteration number:   11800
 BASOPT| Training set | Combination | Rho difference | Condition num. | Time
 BASOPT| -----------------------------------------------------------------------
 BASOPT|        1     |       1     | 0.11677171E-01 | 0.17349490E+03 | 2595.681
 BASOPT|        2     |       1     | 0.23969969E-02 | 0.59390624E+02 |  140.161
 BASOPT|        3     |       1     | 0.56275017E-02 | 0.18244697E+03 |  260.509
 BASOPT|        4     |       1     | 0.37329142E-02 | 0.12255113E+03 |  139.645
 BASOPT| -----------------------------------------------------------------------
 BASOPT| Total residuum value: -.37094861E+03

 BASOPT| Information at iteration number:   11900
 BASOPT| Training set | Combination | Rho difference | Condition num. | Time
 BASOPT| -----------------------------------------------------------------------
 BASOPT|        1     |       1     | 0.11677505E-01 | 0.17349947E+03 | 2617.563
 BASOPT|        2     |       1     | 0.23959544E-02 | 0.59391996E+02 |  141.365
 BASOPT|        3     |       1     | 0.56273623E-02 | 0.18240996E+03 |  262.691
 BASOPT|        4     |       1     | 0.37326752E-02 | 0.12252849E+03 |  140.841
 BASOPT| -----------------------------------------------------------------------
 BASOPT| Total residuum value: -.37094861E+03

 BASOPT| Information at iteration number:   12000
 BASOPT| Training set | Combination | Rho difference | Condition num. | Time
 BASOPT| -----------------------------------------------------------------------
 BASOPT|        1     |       1     | 0.11677382E-01 | 0.17347961E+03 | 2639.459
 BASOPT|        2     |       1     | 0.23964469E-02 | 0.59392993E+02 |  142.567
 BASOPT|        3     |       1     | 0.56274413E-02 | 0.18242198E+03 |  264.874
 BASOPT|        4     |       1     | 0.37328227E-02 | 0.12253530E+03 |  142.037
 BASOPT| -----------------------------------------------------------------------
 BASOPT| Total residuum value: -.37094861E+03

 BASOPT| Information at iteration number:   12100
 BASOPT| Training set | Combination | Rho difference | Condition num. | Time
 BASOPT| -----------------------------------------------------------------------
 BASOPT|        1     |       1     | 0.11677375E-01 | 0.17347970E+03 | 2661.351
 BASOPT|        2     |       1     | 0.23964471E-02 | 0.59393005E+02 |  143.769
 BASOPT|        3     |       1     | 0.56274447E-02 | 0.18242199E+03 |  267.057
 BASOPT|        4     |       1     | 0.37328241E-02 | 0.12253530E+03 |  143.232
 BASOPT| -----------------------------------------------------------------------
 BASOPT| Total residuum value: -.37094861E+03

 BASOPT| Information at iteration number:   12200
 BASOPT| Training set | Combination | Rho difference | Condition num. | Time
 BASOPT| -----------------------------------------------------------------------
 BASOPT|        1     |       1     | 0.11677375E-01 | 0.17347970E+03 | 2683.245
 BASOPT|        2     |       1     | 0.23964472E-02 | 0.59393005E+02 |  144.973
 BASOPT|        3     |       1     | 0.56274447E-02 | 0.18242199E+03 |  269.239
 BASOPT|        4     |       1     | 0.37328241E-02 | 0.12253530E+03 |  144.428
 BASOPT| -----------------------------------------------------------------------
 BASOPT| Total residuum value: -.37094861E+03


 -------------------------------------------------------------------------------
 -                                                                             -
 -                                DBCSR STATISTICS                             -
 -                                                                             -
 -------------------------------------------------------------------------------
 COUNTER                                    TOTAL       BLAS       SMM       ACC
 flops    68 x   104 x     4                56576       0.0%    100.0%      0.0%
 flops   104 x    68 x     4                56576       0.0%    100.0%      0.0%
 flops   104 x   104 x     4                86528       0.0%    100.0%      0.0%
 flops    68 x    68 x     4               110976       0.0%    100.0%      0.0%
 flops   104 x   104 x     6               129792       0.0%    100.0%      0.0%
 flops   116 x   104 x     6               144768       0.0%    100.0%      0.0%
 flops   116 x   116 x     6               161472       0.0%    100.0%      0.0%
 flops   104 x   104 x     9               194688       0.0%    100.0%      0.0%
 flops   104 x   116 x     9               217152       0.0%    100.0%      0.0%
 flops   116 x   104 x     9               217152       0.0%    100.0%      0.0%
 flops   116 x   116 x     9               726624       0.0%    100.0%      0.0%
 flops   104 x   104 x    24             18690048       0.0%    100.0%      0.0%
 flops inhomo. stacks                           0       0.0%      0.0%      0.0%
 flops total                        20.792352E+06       0.0%    100.0%      0.0%
 flops max/rank                      5.191680E+06       0.0%    100.0%      0.0%
 matmuls inhomo. stacks                         0       0.0%      0.0%      0.0%
 matmuls total                                 51       0.0%    100.0%      0.0%
 number of processed stacks                    19       0.0%    100.0%      0.0%
 average stack size                                     0.0       2.7       0.0
 marketing flops                    36.300480E+06
 -------------------------------------------------------------------------------
 # multiplications                              1
 max memory usage/rank             799.682560E+06
 # max total images/rank                        3
 # max 3D layers                                1
 # MPI messages exchanged                     168
 MPI messages size (bytes):
  total size                       606.528000E+03
  min size                           0.000000E+00
  max size                          99.840000E+03
  average size                       3.610286E+03
 MPI breakdown and total messages size (bytes):
             size <=      128                 146                        0
       128 < size <=     8192                   9                    45504
      8192 < size <=    32768                   6                    81792
     32768 < size <=   131072                   7                   479232
    131072 < size <=  4194304                   0                        0
   4194304 < size <= 16777216                   0                        0
  16777216 < size                               0                        0
 -------------------------------------------------------------------------------

 *** WARNING in dbcsr_mm.F:294 :: Using a non-square number of MPI ranks ***
 *** might lead to poor performance. Used ranks: 6 Suggested: 4 9        ***

 -------------------------------------------------------------------------------
 -                                                                             -
 -                      DBCSR MESSAGE PASSING PERFORMANCE                      -
 -                                                                             -
 -------------------------------------------------------------------------------
 ROUTINE             CALLS      AVE VOLUME [Bytes]
 MP_Bcast               13                     12.
 MP_Allreduce           50                     21.
 MP_Alltoall        737121                  77444.
 MP_ISend               18                   5607.
 MP_IRecv               20                   1051.
 -------------------------------------------------------------------------------

 -------------------------------------------------------------------------------
 -                                                                             -
 -                                GRID STATISTICS                              -
 -                                                                             -
 -------------------------------------------------------------------------------
 LP    KERNEL             BACKEND                              COUNT     PERCENT
 4     collocate ortho    REF                                   3278      20.37%
 4     integrate ortho    REF                                   3278      20.37%
 2     collocate ortho    REF                                   2255      14.01%
 2     integrate ortho    REF                                   2255      14.01%
 6     collocate ortho    REF                                   1388       8.62%
 6     integrate ortho    REF                                   1388       8.62%
 5     collocate ortho    REF                                    346       2.15%
 5     integrate ortho    REF                                    346       2.15%
 3     collocate ortho    REF                                    288       1.79%
 3     integrate ortho    REF                                    288       1.79%
 0     collocate ortho    REF                                    187       1.16%
 0     integrate ortho    REF                                    187       1.16%
 1     collocate ortho    REF                                    122       0.76%
 1     integrate ortho    REF                                    122       0.76%
 0     collocate general  REF                                     96       0.60%
 7     collocate ortho    REF                                     72       0.45%
 7     integrate ortho    REF                                     72       0.45%
 8     collocate ortho    REF                                     64       0.40%
 8     integrate ortho    REF                                     64       0.40%
 -------------------------------------------------------------------------------

 MEMORY| Estimated peak process memory [MiB]                                1715

 -------------------------------------------------------------------------------
 -                                                                             -
 -                         MESSAGE PASSING PERFORMANCE                         -
 -                                                                             -
 -------------------------------------------------------------------------------

 ROUTINE             CALLS      AVE VOLUME [Bytes]
 MP_Bcast            36887                    544.
 MP_Allreduce       160078                     31.
 MP_Sync             36855
 MP_Alltoall            48               75276236.
 MP_ISendRecv           20                 824000.
 MP_Wait                70
 MP_comm_split       24571
 MP_ISend               40                7404480.
 MP_IRecv               40                7404480.
 -------------------------------------------------------------------------------


 -------------------------------------------------------------------------------
 -                                                                             -
 -                           R E F E R E N C E S                               -
 -                                                                             -
 -------------------------------------------------------------------------------
 
 CP2K version 9.0 (Development Version), the CP2K developers group (2020).
 CP2K is freely available from https://www.cp2k.org/ .

 Kuehne,Thomas D.; Iannuzzi,Marcella; Del Ben,Mauro;
 Rybkin,Vladimir V.; Seewald,Patrick; Stein,Frederick; Laino,Teodoro;
 Khaliullin,Rustam Z.; Schuett,Ole; Schiffmann,Florian; Golze,Dorothea;
 Wilhelm,Jan; Chulkov,Sergey; Bani-Hashemian,Mohammad Hossein;
 Weber,Valery; Borstnik,Urban; Taillefumier,Mathieu;
 Jakobovits,Alice Shoshana; Lazzaro,Alfio; Pabst,Hans; Mueller,Tiziano;
 Schade,Robert; Guidon,Manuel; Andermatt,Samuel; Holmberg,Nico;
 Schenter,Gregory K.; Hehn,Anna; Bussy,Augustin; Belleflamme,Fabian;
 Tabacchi,Gloria; Gloess,Andreas; Lass,Michael; Bethune,Iain;
 Mundy,Christopher J.; Plessl,Christian; Watkins,Matt;
 VandeVondele,Joost; Krack,Matthias; Hutter,Juerg. 
 The Journal of Chemical Physics, 152 (19), (2020). 
 CP2K: An electronic structure and molecular dynamics software package -
 Quickstep: Efficient and accurate electronic structure calculations.
 https://doi.org/10.1063/5.0007045

 Schuett, Ole; Messmer, Peter; Hutter, Juerg; VandeVondele, Joost. 
 Electronic Structure Calculations on Graphics Processing Units, John
 Wiley & Sons, Ltd, 173-190 (2016). 
 GPU-Accelerated Sparse Matrix-Matrix Multiplication for
 Linear Scaling Density Functional Theory.
 https://doi.org/10.1002/9781118670712.ch8

 Borstnik, U; VandeVondele, J; Weber, V; Hutter, J. 
 PARALLEL COMPUTING, 40 (5-6), 47-58 (2014). 
 Sparse matrix multiplication: The distributed block-compressed sparse
 row library.
 https://doi.org/10.1016/j.parco.2014.03.012

 Hutter, J; Iannuzzi, M; Schiffmann, F; VandeVondele, J. 
 WIREs Comput Mol Sci., 4 (1), 15-25 (2014). 
 CP2K: atomistic simulations of condensed matter systems.
 https://doi.org/10.1002/wcms.1159

 Marek, A; Blum, V; Johanni, R; Havu, V; Lang, B; Auckenthaler, T;
 Heinecke, A; Bungartz, H; Lederer, H. 
 Journal of Physics: Condensed Matter, 26 (21), (2014). 
 The ELPA library: scalable parallel eigenvalue solutions for
 electronic structure
 theory and computational science.
 https://doi.org/10.1088/0953-8984/26/21/213201

 Guidon, M; Hutter, J; VandeVondele, J. 
 JOURNAL OF CHEMICAL THEORY AND COMPUTATION, 6 (8), 2348-2364 (2010). 
 Auxiliary Density Matrix Methods for Hartree-Fock Exchange Calculations.
 https://doi.org/10.1021/ct1002225

 VandeVondele, J; Hutter, J. 
 JOURNAL OF CHEMICAL PHYSICS, 127 (11), 114105 (2007). 
 Gaussian basis sets for accurate calculations on molecular systems in
 gas and condensed phases.
 https://doi.org/10.1063/1.2770708

 Krack, M. 
 THEORETICAL CHEMISTRY ACCOUNTS, 114 (1-3), 145-152 (2005). 
 Pseudopotentials for H to Kr optimized for gradient-corrected
 exchange-correlation functionals.
 https://doi.org/10.1007/s00214-005-0655-y

 VandeVondele, J; Krack, M; Mohamed, F; Parrinello, M; Chassaing, T;
 Hutter, J. COMPUTER PHYSICS COMMUNICATIONS, 167 (2), 103-128 (2005). 
 QUICKSTEP: Fast and accurate density functional calculations using a
 mixed Gaussian and plane waves approach.
 https://doi.org/10.1016/j.cpc.2004.12.014

 Frigo, M; Johnson, SG. 
 PROCEEDINGS OF THE IEEE, 93 (2), 216-231 (2005). 
 The design and implementation of FFTW3.
 https://doi.org/10.1109/JPROC.2004.840301

 Hartwigsen, C; Goedecker, S; Hutter, J. 
 PHYSICAL REVIEW B, 58 (7), 3641-3662 (1998). 
 Relativistic separable dual-space Gaussian pseudopotentials from H to Rn.
 https://doi.org/10.1103/PhysRevB.58.3641

 Lippert, G; Hutter, J; Parrinello, M. 
 MOLECULAR PHYSICS, 92 (3), 477-487 (1997). 
 A hybrid Gaussian and plane wave density functional scheme.
 https://doi.org/10.1080/002689797170220

 Perdew, JP; Burke, K; Ernzerhof, M. 
 PHYSICAL REVIEW LETTERS, 77 (18), 3865-3868 (1996). 
 Generalized gradient approximation made simple.
 https://doi.org/10.1103/PhysRevLett.77.3865

 Goedecker, S; Teter, M; Hutter, J. 
 PHYSICAL REVIEW B, 54 (3), 1703-1710 (1996). 
 Separable dual-space Gaussian pseudopotentials.
 https://doi.org/10.1103/PhysRevB.54.1703


 -------------------------------------------------------------------------------
 -                                                                             -
 -                                T I M I N G                                  -
 -                                                                             -
 -------------------------------------------------------------------------------
 SUBROUTINE                       CALLS  ASD         SELF TIME        TOTAL TIME
                                MAXIMUM       AVERAGE  MAXIMUM  AVERAGE  MAXIMUM
 CP2K                                 1  1.0    0.002    0.005 2713.998 2714.284
 run_optimize_basis                   1  2.0    0.001    0.002 2713.986 2714.271
 driver_para_opt_basis                1  3.0    0.000    0.000 2713.979 2714.264
 driver_optimization_para_low         1  4.0    0.098    0.154 2713.978 2714.263
 compute_residuum_vectors         12285  5.0    0.606    0.833 2703.202 2703.807
 mp_sum_dv                        61426  5.8 1887.063 2558.166 1887.063 2558.166
 cp_gemm                         147420  7.2    0.212    0.323  679.249 2434.892
 cp_gemm_fm_gemm                 147420  8.2    0.130    0.204  679.037 2434.568
 cp_fm_gemm                      147420  9.2  678.907 2434.364  678.907 2434.364
 admm_fit_mo_coeffs               12285  6.0    0.029    0.054  306.653 1015.741
 fit_mo_coeffs                    12285  7.0    0.109    0.136  222.058  768.743
 purify_mo_diag                   12285  7.0    0.141    0.248   84.565  248.381
 copy_dbcsr_to_fm                 61426  6.8    0.641    0.963   49.344  100.020
 cp_fm_syevd                      24570  7.0    0.072    0.107   47.578   93.175
 cp_fm_redistribute_end           24570  8.0   15.807   83.393   16.066   83.696
 cp_fm_syevd_base                 24570  8.0   22.279   78.416   22.279   78.416
 -------------------------------------------------------------------------------

 The number of warnings for this run is : 1
 
 -------------------------------------------------------------------------------
  **** **** ******  **  PROGRAM ENDED AT                 2021-01-05 22:31:25.834
 ***** ** ***  *** **   PROGRAM RAN ON                                   tcopt10
 **    ****   ******    PROGRAM RAN BY                                    hutter
 ***** **    ** ** **   PROGRAM PROCESS ID                                 60537
  **** **  *******  **  PROGRAM STOPPED IN /data/hutter/GITHUB/BASIS/MOLOPT/PBE/
                                           Se
