
  **** **** ******  **  PROGRAM STARTED AT               2021-01-23 18:29:14.473
 ***** ** ***  *** **   PROGRAM STARTED ON                               tcopt10
 **    ****   ******    PROGRAM STARTED BY                                hutter
 ***** **    ** ** **   PROGRAM PROCESS ID                                  8142
  **** **  *******  **  PROGRAM STARTED IN /data/hutter/GITHUB/BASIS/MOLOPT/PBE/
                                           Se

 CP2K| version string:                    CP2K version 9.0 (Development Version)
 CP2K| source code revision number:                                  git:7d6847f
 CP2K| cp2kflags: omp libint fftw3 libxc elpa parallel mpi3 scalapack xsmm spgli
 CP2K|            b sirius libvori libbqb
 CP2K| is freely available from                            https://www.cp2k.org/
 CP2K| Program compiled at                          Fre Jan 15 16:26:00 CET 2021
 CP2K| Program compiled on                                               tcopt10
 CP2K| Program compiled for                                                local
 CP2K| Data directory path                 /data/hutter/GITHUB/CURRENT/cp2k/data
 CP2K| Input file name                                               opt-all.inp

 GLOBAL| Method name                                              OPTIMIZE_BASIS
 GLOBAL| Project name                                                     molopt
 GLOBAL| Preferred FFT library                                             FFTW3
 GLOBAL| Preferred diagonalization lib.                                     ELPA
 GLOBAL| Run type                                                   ENERGY_FORCE
 GLOBAL| All-to-all communication in single precision                          F
 GLOBAL| FFTs using library dependent lengths                                  F
 GLOBAL| Global print level                                               MEDIUM
 GLOBAL| MPI I/O enabled                                                       T
 GLOBAL| Total number of message passing processes                            24
 GLOBAL| Number of threads for this process                                    1
 GLOBAL| This output is from process                                           0
 GLOBAL| CPU model name                          AMD EPYC 7401 24-Core Processor
 GLOBAL| CPUID                                                              1002

 MEMORY| system memory details [Kb]
 MEMORY|                        rank 0           min           max       average
 MEMORY| MemTotal            263969964     263969964     263969964     263969964
 MEMORY| MemFree             137250584     137250584     137251088     137250626
 MEMORY| Buffers                    20            20            20            20
 MEMORY| Cached                 249984        249984        249984        249984
 MEMORY| Slab                   528716        528716        528716        528716
 MEMORY| SReclaimable           181264        181264        181264        181264
 MEMORY| MemLikelyFree       137681852     137681852     137682356     137681894


 *** Fundamental physical constants (SI units) ***

 *** Literature: B. J. Mohr and B. N. Taylor,
 ***             CODATA recommended values of the fundamental physical
 ***             constants: 2006, Web Version 5.1
 ***             http://physics.nist.gov/constants

 Speed of light in vacuum [m/s]                             2.99792458000000E+08
 Magnetic constant or permeability of vacuum [N/A**2]       1.25663706143592E-06
 Electric constant or permittivity of vacuum [F/m]          8.85418781762039E-12
 Planck constant (h) [J*s]                                  6.62606896000000E-34
 Planck constant (h-bar) [J*s]                              1.05457162825177E-34
 Elementary charge [C]                                      1.60217648700000E-19
 Electron mass [kg]                                         9.10938215000000E-31
 Electron g factor [ ]                                     -2.00231930436220E+00
 Proton mass [kg]                                           1.67262163700000E-27
 Fine-structure constant                                    7.29735253760000E-03
 Rydberg constant [1/m]                                     1.09737315685270E+07
 Avogadro constant [1/mol]                                  6.02214179000000E+23
 Boltzmann constant [J/K]                                   1.38065040000000E-23
 Atomic mass unit [kg]                                      1.66053878200000E-27
 Bohr radius [m]                                            5.29177208590000E-11

 *** Conversion factors ***

 [u] -> [a.u.]                                              1.82288848426455E+03
 [Angstrom] -> [Bohr] = [a.u.]                              1.88972613288564E+00
 [a.u.] = [Bohr] -> [Angstrom]                              5.29177208590000E-01
 [a.u.] -> [s]                                              2.41888432650478E-17
 [a.u.] -> [fs]                                             2.41888432650478E-02
 [a.u.] -> [J]                                              4.35974393937059E-18
 [a.u.] -> [N]                                              8.23872205491840E-08
 [a.u.] -> [K]                                              3.15774647902944E+05
 [a.u.] -> [kJ/mol]                                         2.62549961709828E+03
 [a.u.] -> [kcal/mol]                                       6.27509468713739E+02
 [a.u.] -> [Pa]                                             2.94210107994716E+13
 [a.u.] -> [bar]                                            2.94210107994716E+08
 [a.u.] -> [atm]                                            2.90362800883016E+08
 [a.u.] -> [eV]                                             2.72113838565563E+01
 [a.u.] -> [Hz]                                             6.57968392072181E+15
 [a.u.] -> [1/cm] (wave numbers)                            2.19474631370540E+05
 [a.u./Bohr**2] -> [1/cm]                                   5.14048714338585E+03
 
 DBCSR| CPU Multiplication driver                                           XSMM
 DBCSR| Multrec recursion limit                                              512
 DBCSR| Multiplication stack size                                           1000
 DBCSR| Maximum elements for images                                    UNLIMITED
 DBCSR| Multiplicative factor virtual images                                   1
 DBCSR| Use multiplication densification                                       T
 DBCSR| Multiplication size stacks                                             3
 DBCSR| Use memory pool for CPU allocation                                     F
 DBCSR| Number of 3D layers                                               SINGLE
 DBCSR| Use MPI memory allocation                                              F
 DBCSR| Use RMA algorithm                                                      F
 DBCSR| Use Communication thread                                               T
 DBCSR| Communication thread load                                             87
 DBCSR| MPI: My node id                                                        0
 DBCSR| MPI: Number of nodes                                                  24
 DBCSR| OMP: Current number of threads                                         1
 DBCSR| OMP: Max number of threads                                             1
 DBCSR| Split modifier for TAS multiplication algorithm                  1.0E+00

 BASOPT| Total number of calculations     12

 BASOPT| Content of basis combination      1
 BASOPT|     Element:   SE    Basis set:    TZV2P-MOLOPT-PBE-GTH-Q6
 BASOPT|     Element:    H    Basis set:    TZV2P-MOLOPT-PBE-GTH-Q1
 BASOPT|     Element:    O    Basis set:    TZV2P-MOLOPT-PBE-GTH-Q6

 BASOPT| Content of basis combination      2
 BASOPT|     Element:   SE    Basis set:    TZVP-MOLOPT-PBE-GTH-q6
 BASOPT|     Element:    H    Basis set:    TZVP-MOLOPT-PBE-GTH-q1
 BASOPT|     Element:    O    Basis set:    TZVP-MOLOPT-PBE-GTH-q6

 BASOPT| Content of basis combination      3
 BASOPT|     Element:   SE    Basis set:    DZVP-MOLOPT-PBE-GTH-q6
 BASOPT|     Element:    H    Basis set:    DZVP-MOLOPT-PBE-GTH-q1
 BASOPT|     Element:    O    Basis set:    DZVP-MOLOPT-PBE-GTH-q6

 BASOPT| Information at iteration number:       0
 BASOPT| Training set | Combination | Rho difference | Condition num. | Time
 BASOPT| -----------------------------------------------------------------------
 BASOPT|        1     |       1     | 0.10664198E-01 | 0.43907507E+04 |    0.368
 BASOPT|        1     |       2     | 0.11453483E-01 | 0.97535316E+03 |    0.291
 BASOPT|        1     |       3     | 0.11677375E-01 | 0.17347970E+03 |    0.232
 BASOPT|        2     |       1     | 0.15967007E-02 | 0.75154737E+03 |    0.017
 BASOPT|        2     |       2     | 0.23474449E-02 | 0.66173148E+03 |    0.014
 BASOPT|        2     |       3     | 0.23964314E-02 | 0.59393309E+02 |    0.012
 BASOPT|        3     |       1     | 0.24794231E-02 | 0.97135747E+03 |    0.037
 BASOPT|        3     |       2     | 0.47702665E-02 | 0.69131059E+03 |    0.024
 BASOPT|        3     |       3     | 0.56275793E-02 | 0.18244849E+03 |    0.024
 BASOPT|        4     |       1     | 0.17892723E-02 | 0.71965629E+03 |    0.016
 BASOPT|        4     |       2     | 0.32634206E-02 | 0.58853462E+03 |    0.012
 BASOPT|        4     |       3     | 0.37330446E-02 | 0.12256070E+03 |    0.010
 BASOPT| -----------------------------------------------------------------------
 BASOPT| Total residuum value: -.11124799E+04

 BASOPT| Information at iteration number:     100
 BASOPT| Training set | Combination | Rho difference | Condition num. | Time
 BASOPT| -----------------------------------------------------------------------
 BASOPT|        1     |       1     | 0.10693885E-01 | 0.38689258E+04 |   36.153
 BASOPT|        1     |       2     | 0.11489776E-01 | 0.55271507E+03 |   28.653
 BASOPT|        1     |       3     | 0.11763605E-01 | 0.17756101E+03 |   22.788
 BASOPT|        2     |       1     | 0.15946979E-02 | 0.71262527E+03 |    1.508
 BASOPT|        2     |       2     | 0.23514182E-02 | 0.38966453E+03 |    1.157
 BASOPT|        2     |       3     | 0.24024813E-02 | 0.59286419E+02 |    0.962
 BASOPT|        3     |       1     | 0.24673997E-02 | 0.93324610E+03 |    3.408
 BASOPT|        3     |       2     | 0.47479512E-02 | 0.46689532E+03 |    2.310
 BASOPT|        3     |       3     | 0.56219570E-02 | 0.18404130E+03 |    2.061
 BASOPT|        4     |       1     | 0.17782223E-02 | 0.66652359E+03 |    1.391
 BASOPT|        4     |       2     | 0.32533208E-02 | 0.36804918E+03 |    1.043
 BASOPT|        4     |       3     | 0.37323061E-02 | 0.12249791E+03 |    0.876
 BASOPT| -----------------------------------------------------------------------
 BASOPT| Total residuum value: -.11124910E+04

 BASOPT| Information at iteration number:     200
 BASOPT| Training set | Combination | Rho difference | Condition num. | Time
 BASOPT| -----------------------------------------------------------------------
 BASOPT|        1     |       1     | 0.10688778E-01 | 0.34163409E+04 |   71.874
 BASOPT|        1     |       2     | 0.11472042E-01 | 0.51539448E+03 |   57.102
 BASOPT|        1     |       3     | 0.11715464E-01 | 0.16821497E+03 |   45.313
 BASOPT|        2     |       1     | 0.15959918E-02 | 0.71231828E+03 |    2.993
 BASOPT|        2     |       2     | 0.23511498E-02 | 0.34896639E+03 |    2.298
 BASOPT|        2     |       3     | 0.23921542E-02 | 0.59444794E+02 |    1.908
 BASOPT|        3     |       1     | 0.24356395E-02 | 0.92617735E+03 |    6.770
 BASOPT|        3     |       2     | 0.47126771E-02 | 0.43330383E+03 |    4.586
 BASOPT|        3     |       3     | 0.56378398E-02 | 0.18052007E+03 |    4.093
 BASOPT|        4     |       1     | 0.17666896E-02 | 0.66004641E+03 |    2.755
 BASOPT|        4     |       2     | 0.32434810E-02 | 0.33527174E+03 |    2.073
 BASOPT|        4     |       3     | 0.37415178E-02 | 0.12215602E+03 |    1.736
 BASOPT| -----------------------------------------------------------------------
 BASOPT| Total residuum value: -.11125027E+04

 BASOPT| Information at iteration number:     300
 BASOPT| Training set | Combination | Rho difference | Condition num. | Time
 BASOPT| -----------------------------------------------------------------------
 BASOPT|        1     |       1     | 0.10665279E-01 | 0.36509214E+04 |  107.598
 BASOPT|        1     |       2     | 0.11447422E-01 | 0.51696629E+03 |   85.440
 BASOPT|        1     |       3     | 0.11695098E-01 | 0.16611159E+03 |   67.829
 BASOPT|        2     |       1     | 0.15979587E-02 | 0.70879061E+03 |    4.478
 BASOPT|        2     |       2     | 0.23595694E-02 | 0.34654884E+03 |    3.437
 BASOPT|        2     |       3     | 0.23887876E-02 | 0.59157123E+02 |    2.851
 BASOPT|        3     |       1     | 0.24450801E-02 | 0.92600202E+03 |   10.130
 BASOPT|        3     |       2     | 0.47290745E-02 | 0.43185277E+03 |    6.863
 BASOPT|        3     |       3     | 0.56407954E-02 | 0.17914567E+03 |    6.124
 BASOPT|        4     |       1     | 0.17741705E-02 | 0.66029142E+03 |    4.113
 BASOPT|        4     |       2     | 0.32492722E-02 | 0.33427557E+03 |    3.102
 BASOPT|        4     |       3     | 0.37359181E-02 | 0.12178988E+03 |    2.596
 BASOPT| -----------------------------------------------------------------------
 BASOPT| Total residuum value: -.11125055E+04

 BASOPT| Information at iteration number:     400
 BASOPT| Training set | Combination | Rho difference | Condition num. | Time
 BASOPT| -----------------------------------------------------------------------
 BASOPT|        1     |       1     | 0.10651706E-01 | 0.37250212E+04 |  143.327
 BASOPT|        1     |       2     | 0.11432047E-01 | 0.50217013E+03 |  113.761
 BASOPT|        1     |       3     | 0.11683323E-01 | 0.16400297E+03 |   90.349
 BASOPT|        2     |       1     | 0.15979372E-02 | 0.70807060E+03 |    5.962
 BASOPT|        2     |       2     | 0.23629969E-02 | 0.34249398E+03 |    4.585
 BASOPT|        2     |       3     | 0.23944052E-02 | 0.58887078E+02 |    3.798
 BASOPT|        3     |       1     | 0.24423963E-02 | 0.92337473E+03 |   13.489
 BASOPT|        3     |       2     | 0.47267414E-02 | 0.42769688E+03 |    9.137
 BASOPT|        3     |       3     | 0.56502773E-02 | 0.17824804E+03 |    8.154
 BASOPT|        4     |       1     | 0.17752004E-02 | 0.65876890E+03 |    5.468
 BASOPT|        4     |       2     | 0.32479989E-02 | 0.33054318E+03 |    4.129
 BASOPT|        4     |       3     | 0.37382042E-02 | 0.12153380E+03 |    3.456
 BASOPT| -----------------------------------------------------------------------
 BASOPT| Total residuum value: -.11125075E+04

 BASOPT| Information at iteration number:     500
 BASOPT| Training set | Combination | Rho difference | Condition num. | Time
 BASOPT| -----------------------------------------------------------------------
 BASOPT|        1     |       1     | 0.10660884E-01 | 0.36606135E+04 |  179.109
 BASOPT|        1     |       2     | 0.11437439E-01 | 0.49121142E+03 |  142.086
 BASOPT|        1     |       3     | 0.11712323E-01 | 0.16189841E+03 |  112.856
 BASOPT|        2     |       1     | 0.15944523E-02 | 0.70896232E+03 |    7.449
 BASOPT|        2     |       2     | 0.23583985E-02 | 0.33819240E+03 |    5.724
 BASOPT|        2     |       3     | 0.23880663E-02 | 0.58584696E+02 |    4.742
 BASOPT|        3     |       1     | 0.24315399E-02 | 0.91918721E+03 |   16.848
 BASOPT|        3     |       2     | 0.47154238E-02 | 0.42236432E+03 |   11.416
 BASOPT|        3     |       3     | 0.56479499E-02 | 0.17621739E+03 |   10.186
 BASOPT|        4     |       1     | 0.17689113E-02 | 0.65596109E+03 |    6.828
 BASOPT|        4     |       2     | 0.32391531E-02 | 0.32581542E+03 |    5.158
 BASOPT|        4     |       3     | 0.37321803E-02 | 0.12117259E+03 |    4.316
 BASOPT| -----------------------------------------------------------------------
 BASOPT| Total residuum value: -.11125095E+04

 BASOPT| Information at iteration number:     600
 BASOPT| Training set | Combination | Rho difference | Condition num. | Time
 BASOPT| -----------------------------------------------------------------------
 BASOPT|        1     |       1     | 0.10648716E-01 | 0.37166372E+04 |  214.934
 BASOPT|        1     |       2     | 0.11419138E-01 | 0.46611161E+03 |  170.798
 BASOPT|        1     |       3     | 0.11709392E-01 | 0.16396016E+03 |  135.364
 BASOPT|        2     |       1     | 0.15941825E-02 | 0.70647516E+03 |    8.932
 BASOPT|        2     |       2     | 0.23601755E-02 | 0.32134135E+03 |    6.864
 BASOPT|        2     |       3     | 0.23881013E-02 | 0.58597017E+02 |    5.686
 BASOPT|        3     |       1     | 0.24372195E-02 | 0.91798305E+03 |   20.207
 BASOPT|        3     |       2     | 0.47187158E-02 | 0.41061572E+03 |   13.689
 BASOPT|        3     |       3     | 0.56419653E-02 | 0.17652671E+03 |   12.216
 BASOPT|        4     |       1     | 0.17703129E-02 | 0.65445197E+03 |    8.190
 BASOPT|        4     |       2     | 0.32362350E-02 | 0.31405726E+03 |    6.187
 BASOPT|        4     |       3     | 0.37238172E-02 | 0.12126243E+03 |    5.175
 BASOPT| -----------------------------------------------------------------------
 BASOPT| Total residuum value: -.11125116E+04

 BASOPT| Information at iteration number:     700
 BASOPT| Training set | Combination | Rho difference | Condition num. | Time
 BASOPT| -----------------------------------------------------------------------
 BASOPT|        1     |       1     | 0.10644610E-01 | 0.36766102E+04 |  250.670
 BASOPT|        1     |       2     | 0.11415768E-01 | 0.45246261E+03 |  199.125
 BASOPT|        1     |       3     | 0.11697019E-01 | 0.16513318E+03 |  157.885
 BASOPT|        2     |       1     | 0.15941623E-02 | 0.70563267E+03 |   10.417
 BASOPT|        2     |       2     | 0.23609333E-02 | 0.31373054E+03 |    8.010
 BASOPT|        2     |       3     | 0.23916413E-02 | 0.58758785E+02 |    6.629
 BASOPT|        3     |       1     | 0.24371323E-02 | 0.91623249E+03 |   23.565
 BASOPT|        3     |       2     | 0.47169913E-02 | 0.40426883E+03 |   15.966
 BASOPT|        3     |       3     | 0.56463594E-02 | 0.17733147E+03 |   14.265
 BASOPT|        4     |       1     | 0.17696949E-02 | 0.65314852E+03 |    9.551
 BASOPT|        4     |       2     | 0.32348538E-02 | 0.30794488E+03 |    7.217
 BASOPT|        4     |       3     | 0.37288202E-02 | 0.12166987E+03 |    6.034
 BASOPT| -----------------------------------------------------------------------
 BASOPT| Total residuum value: -.11125135E+04

 BASOPT| Information at iteration number:     800
 BASOPT| Training set | Combination | Rho difference | Condition num. | Time
 BASOPT| -----------------------------------------------------------------------
 BASOPT|        1     |       1     | 0.10641838E-01 | 0.36530699E+04 |  286.416
 BASOPT|        1     |       2     | 0.11417330E-01 | 0.44347251E+03 |  227.448
 BASOPT|        1     |       3     | 0.11704172E-01 | 0.16618904E+03 |  180.402
 BASOPT|        2     |       1     | 0.15944707E-02 | 0.70514158E+03 |   11.901
 BASOPT|        2     |       2     | 0.23614741E-02 | 0.30852179E+03 |    9.148
 BASOPT|        2     |       3     | 0.23924405E-02 | 0.58917635E+02 |    7.572
 BASOPT|        3     |       1     | 0.24352900E-02 | 0.91553760E+03 |   26.923
 BASOPT|        3     |       2     | 0.47127138E-02 | 0.39986804E+03 |   18.243
 BASOPT|        3     |       3     | 0.56353088E-02 | 0.17773912E+03 |   16.308
 BASOPT|        4     |       1     | 0.17694156E-02 | 0.65261858E+03 |   10.918
 BASOPT|        4     |       2     | 0.32352303E-02 | 0.30373439E+03 |    8.245
 BASOPT|        4     |       3     | 0.37271707E-02 | 0.12174055E+03 |    6.894
 BASOPT| -----------------------------------------------------------------------
 BASOPT| Total residuum value: -.11125146E+04

 BASOPT| Information at iteration number:     900
 BASOPT| Training set | Combination | Rho difference | Condition num. | Time
 BASOPT| -----------------------------------------------------------------------
 BASOPT|        1     |       1     | 0.10634732E-01 | 0.36016532E+04 |  322.270
 BASOPT|        1     |       2     | 0.11418038E-01 | 0.43901304E+03 |  256.011
 BASOPT|        1     |       3     | 0.11715122E-01 | 0.16769819E+03 |  202.922
 BASOPT|        2     |       1     | 0.15933242E-02 | 0.70488101E+03 |   13.389
 BASOPT|        2     |       2     | 0.23605061E-02 | 0.30576876E+03 |   10.293
 BASOPT|        2     |       3     | 0.23915110E-02 | 0.58960805E+02 |    8.516
 BASOPT|        3     |       1     | 0.24326715E-02 | 0.91486666E+03 |   30.281
 BASOPT|        3     |       2     | 0.47070590E-02 | 0.39688848E+03 |   20.524
 BASOPT|        3     |       3     | 0.56175183E-02 | 0.17837947E+03 |   18.336
 BASOPT|        4     |       1     | 0.17676150E-02 | 0.65157191E+03 |   12.285
 BASOPT|        4     |       2     | 0.32339921E-02 | 0.30083660E+03 |    9.269
 BASOPT|        4     |       3     | 0.37228575E-02 | 0.12201052E+03 |    7.754
 BASOPT| -----------------------------------------------------------------------
 BASOPT| Total residuum value: -.11125156E+04

 BASOPT| Information at iteration number:    1000
 BASOPT| Training set | Combination | Rho difference | Condition num. | Time
 BASOPT| -----------------------------------------------------------------------
 BASOPT|        1     |       1     | 0.10634453E-01 | 0.36447827E+04 |  357.998
 BASOPT|        1     |       2     | 0.11423110E-01 | 0.42964885E+03 |  285.452
 BASOPT|        1     |       3     | 0.11717051E-01 | 0.17065912E+03 |  225.442
 BASOPT|        2     |       1     | 0.15905977E-02 | 0.70355891E+03 |   14.875
 BASOPT|        2     |       2     | 0.23571473E-02 | 0.29875466E+03 |   11.433
 BASOPT|        2     |       3     | 0.23879945E-02 | 0.59575670E+02 |    9.458
 BASOPT|        3     |       1     | 0.24323083E-02 | 0.91514802E+03 |   33.636
 BASOPT|        3     |       2     | 0.47043916E-02 | 0.39216994E+03 |   22.807
 BASOPT|        3     |       3     | 0.56130207E-02 | 0.17878131E+03 |   20.368
 BASOPT|        4     |       1     | 0.17662475E-02 | 0.65126252E+03 |   13.652
 BASOPT|        4     |       2     | 0.32314298E-02 | 0.29607652E+03 |   10.293
 BASOPT|        4     |       3     | 0.37178378E-02 | 0.12195420E+03 |    8.615
 BASOPT| -----------------------------------------------------------------------
 BASOPT| Total residuum value: -.11125170E+04

 BASOPT| Information at iteration number:    1100
 BASOPT| Training set | Combination | Rho difference | Condition num. | Time
 BASOPT| -----------------------------------------------------------------------
 BASOPT|        1     |       1     | 0.10619667E-01 | 0.36700650E+04 |  393.813
 BASOPT|        1     |       2     | 0.11411732E-01 | 0.42506370E+03 |  313.834
 BASOPT|        1     |       3     | 0.11706469E-01 | 0.17302646E+03 |  247.958
 BASOPT|        2     |       1     | 0.15900544E-02 | 0.70190877E+03 |   16.364
 BASOPT|        2     |       2     | 0.23583142E-02 | 0.29480892E+03 |   12.574
 BASOPT|        2     |       3     | 0.23893397E-02 | 0.59913021E+02 |   10.402
 BASOPT|        3     |       1     | 0.24361360E-02 | 0.91431530E+03 |   36.996
 BASOPT|        3     |       2     | 0.47087664E-02 | 0.39000363E+03 |   25.088
 BASOPT|        3     |       3     | 0.56123139E-02 | 0.17943374E+03 |   22.404
 BASOPT|        4     |       1     | 0.17680864E-02 | 0.65058988E+03 |   15.016
 BASOPT|        4     |       2     | 0.32325713E-02 | 0.29312239E+03 |   11.322
 BASOPT|        4     |       3     | 0.37169039E-02 | 0.12213758E+03 |    9.478
 BASOPT| -----------------------------------------------------------------------
 BASOPT| Total residuum value: -.11125178E+04

 BASOPT| Information at iteration number:    1200
 BASOPT| Training set | Combination | Rho difference | Condition num. | Time
 BASOPT| -----------------------------------------------------------------------
 BASOPT|        1     |       1     | 0.10607280E-01 | 0.36192723E+04 |  429.523
 BASOPT|        1     |       2     | 0.11406317E-01 | 0.42323504E+03 |  342.157
 BASOPT|        1     |       3     | 0.11708193E-01 | 0.17479745E+03 |  270.477
 BASOPT|        2     |       1     | 0.15876448E-02 | 0.69896665E+03 |   17.849
 BASOPT|        2     |       2     | 0.23586692E-02 | 0.28793325E+03 |   13.729
 BASOPT|        2     |       3     | 0.23901517E-02 | 0.60141397E+02 |   11.346
 BASOPT|        3     |       1     | 0.24281376E-02 | 0.91085905E+03 |   40.356
 BASOPT|        3     |       2     | 0.47004406E-02 | 0.38775017E+03 |   27.366
 BASOPT|        3     |       3     | 0.56062400E-02 | 0.17926865E+03 |   24.441
 BASOPT|        4     |       1     | 0.17663876E-02 | 0.64809433E+03 |   16.375
 BASOPT|        4     |       2     | 0.32298999E-02 | 0.28681753E+03 |   12.351
 BASOPT|        4     |       3     | 0.37159438E-02 | 0.12217453E+03 |   10.340
 BASOPT| -----------------------------------------------------------------------
 BASOPT| Total residuum value: -.11125193E+04

 BASOPT| Information at iteration number:    1300
 BASOPT| Training set | Combination | Rho difference | Condition num. | Time
 BASOPT| -----------------------------------------------------------------------
 BASOPT|        1     |       1     | 0.10616045E-01 | 0.36290210E+04 |  465.361
 BASOPT|        1     |       2     | 0.11419506E-01 | 0.41910059E+03 |  370.486
 BASOPT|        1     |       3     | 0.11728617E-01 | 0.17446902E+03 |  292.996
 BASOPT|        2     |       1     | 0.15852107E-02 | 0.69473921E+03 |   19.335
 BASOPT|        2     |       2     | 0.23552648E-02 | 0.28416267E+03 |   14.865
 BASOPT|        2     |       3     | 0.23862377E-02 | 0.60289446E+02 |   12.291
 BASOPT|        3     |       1     | 0.24260840E-02 | 0.90920944E+03 |   43.714
 BASOPT|        3     |       2     | 0.46982916E-02 | 0.38674288E+03 |   29.642
 BASOPT|        3     |       3     | 0.56056339E-02 | 0.17854483E+03 |   26.488
 BASOPT|        4     |       1     | 0.17659774E-02 | 0.64720164E+03 |   17.737
 BASOPT|        4     |       2     | 0.32288960E-02 | 0.28416511E+03 |   13.381
 BASOPT|        4     |       3     | 0.37140629E-02 | 0.12178818E+03 |   11.201
 BASOPT| -----------------------------------------------------------------------
 BASOPT| Total residuum value: -.11125200E+04

 BASOPT| Information at iteration number:    1400
 BASOPT| Training set | Combination | Rho difference | Condition num. | Time
 BASOPT| -----------------------------------------------------------------------
 BASOPT|        1     |       1     | 0.10620076E-01 | 0.36174829E+04 |  501.184
 BASOPT|        1     |       2     | 0.11427898E-01 | 0.41484769E+03 |  398.835
 BASOPT|        1     |       3     | 0.11749328E-01 | 0.17514393E+03 |  315.506
 BASOPT|        2     |       1     | 0.15821712E-02 | 0.68905187E+03 |   20.823
 BASOPT|        2     |       2     | 0.23513573E-02 | 0.27803064E+03 |   16.001
 BASOPT|        2     |       3     | 0.23836941E-02 | 0.60461666E+02 |   13.235
 BASOPT|        3     |       1     | 0.24252521E-02 | 0.90649347E+03 |   47.072
 BASOPT|        3     |       2     | 0.46977321E-02 | 0.38548336E+03 |   31.920
 BASOPT|        3     |       3     | 0.56057158E-02 | 0.17814526E+03 |   28.529
 BASOPT|        4     |       1     | 0.17661178E-02 | 0.64568453E+03 |   19.108
 BASOPT|        4     |       2     | 0.32279194E-02 | 0.27978168E+03 |   14.408
 BASOPT|        4     |       3     | 0.37123597E-02 | 0.12148106E+03 |   12.063
 BASOPT| -----------------------------------------------------------------------
 BASOPT| Total residuum value: -.11125204E+04

 BASOPT| Information at iteration number:    1500
 BASOPT| Training set | Combination | Rho difference | Condition num. | Time
 BASOPT| -----------------------------------------------------------------------
 BASOPT|        1     |       1     | 0.10603505E-01 | 0.35526587E+04 |  537.050
 BASOPT|        1     |       2     | 0.11411338E-01 | 0.41432463E+03 |  427.199
 BASOPT|        1     |       3     | 0.11720921E-01 | 0.17607332E+03 |  338.021
 BASOPT|        2     |       1     | 0.15829293E-02 | 0.68521119E+03 |   22.312
 BASOPT|        2     |       2     | 0.23549890E-02 | 0.27266992E+03 |   17.136
 BASOPT|        2     |       3     | 0.23877109E-02 | 0.60442973E+02 |   14.179
 BASOPT|        3     |       1     | 0.24255095E-02 | 0.90295915E+03 |   50.432
 BASOPT|        3     |       2     | 0.46999182E-02 | 0.38445875E+03 |   34.198
 BASOPT|        3     |       3     | 0.56109443E-02 | 0.17860219E+03 |   30.563
 BASOPT|        4     |       1     | 0.17683809E-02 | 0.64372917E+03 |   20.478
 BASOPT|        4     |       2     | 0.32298552E-02 | 0.27527608E+03 |   15.432
 BASOPT|        4     |       3     | 0.37195687E-02 | 0.12183768E+03 |   12.923
 BASOPT| -----------------------------------------------------------------------
 BASOPT| Total residuum value: -.11125217E+04

 BASOPT| Information at iteration number:    1600
 BASOPT| Training set | Combination | Rho difference | Condition num. | Time
 BASOPT| -----------------------------------------------------------------------
 BASOPT|        1     |       1     | 0.10593376E-01 | 0.35301945E+04 |  572.813
 BASOPT|        1     |       2     | 0.11396041E-01 | 0.41279133E+03 |  456.464
 BASOPT|        1     |       3     | 0.11713784E-01 | 0.17753888E+03 |  360.532
 BASOPT|        2     |       1     | 0.15827059E-02 | 0.68064644E+03 |   23.802
 BASOPT|        2     |       2     | 0.23576124E-02 | 0.26728393E+03 |   18.275
 BASOPT|        2     |       3     | 0.23893437E-02 | 0.60581178E+02 |   15.125
 BASOPT|        3     |       1     | 0.24284142E-02 | 0.90060930E+03 |   53.791
 BASOPT|        3     |       2     | 0.47060727E-02 | 0.38457773E+03 |   36.478
 BASOPT|        3     |       3     | 0.56139892E-02 | 0.17873873E+03 |   32.601
 BASOPT|        4     |       1     | 0.17711878E-02 | 0.64242934E+03 |   21.845
 BASOPT|        4     |       2     | 0.32303598E-02 | 0.27180511E+03 |   16.466
 BASOPT|        4     |       3     | 0.37176812E-02 | 0.12195538E+03 |   13.786
 BASOPT| -----------------------------------------------------------------------
 BASOPT| Total residuum value: -.11125223E+04

 BASOPT| Information at iteration number:    1700
 BASOPT| Training set | Combination | Rho difference | Condition num. | Time
 BASOPT| -----------------------------------------------------------------------
 BASOPT|        1     |       1     | 0.10565471E-01 | 0.34681605E+04 |  608.610
 BASOPT|        1     |       2     | 0.11371572E-01 | 0.40844574E+03 |  484.803
 BASOPT|        1     |       3     | 0.11690944E-01 | 0.17867469E+03 |  383.058
 BASOPT|        2     |       1     | 0.15843911E-02 | 0.67119658E+03 |   25.289
 BASOPT|        2     |       2     | 0.23638971E-02 | 0.26117249E+03 |   19.411
 BASOPT|        2     |       3     | 0.23955587E-02 | 0.60733022E+02 |   16.071
 BASOPT|        3     |       1     | 0.24292816E-02 | 0.89651174E+03 |   57.147
 BASOPT|        3     |       2     | 0.47072655E-02 | 0.38306197E+03 |   38.758
 BASOPT|        3     |       3     | 0.56160369E-02 | 0.17863720E+03 |   34.639
 BASOPT|        4     |       1     | 0.17773211E-02 | 0.64011518E+03 |   23.207
 BASOPT|        4     |       2     | 0.32354224E-02 | 0.26600722E+03 |   17.497
 BASOPT|        4     |       3     | 0.37246727E-02 | 0.12181756E+03 |   14.646
 BASOPT| -----------------------------------------------------------------------
 BASOPT| Total residuum value: -.11125223E+04

 BASOPT| Information at iteration number:    1800
 BASOPT| Training set | Combination | Rho difference | Condition num. | Time
 BASOPT| -----------------------------------------------------------------------
 BASOPT|        1     |       1     | 0.10595594E-01 | 0.33908335E+04 |  644.372
 BASOPT|        1     |       2     | 0.11407679E-01 | 0.40863511E+03 |  513.146
 BASOPT|        1     |       3     | 0.11732064E-01 | 0.18083537E+03 |  405.575
 BASOPT|        2     |       1     | 0.15777656E-02 | 0.66544325E+03 |   26.770
 BASOPT|        2     |       2     | 0.23532178E-02 | 0.26052632E+03 |   20.552
 BASOPT|        2     |       3     | 0.23865404E-02 | 0.60726081E+02 |   17.013
 BASOPT|        3     |       1     | 0.24222626E-02 | 0.89232194E+03 |   60.501
 BASOPT|        3     |       2     | 0.46972212E-02 | 0.38224195E+03 |   41.034
 BASOPT|        3     |       3     | 0.55959688E-02 | 0.17940458E+03 |   36.672
 BASOPT|        4     |       1     | 0.17728733E-02 | 0.63800839E+03 |   24.567
 BASOPT|        4     |       2     | 0.32284156E-02 | 0.26425385E+03 |   18.524
 BASOPT|        4     |       3     | 0.37143616E-02 | 0.12193973E+03 |   15.506
 BASOPT| -----------------------------------------------------------------------
 BASOPT| Total residuum value: -.11125237E+04

 BASOPT| Information at iteration number:    1900
 BASOPT| Training set | Combination | Rho difference | Condition num. | Time
 BASOPT| -----------------------------------------------------------------------
 BASOPT|        1     |       1     | 0.10576971E-01 | 0.33735920E+04 |  680.111
 BASOPT|        1     |       2     | 0.11388635E-01 | 0.40731958E+03 |  541.498
 BASOPT|        1     |       3     | 0.11704117E-01 | 0.18342225E+03 |  428.090
 BASOPT|        2     |       1     | 0.15790261E-02 | 0.66245796E+03 |   28.253
 BASOPT|        2     |       2     | 0.23561426E-02 | 0.25932999E+03 |   21.690
 BASOPT|        2     |       3     | 0.23907318E-02 | 0.61008924E+02 |   17.958
 BASOPT|        3     |       1     | 0.24283887E-02 | 0.89030246E+03 |   63.858
 BASOPT|        3     |       2     | 0.47046075E-02 | 0.38197515E+03 |   43.310
 BASOPT|        3     |       3     | 0.56019287E-02 | 0.18002389E+03 |   38.717
 BASOPT|        4     |       1     | 0.17773715E-02 | 0.63717135E+03 |   25.921
 BASOPT|        4     |       2     | 0.32326398E-02 | 0.26269638E+03 |   19.553
 BASOPT|        4     |       3     | 0.37182732E-02 | 0.12199653E+03 |   16.367
 BASOPT| -----------------------------------------------------------------------
 BASOPT| Total residuum value: -.11125240E+04

 BASOPT| Information at iteration number:    2000
 BASOPT| Training set | Combination | Rho difference | Condition num. | Time
 BASOPT| -----------------------------------------------------------------------
 BASOPT|        1     |       1     | 0.10590107E-01 | 0.33392723E+04 |  715.879
 BASOPT|        1     |       2     | 0.11405434E-01 | 0.40747899E+03 |  572.296
 BASOPT|        1     |       3     | 0.11731901E-01 | 0.18474167E+03 |  450.607
 BASOPT|        2     |       1     | 0.15769662E-02 | 0.65986080E+03 |   29.739
 BASOPT|        2     |       2     | 0.23516210E-02 | 0.25881889E+03 |   22.831
 BASOPT|        2     |       3     | 0.23866568E-02 | 0.61130207E+02 |   18.901
 BASOPT|        3     |       1     | 0.24263372E-02 | 0.88785694E+03 |   67.214
 BASOPT|        3     |       2     | 0.47016835E-02 | 0.38138447E+03 |   45.592
 BASOPT|        3     |       3     | 0.55923410E-02 | 0.18007474E+03 |   40.749
 BASOPT|        4     |       1     | 0.17764507E-02 | 0.63625710E+03 |   27.285
 BASOPT|        4     |       2     | 0.32316281E-02 | 0.26154475E+03 |   20.583
 BASOPT|        4     |       3     | 0.37142000E-02 | 0.12184033E+03 |   17.232
 BASOPT| -----------------------------------------------------------------------
 BASOPT| Total residuum value: -.11125242E+04

 BASOPT| Information at iteration number:    2100
 BASOPT| Training set | Combination | Rho difference | Condition num. | Time
 BASOPT| -----------------------------------------------------------------------
 BASOPT|        1     |       1     | 0.10582784E-01 | 0.33219405E+04 |  751.597
 BASOPT|        1     |       2     | 0.11399033E-01 | 0.40644737E+03 |  600.645
 BASOPT|        1     |       3     | 0.11715674E-01 | 0.18474897E+03 |  473.131
 BASOPT|        2     |       1     | 0.15776686E-02 | 0.65717895E+03 |   31.225
 BASOPT|        2     |       2     | 0.23531385E-02 | 0.25800039E+03 |   23.970
 BASOPT|        2     |       3     | 0.23884229E-02 | 0.61195519E+02 |   19.848
 BASOPT|        3     |       1     | 0.24257552E-02 | 0.88587925E+03 |   70.575
 BASOPT|        3     |       2     | 0.47007563E-02 | 0.38084846E+03 |   47.871
 BASOPT|        3     |       3     | 0.55969049E-02 | 0.17986187E+03 |   42.783
 BASOPT|        4     |       1     | 0.17779545E-02 | 0.63544578E+03 |   28.653
 BASOPT|        4     |       2     | 0.32328823E-02 | 0.26030116E+03 |   21.612
 BASOPT|        4     |       3     | 0.37184897E-02 | 0.12173262E+03 |   18.094
 BASOPT| -----------------------------------------------------------------------
 BASOPT| Total residuum value: -.11125246E+04

 BASOPT| Information at iteration number:    2200
 BASOPT| Training set | Combination | Rho difference | Condition num. | Time
 BASOPT| -----------------------------------------------------------------------
 BASOPT|        1     |       1     | 0.10580370E-01 | 0.32824774E+04 |  787.321
 BASOPT|        1     |       2     | 0.11394366E-01 | 0.40572143E+03 |  629.075
 BASOPT|        1     |       3     | 0.11719858E-01 | 0.18403649E+03 |  495.660
 BASOPT|        2     |       1     | 0.15770650E-02 | 0.65381540E+03 |   32.713
 BASOPT|        2     |       2     | 0.23528348E-02 | 0.25695309E+03 |   25.108
 BASOPT|        2     |       3     | 0.23871413E-02 | 0.61113825E+02 |   20.796
 BASOPT|        3     |       1     | 0.24269887E-02 | 0.88242062E+03 |   73.940
 BASOPT|        3     |       2     | 0.47028255E-02 | 0.38027564E+03 |   50.150
 BASOPT|        3     |       3     | 0.55977715E-02 | 0.17942474E+03 |   44.812
 BASOPT|        4     |       1     | 0.17791707E-02 | 0.63369471E+03 |   30.016
 BASOPT|        4     |       2     | 0.32328579E-02 | 0.25853119E+03 |   22.643
 BASOPT|        4     |       3     | 0.37178474E-02 | 0.12164450E+03 |   18.955
 BASOPT| -----------------------------------------------------------------------
 BASOPT| Total residuum value: -.11125250E+04

 BASOPT| Information at iteration number:    2300
 BASOPT| Training set | Combination | Rho difference | Condition num. | Time
 BASOPT| -----------------------------------------------------------------------
 BASOPT|        1     |       1     | 0.10584197E-01 | 0.32675607E+04 |  823.037
 BASOPT|        1     |       2     | 0.11401104E-01 | 0.40247915E+03 |  657.426
 BASOPT|        1     |       3     | 0.11727518E-01 | 0.18409612E+03 |  518.181
 BASOPT|        2     |       1     | 0.15759683E-02 | 0.65046162E+03 |   34.195
 BASOPT|        2     |       2     | 0.23510313E-02 | 0.25572631E+03 |   26.243
 BASOPT|        2     |       3     | 0.23861496E-02 | 0.60950030E+02 |   21.744
 BASOPT|        3     |       1     | 0.24251807E-02 | 0.87949669E+03 |   77.296
 BASOPT|        3     |       2     | 0.46986800E-02 | 0.37925845E+03 |   52.427
 BASOPT|        3     |       3     | 0.55913026E-02 | 0.17967951E+03 |   46.838
 BASOPT|        4     |       1     | 0.17788521E-02 | 0.63232323E+03 |   31.385
 BASOPT|        4     |       2     | 0.32314510E-02 | 0.25643311E+03 |   23.670
 BASOPT|        4     |       3     | 0.37165115E-02 | 0.12162288E+03 |   19.817
 BASOPT| -----------------------------------------------------------------------
 BASOPT| Total residuum value: -.11125252E+04

 BASOPT| Information at iteration number:    2400
 BASOPT| Training set | Combination | Rho difference | Condition num. | Time
 BASOPT| -----------------------------------------------------------------------
 BASOPT|        1     |       1     | 0.10574129E-01 | 0.32390046E+04 |  858.757
 BASOPT|        1     |       2     | 0.11386756E-01 | 0.40057689E+03 |  685.771
 BASOPT|        1     |       3     | 0.11702743E-01 | 0.18513693E+03 |  540.699
 BASOPT|        2     |       1     | 0.15762573E-02 | 0.64658003E+03 |   35.681
 BASOPT|        2     |       2     | 0.23536707E-02 | 0.25483710E+03 |   27.378
 BASOPT|        2     |       3     | 0.23911794E-02 | 0.60808278E+02 |   22.689
 BASOPT|        3     |       1     | 0.24300597E-02 | 0.87655055E+03 |   80.657
 BASOPT|        3     |       2     | 0.47047141E-02 | 0.37912674E+03 |   54.703
 BASOPT|        3     |       3     | 0.56003916E-02 | 0.18044931E+03 |   48.866
 BASOPT|        4     |       1     | 0.17821077E-02 | 0.63070523E+03 |   32.746
 BASOPT|        4     |       2     | 0.32324675E-02 | 0.25512547E+03 |   24.700
 BASOPT|        4     |       3     | 0.37209993E-02 | 0.12193603E+03 |   20.678
 BASOPT| -----------------------------------------------------------------------
 BASOPT| Total residuum value: -.11125253E+04

 BASOPT| Information at iteration number:    2500
 BASOPT| Training set | Combination | Rho difference | Condition num. | Time
 BASOPT| -----------------------------------------------------------------------
 BASOPT|        1     |       1     | 0.10576560E-01 | 0.31722827E+04 |  894.520
 BASOPT|        1     |       2     | 0.11390351E-01 | 0.39999323E+03 |  714.188
 BASOPT|        1     |       3     | 0.11718730E-01 | 0.18443469E+03 |  563.230
 BASOPT|        2     |       1     | 0.15750138E-02 | 0.64099917E+03 |   37.165
 BASOPT|        2     |       2     | 0.23519112E-02 | 0.25397097E+03 |   28.513
 BASOPT|        2     |       3     | 0.23886029E-02 | 0.60702811E+02 |   23.635
 BASOPT|        3     |       1     | 0.24284736E-02 | 0.87228058E+03 |   84.019
 BASOPT|        3     |       2     | 0.47024965E-02 | 0.37806767E+03 |   56.981
 BASOPT|        3     |       3     | 0.55957607E-02 | 0.17977209E+03 |   50.901
 BASOPT|        4     |       1     | 0.17829702E-02 | 0.62847106E+03 |   34.117
 BASOPT|        4     |       2     | 0.32319850E-02 | 0.25331957E+03 |   25.726
 BASOPT|        4     |       3     | 0.37186607E-02 | 0.12166181E+03 |   21.537
 BASOPT| -----------------------------------------------------------------------
 BASOPT| Total residuum value: -.11125258E+04

 BASOPT| Information at iteration number:    2600
 BASOPT| Training set | Combination | Rho difference | Condition num. | Time
 BASOPT| -----------------------------------------------------------------------
 BASOPT|        1     |       1     | 0.10572875E-01 | 0.31600530E+04 |  930.224
 BASOPT|        1     |       2     | 0.11383495E-01 | 0.40001946E+03 |  742.610
 BASOPT|        1     |       3     | 0.11708382E-01 | 0.18522938E+03 |  585.755
 BASOPT|        2     |       1     | 0.15748548E-02 | 0.63726539E+03 |   38.650
 BASOPT|        2     |       2     | 0.23528202E-02 | 0.25342454E+03 |   29.650
 BASOPT|        2     |       3     | 0.23886397E-02 | 0.60762666E+02 |   24.583
 BASOPT|        3     |       1     | 0.24299931E-02 | 0.86954311E+03 |   87.379
 BASOPT|        3     |       2     | 0.47052183E-02 | 0.37808466E+03 |   59.263
 BASOPT|        3     |       3     | 0.56008495E-02 | 0.17944650E+03 |   52.933
 BASOPT|        4     |       1     | 0.17852061E-02 | 0.62735712E+03 |   35.490
 BASOPT|        4     |       2     | 0.32324382E-02 | 0.25278188E+03 |   26.753
 BASOPT|        4     |       3     | 0.37189068E-02 | 0.12147147E+03 |   22.398
 BASOPT| -----------------------------------------------------------------------
 BASOPT| Total residuum value: -.11125260E+04

 BASOPT| Information at iteration number:    2700
 BASOPT| Training set | Combination | Rho difference | Condition num. | Time
 BASOPT| -----------------------------------------------------------------------
 BASOPT|        1     |       1     | 0.10579853E-01 | 0.31315563E+04 |  965.940
 BASOPT|        1     |       2     | 0.11391089E-01 | 0.40122079E+03 |  770.950
 BASOPT|        1     |       3     | 0.11730507E-01 | 0.18588323E+03 |  608.276
 BASOPT|        2     |       1     | 0.15750245E-02 | 0.63641450E+03 |   40.136
 BASOPT|        2     |       2     | 0.23526185E-02 | 0.25314912E+03 |   30.786
 BASOPT|        2     |       3     | 0.23862653E-02 | 0.60835991E+02 |   25.527
 BASOPT|        3     |       1     | 0.24286770E-02 | 0.86563062E+03 |   90.738
 BASOPT|        3     |       2     | 0.47048601E-02 | 0.37731926E+03 |   61.540
 BASOPT|        3     |       3     | 0.55924650E-02 | 0.17916549E+03 |   54.968
 BASOPT|        4     |       1     | 0.17857004E-02 | 0.62581430E+03 |   36.851
 BASOPT|        4     |       2     | 0.32333405E-02 | 0.25132481E+03 |   27.781
 BASOPT|        4     |       3     | 0.37175952E-02 | 0.12137186E+03 |   23.257
 BASOPT| -----------------------------------------------------------------------
 BASOPT| Total residuum value: -.11125258E+04

 BASOPT| Information at iteration number:    2800
 BASOPT| Training set | Combination | Rho difference | Condition num. | Time
 BASOPT| -----------------------------------------------------------------------
 BASOPT|        1     |       1     | 0.10580992E-01 | 0.31310173E+04 | 1001.649
 BASOPT|        1     |       2     | 0.11393206E-01 | 0.40134402E+03 |  799.287
 BASOPT|        1     |       3     | 0.11724451E-01 | 0.18745548E+03 |  630.805
 BASOPT|        2     |       1     | 0.15735478E-02 | 0.63497164E+03 |   41.619
 BASOPT|        2     |       2     | 0.23500200E-02 | 0.25254288E+03 |   31.922
 BASOPT|        2     |       3     | 0.23858113E-02 | 0.60903399E+02 |   26.475
 BASOPT|        3     |       1     | 0.24277604E-02 | 0.86288381E+03 |   94.100
 BASOPT|        3     |       2     | 0.47031866E-02 | 0.37681320E+03 |   63.814
 BASOPT|        3     |       3     | 0.55948915E-02 | 0.17938807E+03 |   56.996
 BASOPT|        4     |       1     | 0.17850964E-02 | 0.62469873E+03 |   38.209
 BASOPT|        4     |       2     | 0.32319030E-02 | 0.25012475E+03 |   28.811
 BASOPT|        4     |       3     | 0.37166435E-02 | 0.12126276E+03 |   24.115
 BASOPT| -----------------------------------------------------------------------
 BASOPT| Total residuum value: -.11125266E+04

 BASOPT| Information at iteration number:    2900
 BASOPT| Training set | Combination | Rho difference | Condition num. | Time
 BASOPT| -----------------------------------------------------------------------
 BASOPT|        1     |       1     | 0.10579181E-01 | 0.31017143E+04 | 1037.354
 BASOPT|        1     |       2     | 0.11389650E-01 | 0.40246750E+03 |  827.623
 BASOPT|        1     |       3     | 0.11721557E-01 | 0.18955111E+03 |  653.327
 BASOPT|        2     |       1     | 0.15733484E-02 | 0.63334314E+03 |   43.103
 BASOPT|        2     |       2     | 0.23508993E-02 | 0.25229756E+03 |   33.058
 BASOPT|        2     |       3     | 0.23874700E-02 | 0.60860740E+02 |   27.422
 BASOPT|        3     |       1     | 0.24268380E-02 | 0.86058253E+03 |   97.460
 BASOPT|        3     |       2     | 0.47026831E-02 | 0.37670862E+03 |   66.089
 BASOPT|        3     |       3     | 0.55877362E-02 | 0.18022991E+03 |   59.024
 BASOPT|        4     |       1     | 0.17854322E-02 | 0.62353957E+03 |   39.575
 BASOPT|        4     |       2     | 0.32311060E-02 | 0.24931078E+03 |   29.834
 BASOPT|        4     |       3     | 0.37148883E-02 | 0.12160827E+03 |   24.975
 BASOPT| -----------------------------------------------------------------------
 BASOPT| Total residuum value: -.11125269E+04

 BASOPT| Information at iteration number:    3000
 BASOPT| Training set | Combination | Rho difference | Condition num. | Time
 BASOPT| -----------------------------------------------------------------------
 BASOPT|        1     |       1     | 0.10577091E-01 | 0.30432985E+04 | 1073.140
 BASOPT|        1     |       2     | 0.11385621E-01 | 0.40360826E+03 |  855.969
 BASOPT|        1     |       3     | 0.11719244E-01 | 0.19005182E+03 |  675.852
 BASOPT|        2     |       1     | 0.15726073E-02 | 0.62838472E+03 |   44.586
 BASOPT|        2     |       2     | 0.23509750E-02 | 0.25189526E+03 |   34.198
 BASOPT|        2     |       3     | 0.23873990E-02 | 0.60933743E+02 |   28.371
 BASOPT|        3     |       1     | 0.24260628E-02 | 0.85637886E+03 |  100.818
 BASOPT|        3     |       2     | 0.47026270E-02 | 0.37627561E+03 |   68.366
 BASOPT|        3     |       3     | 0.55901246E-02 | 0.17986927E+03 |   61.057
 BASOPT|        4     |       1     | 0.17872367E-02 | 0.62150196E+03 |   40.938
 BASOPT|        4     |       2     | 0.32309516E-02 | 0.24853510E+03 |   30.860
 BASOPT|        4     |       3     | 0.37149046E-02 | 0.12146326E+03 |   25.836
 BASOPT| -----------------------------------------------------------------------
 BASOPT| Total residuum value: -.11125272E+04

 BASOPT| Information at iteration number:    3100
 BASOPT| Training set | Combination | Rho difference | Condition num. | Time
 BASOPT| -----------------------------------------------------------------------
 BASOPT|        1     |       1     | 0.10580340E-01 | 0.30100265E+04 | 1108.895
 BASOPT|        1     |       2     | 0.11386463E-01 | 0.40489869E+03 |  885.994
 BASOPT|        1     |       3     | 0.11719222E-01 | 0.19044758E+03 |  698.378
 BASOPT|        2     |       1     | 0.15719600E-02 | 0.62565909E+03 |   46.068
 BASOPT|        2     |       2     | 0.23506515E-02 | 0.25178878E+03 |   35.342
 BASOPT|        2     |       3     | 0.23870827E-02 | 0.61022289E+02 |   29.315
 BASOPT|        3     |       1     | 0.24257384E-02 | 0.85336283E+03 |  104.177
 BASOPT|        3     |       2     | 0.47037537E-02 | 0.37623376E+03 |   70.644
 BASOPT|        3     |       3     | 0.55936142E-02 | 0.17973455E+03 |   63.090
 BASOPT|        4     |       1     | 0.17882740E-02 | 0.62028248E+03 |   42.298
 BASOPT|        4     |       2     | 0.32308033E-02 | 0.24838648E+03 |   31.889
 BASOPT|        4     |       3     | 0.37155979E-02 | 0.12142812E+03 |   26.694
 BASOPT| -----------------------------------------------------------------------
 BASOPT| Total residuum value: -.11125274E+04

 BASOPT| Information at iteration number:    3200
 BASOPT| Training set | Combination | Rho difference | Condition num. | Time
 BASOPT| -----------------------------------------------------------------------
 BASOPT|        1     |       1     | 0.10580427E-01 | 0.29846836E+04 | 1144.667
 BASOPT|        1     |       2     | 0.11386479E-01 | 0.40491743E+03 |  914.319
 BASOPT|        1     |       3     | 0.11717380E-01 | 0.19218553E+03 |  720.890
 BASOPT|        2     |       1     | 0.15716780E-02 | 0.62158190E+03 |   47.551
 BASOPT|        2     |       2     | 0.23507350E-02 | 0.25127986E+03 |   36.478
 BASOPT|        2     |       3     | 0.23874320E-02 | 0.61143266E+02 |   30.261
 BASOPT|        3     |       1     | 0.24243930E-02 | 0.84959312E+03 |  107.537
 BASOPT|        3     |       2     | 0.47019054E-02 | 0.37579510E+03 |   72.922
 BASOPT|        3     |       3     | 0.55896654E-02 | 0.17999285E+03 |   65.139
 BASOPT|        4     |       1     | 0.17896499E-02 | 0.61894198E+03 |   43.666
 BASOPT|        4     |       2     | 0.32305987E-02 | 0.24796694E+03 |   32.918
 BASOPT|        4     |       3     | 0.37141179E-02 | 0.12138643E+03 |   27.555
 BASOPT| -----------------------------------------------------------------------
 BASOPT| Total residuum value: -.11125278E+04

 BASOPT| Information at iteration number:    3300
 BASOPT| Training set | Combination | Rho difference | Condition num. | Time
 BASOPT| -----------------------------------------------------------------------
 BASOPT|        1     |       1     | 0.10583312E-01 | 0.29853288E+04 | 1180.436
 BASOPT|        1     |       2     | 0.11386284E-01 | 0.40534795E+03 |  943.289
 BASOPT|        1     |       3     | 0.11717331E-01 | 0.19345162E+03 |  743.411
 BASOPT|        2     |       1     | 0.15709484E-02 | 0.62088318E+03 |   49.032
 BASOPT|        2     |       2     | 0.23500259E-02 | 0.25109837E+03 |   37.624
 BASOPT|        2     |       3     | 0.23865148E-02 | 0.61242639E+02 |   31.204
 BASOPT|        3     |       1     | 0.24252281E-02 | 0.84773954E+03 |  110.895
 BASOPT|        3     |       2     | 0.47039115E-02 | 0.37594595E+03 |   75.196
 BASOPT|        3     |       3     | 0.55897863E-02 | 0.18026292E+03 |   67.171
 BASOPT|        4     |       1     | 0.17898208E-02 | 0.61836076E+03 |   45.029
 BASOPT|        4     |       2     | 0.32298103E-02 | 0.24796182E+03 |   33.944
 BASOPT|        4     |       3     | 0.37124258E-02 | 0.12147313E+03 |   28.413
 BASOPT| -----------------------------------------------------------------------
 BASOPT| Total residuum value: -.11125279E+04

 BASOPT| Information at iteration number:    3400
 BASOPT| Training set | Combination | Rho difference | Condition num. | Time
 BASOPT| -----------------------------------------------------------------------
 BASOPT|        1     |       1     | 0.10593122E-01 | 0.29656225E+04 | 1216.218
 BASOPT|        1     |       2     | 0.11401678E-01 | 0.40474494E+03 |  972.258
 BASOPT|        1     |       3     | 0.11753101E-01 | 0.19294794E+03 |  765.921
 BASOPT|        2     |       1     | 0.15696517E-02 | 0.61954012E+03 |   50.521
 BASOPT|        2     |       2     | 0.23465656E-02 | 0.25086582E+03 |   38.764
 BASOPT|        2     |       3     | 0.23816474E-02 | 0.61137520E+02 |   32.149
 BASOPT|        3     |       1     | 0.24211508E-02 | 0.84513995E+03 |  114.253
 BASOPT|        3     |       2     | 0.46971080E-02 | 0.37485231E+03 |   77.477
 BASOPT|        3     |       3     | 0.55716477E-02 | 0.18003846E+03 |   69.206
 BASOPT|        4     |       1     | 0.17882060E-02 | 0.61734818E+03 |   46.397
 BASOPT|        4     |       2     | 0.32284056E-02 | 0.24705729E+03 |   34.974
 BASOPT|        4     |       3     | 0.37063050E-02 | 0.12130356E+03 |   29.274
 BASOPT| -----------------------------------------------------------------------
 BASOPT| Total residuum value: -.11125279E+04

 BASOPT| Information at iteration number:    3500
 BASOPT| Training set | Combination | Rho difference | Condition num. | Time
 BASOPT| -----------------------------------------------------------------------
 BASOPT|        1     |       1     | 0.10585143E-01 | 0.29660472E+04 | 1251.981
 BASOPT|        1     |       2     | 0.11395974E-01 | 0.40363877E+03 | 1000.569
 BASOPT|        1     |       3     | 0.11725870E-01 | 0.19316336E+03 |  788.442
 BASOPT|        2     |       1     | 0.15700747E-02 | 0.61833630E+03 |   52.006
 BASOPT|        2     |       2     | 0.23465517E-02 | 0.25043613E+03 |   39.908
 BASOPT|        2     |       3     | 0.23839959E-02 | 0.61380021E+02 |   33.096
 BASOPT|        3     |       1     | 0.24228117E-02 | 0.84303106E+03 |  117.608
 BASOPT|        3     |       2     | 0.46985871E-02 | 0.37418802E+03 |   79.756
 BASOPT|        3     |       3     | 0.55839884E-02 | 0.18018688E+03 |   71.235
 BASOPT|        4     |       1     | 0.17895640E-02 | 0.61679634E+03 |   47.766
 BASOPT|        4     |       2     | 0.32303889E-02 | 0.24654457E+03 |   36.005
 BASOPT|        4     |       3     | 0.37140162E-02 | 0.12126175E+03 |   30.136
 BASOPT| -----------------------------------------------------------------------
 BASOPT| Total residuum value: -.11125283E+04

 BASOPT| Information at iteration number:    3600
 BASOPT| Training set | Combination | Rho difference | Condition num. | Time
 BASOPT| -----------------------------------------------------------------------
 BASOPT|        1     |       1     | 0.10575600E-01 | 0.29081029E+04 | 1287.713
 BASOPT|        1     |       2     | 0.11386826E-01 | 0.40241535E+03 | 1028.906
 BASOPT|        1     |       3     | 0.11723143E-01 | 0.19395907E+03 |  810.954
 BASOPT|        2     |       1     | 0.15716079E-02 | 0.61352945E+03 |   53.493
 BASOPT|        2     |       2     | 0.23489792E-02 | 0.24980493E+03 |   41.048
 BASOPT|        2     |       3     | 0.23857433E-02 | 0.61505689E+02 |   34.042
 BASOPT|        3     |       1     | 0.24269426E-02 | 0.83870375E+03 |  120.965
 BASOPT|        3     |       2     | 0.47043374E-02 | 0.37319020E+03 |   82.036
 BASOPT|        3     |       3     | 0.55807130E-02 | 0.18040585E+03 |   73.271
 BASOPT|        4     |       1     | 0.17939301E-02 | 0.61502546E+03 |   49.137
 BASOPT|        4     |       2     | 0.32349985E-02 | 0.24584167E+03 |   37.035
 BASOPT|        4     |       3     | 0.37163994E-02 | 0.12134733E+03 |   30.997
 BASOPT| -----------------------------------------------------------------------
 BASOPT| Total residuum value: -.11125285E+04

 BASOPT| Information at iteration number:    3700
 BASOPT| Training set | Combination | Rho difference | Condition num. | Time
 BASOPT| -----------------------------------------------------------------------
 BASOPT|        1     |       1     | 0.10580925E-01 | 0.28731706E+04 | 1323.473
 BASOPT|        1     |       2     | 0.11396095E-01 | 0.40163193E+03 | 1057.217
 BASOPT|        1     |       3     | 0.11745869E-01 | 0.19472108E+03 |  833.476
 BASOPT|        2     |       1     | 0.15705176E-02 | 0.61055677E+03 |   54.976
 BASOPT|        2     |       2     | 0.23465144E-02 | 0.24945365E+03 |   42.187
 BASOPT|        2     |       3     | 0.23826345E-02 | 0.61587351E+02 |   34.985
 BASOPT|        3     |       1     | 0.24233962E-02 | 0.83653103E+03 |  124.321
 BASOPT|        3     |       2     | 0.46989676E-02 | 0.37236537E+03 |   84.316
 BASOPT|        3     |       3     | 0.55655781E-02 | 0.18059960E+03 |   75.299
 BASOPT|        4     |       1     | 0.17929115E-02 | 0.61408521E+03 |   50.504
 BASOPT|        4     |       2     | 0.32337129E-02 | 0.24527725E+03 |   38.062
 BASOPT|        4     |       3     | 0.37125185E-02 | 0.12140691E+03 |   31.859
 BASOPT| -----------------------------------------------------------------------
 BASOPT| Total residuum value: -.11125284E+04

 BASOPT| Information at iteration number:    3800
 BASOPT| Training set | Combination | Rho difference | Condition num. | Time
 BASOPT| -----------------------------------------------------------------------
 BASOPT|        1     |       1     | 0.10586941E-01 | 0.28458835E+04 | 1359.212
 BASOPT|        1     |       2     | 0.11398630E-01 | 0.40062370E+03 | 1085.540
 BASOPT|        1     |       3     | 0.11735624E-01 | 0.19734453E+03 |  855.987
 BASOPT|        2     |       1     | 0.15695868E-02 | 0.60669035E+03 |   56.459
 BASOPT|        2     |       2     | 0.23453917E-02 | 0.24873726E+03 |   43.331
 BASOPT|        2     |       3     | 0.23841622E-02 | 0.61719587E+02 |   35.928
 BASOPT|        3     |       1     | 0.24258464E-02 | 0.83274545E+03 |  127.677
 BASOPT|        3     |       2     | 0.47033562E-02 | 0.37218396E+03 |   86.596
 BASOPT|        3     |       3     | 0.55715582E-02 | 0.18163184E+03 |   77.328
 BASOPT|        4     |       1     | 0.17945254E-02 | 0.61269615E+03 |   51.870
 BASOPT|        4     |       2     | 0.32338591E-02 | 0.24468447E+03 |   39.091
 BASOPT|        4     |       3     | 0.37135639E-02 | 0.12167071E+03 |   32.719
 BASOPT| -----------------------------------------------------------------------
 BASOPT| Total residuum value: -.11125291E+04

 BASOPT| Information at iteration number:    3900
 BASOPT| Training set | Combination | Rho difference | Condition num. | Time
 BASOPT| -----------------------------------------------------------------------
 BASOPT|        1     |       1     | 0.10574213E-01 | 0.28098586E+04 | 1394.948
 BASOPT|        1     |       2     | 0.11383433E-01 | 0.39972899E+03 | 1113.871
 BASOPT|        1     |       3     | 0.11699332E-01 | 0.19619184E+03 |  878.511
 BASOPT|        2     |       1     | 0.15695517E-02 | 0.60120970E+03 |   57.946
 BASOPT|        2     |       2     | 0.23458794E-02 | 0.24737450E+03 |   44.469
 BASOPT|        2     |       3     | 0.23908485E-02 | 0.61990021E+02 |   36.872
 BASOPT|        3     |       1     | 0.24263444E-02 | 0.82914240E+03 |  131.034
 BASOPT|        3     |       2     | 0.47052862E-02 | 0.37091495E+03 |   88.875
 BASOPT|        3     |       3     | 0.56039770E-02 | 0.18123941E+03 |   79.356
 BASOPT|        4     |       1     | 0.17965497E-02 | 0.61015474E+03 |   53.235
 BASOPT|        4     |       2     | 0.32346758E-02 | 0.24264637E+03 |   40.122
 BASOPT|        4     |       3     | 0.37291278E-02 | 0.12152169E+03 |   33.580
 BASOPT| -----------------------------------------------------------------------
 BASOPT| Total residuum value: -.11125283E+04

 BASOPT| Information at iteration number:    4000
 BASOPT| Training set | Combination | Rho difference | Condition num. | Time
 BASOPT| -----------------------------------------------------------------------
 BASOPT|        1     |       1     | 0.10585464E-01 | 0.27680317E+04 | 1430.682
 BASOPT|        1     |       2     | 0.11384020E-01 | 0.40039575E+03 | 1142.192
 BASOPT|        1     |       3     | 0.11723916E-01 | 0.19942674E+03 |  901.034
 BASOPT|        2     |       1     | 0.15688459E-02 | 0.59782308E+03 |   59.430
 BASOPT|        2     |       2     | 0.23472670E-02 | 0.24670307E+03 |   45.604
 BASOPT|        2     |       3     | 0.23863288E-02 | 0.61954120E+02 |   37.817
 BASOPT|        3     |       1     | 0.24246232E-02 | 0.82662000E+03 |  134.390
 BASOPT|        3     |       2     | 0.47070681E-02 | 0.37118202E+03 |   91.155
 BASOPT|        3     |       3     | 0.55775567E-02 | 0.18203199E+03 |   81.383
 BASOPT|        4     |       1     | 0.17965768E-02 | 0.60828088E+03 |   54.596
 BASOPT|        4     |       2     | 0.32316233E-02 | 0.24210112E+03 |   41.148
 BASOPT|        4     |       3     | 0.37121204E-02 | 0.12199767E+03 |   34.440
 BASOPT| -----------------------------------------------------------------------
 BASOPT| Total residuum value: -.11125299E+04

 BASOPT| Information at iteration number:    4100
 BASOPT| Training set | Combination | Rho difference | Condition num. | Time
 BASOPT| -----------------------------------------------------------------------
 BASOPT|        1     |       1     | 0.10578119E-01 | 0.27256613E+04 | 1466.399
 BASOPT|        1     |       2     | 0.11367649E-01 | 0.40134729E+03 | 1170.598
 BASOPT|        1     |       3     | 0.11704503E-01 | 0.19998630E+03 |  923.560
 BASOPT|        2     |       1     | 0.15692889E-02 | 0.59354758E+03 |   60.914
 BASOPT|        2     |       2     | 0.23504397E-02 | 0.24589337E+03 |   46.743
 BASOPT|        2     |       3     | 0.23898108E-02 | 0.62074978E+02 |   38.762
 BASOPT|        3     |       1     | 0.24253675E-02 | 0.82411720E+03 |  137.747
 BASOPT|        3     |       2     | 0.47113437E-02 | 0.37119801E+03 |   93.434
 BASOPT|        3     |       3     | 0.55881905E-02 | 0.18203739E+03 |   83.412
 BASOPT|        4     |       1     | 0.17987241E-02 | 0.60642970E+03 |   55.959
 BASOPT|        4     |       2     | 0.32313610E-02 | 0.24129739E+03 |   42.173
 BASOPT|        4     |       3     | 0.37141165E-02 | 0.12217417E+03 |   35.299
 BASOPT| -----------------------------------------------------------------------
 BASOPT| Total residuum value: -.11125301E+04

 BASOPT| Information at iteration number:    4200
 BASOPT| Training set | Combination | Rho difference | Condition num. | Time
 BASOPT| -----------------------------------------------------------------------
 BASOPT|        1     |       1     | 0.10566776E-01 | 0.26804398E+04 | 1502.270
 BASOPT|        1     |       2     | 0.11354031E-01 | 0.40049717E+03 | 1198.920
 BASOPT|        1     |       3     | 0.11710350E-01 | 0.20155464E+03 |  946.079
 BASOPT|        2     |       1     | 0.15714421E-02 | 0.58931221E+03 |   62.402
 BASOPT|        2     |       2     | 0.23552200E-02 | 0.24549789E+03 |   47.880
 BASOPT|        2     |       3     | 0.23936700E-02 | 0.62064193E+02 |   39.707
 BASOPT|        3     |       1     | 0.24296017E-02 | 0.82252740E+03 |  141.104
 BASOPT|        3     |       2     | 0.47173248E-02 | 0.37088614E+03 |   95.719
 BASOPT|        3     |       3     | 0.55812404E-02 | 0.18227744E+03 |   85.439
 BASOPT|        4     |       1     | 0.18034849E-02 | 0.60520734E+03 |   57.334
 BASOPT|        4     |       2     | 0.32352446E-02 | 0.24102114E+03 |   43.200
 BASOPT|        4     |       3     | 0.37145402E-02 | 0.12232559E+03 |   36.161
 BASOPT| -----------------------------------------------------------------------
 BASOPT| Total residuum value: -.11125290E+04

 BASOPT| Information at iteration number:    4300
 BASOPT| Training set | Combination | Rho difference | Condition num. | Time
 BASOPT| -----------------------------------------------------------------------
 BASOPT|        1     |       1     | 0.10576725E-01 | 0.26376286E+04 | 1538.008
 BASOPT|        1     |       2     | 0.11373490E-01 | 0.39734366E+03 | 1227.245
 BASOPT|        1     |       3     | 0.11717359E-01 | 0.20108353E+03 |  968.601
 BASOPT|        2     |       1     | 0.15686557E-02 | 0.58432800E+03 |   63.886
 BASOPT|        2     |       2     | 0.23484405E-02 | 0.24484040E+03 |   49.015
 BASOPT|        2     |       3     | 0.23883853E-02 | 0.61955981E+02 |   40.650
 BASOPT|        3     |       1     | 0.24282040E-02 | 0.81969739E+03 |  144.461
 BASOPT|        3     |       2     | 0.47112395E-02 | 0.36885867E+03 |   97.995
 BASOPT|        3     |       3     | 0.55776288E-02 | 0.18226713E+03 |   87.487
 BASOPT|        4     |       1     | 0.18031550E-02 | 0.60297831E+03 |   58.696
 BASOPT|        4     |       2     | 0.32342494E-02 | 0.23942925E+03 |   44.226
 BASOPT|        4     |       3     | 0.37135931E-02 | 0.12197843E+03 |   37.020
 BASOPT| -----------------------------------------------------------------------
 BASOPT| Total residuum value: -.11125306E+04

 BASOPT| Information at iteration number:    4400
 BASOPT| Training set | Combination | Rho difference | Condition num. | Time
 BASOPT| -----------------------------------------------------------------------
 BASOPT|        1     |       1     | 0.10582868E-01 | 0.25747803E+04 | 1573.804
 BASOPT|        1     |       2     | 0.11379289E-01 | 0.39456400E+03 | 1255.569
 BASOPT|        1     |       3     | 0.11718758E-01 | 0.20101686E+03 |  991.115
 BASOPT|        2     |       1     | 0.15671545E-02 | 0.57826161E+03 |   65.368
 BASOPT|        2     |       2     | 0.23466338E-02 | 0.24425285E+03 |   50.153
 BASOPT|        2     |       3     | 0.23876867E-02 | 0.62075716E+02 |   41.591
 BASOPT|        3     |       1     | 0.24273054E-02 | 0.81679320E+03 |  147.817
 BASOPT|        3     |       2     | 0.47095935E-02 | 0.36797006E+03 |  100.274
 BASOPT|        3     |       3     | 0.55772037E-02 | 0.18268131E+03 |   89.517
 BASOPT|        4     |       1     | 0.18042473E-02 | 0.60086293E+03 |   60.057
 BASOPT|        4     |       2     | 0.32328475E-02 | 0.23929266E+03 |   45.253
 BASOPT|        4     |       3     | 0.37137073E-02 | 0.12214167E+03 |   37.881
 BASOPT| -----------------------------------------------------------------------
 BASOPT| Total residuum value: -.11125309E+04

 BASOPT| Information at iteration number:    4500
 BASOPT| Training set | Combination | Rho difference | Condition num. | Time
 BASOPT| -----------------------------------------------------------------------
 BASOPT|        1     |       1     | 0.10588560E-01 | 0.25117703E+04 | 1609.646
 BASOPT|        1     |       2     | 0.11381697E-01 | 0.39255471E+03 | 1283.897
 BASOPT|        1     |       3     | 0.11728495E-01 | 0.19797184E+03 | 1013.632
 BASOPT|        2     |       1     | 0.15660673E-02 | 0.57333192E+03 |   66.852
 BASOPT|        2     |       2     | 0.23462333E-02 | 0.24379945E+03 |   51.293
 BASOPT|        2     |       3     | 0.23852066E-02 | 0.62044461E+02 |   42.537
 BASOPT|        3     |       1     | 0.24259658E-02 | 0.81316532E+03 |  151.175
 BASOPT|        3     |       2     | 0.47084644E-02 | 0.36710908E+03 |  102.555
 BASOPT|        3     |       3     | 0.55778431E-02 | 0.18191206E+03 |   91.550
 BASOPT|        4     |       1     | 0.18052269E-02 | 0.59835705E+03 |   61.422
 BASOPT|        4     |       2     | 0.32310688E-02 | 0.23896087E+03 |   46.284
 BASOPT|        4     |       3     | 0.37114379E-02 | 0.12200540E+03 |   38.742
 BASOPT| -----------------------------------------------------------------------
 BASOPT| Total residuum value: -.11125312E+04

 BASOPT| Information at iteration number:    4600
 BASOPT| Training set | Combination | Rho difference | Condition num. | Time
 BASOPT| -----------------------------------------------------------------------
 BASOPT|        1     |       1     | 0.10593691E-01 | 0.24586189E+04 | 1645.452
 BASOPT|        1     |       2     | 0.11385614E-01 | 0.38783961E+03 | 1312.219
 BASOPT|        1     |       3     | 0.11731514E-01 | 0.19541555E+03 | 1036.144
 BASOPT|        2     |       1     | 0.15655938E-02 | 0.56838562E+03 |   68.337
 BASOPT|        2     |       2     | 0.23463599E-02 | 0.24302468E+03 |   52.434
 BASOPT|        2     |       3     | 0.23853990E-02 | 0.61945922E+02 |   43.481
 BASOPT|        3     |       1     | 0.24284009E-02 | 0.80928308E+03 |  154.536
 BASOPT|        3     |       2     | 0.47108328E-02 | 0.36573094E+03 |  104.840
 BASOPT|        3     |       3     | 0.55832435E-02 | 0.18180475E+03 |   93.577
 BASOPT|        4     |       1     | 0.18081484E-02 | 0.59532923E+03 |   62.784
 BASOPT|        4     |       2     | 0.32315266E-02 | 0.23779687E+03 |   47.310
 BASOPT|        4     |       3     | 0.37128891E-02 | 0.12193978E+03 |   39.603
 BASOPT| -----------------------------------------------------------------------
 BASOPT| Total residuum value: -.11125316E+04

 BASOPT| Information at iteration number:    4700
 BASOPT| Training set | Combination | Rho difference | Condition num. | Time
 BASOPT| -----------------------------------------------------------------------
 BASOPT|        1     |       1     | 0.10577164E-01 | 0.24211163E+04 | 1681.245
 BASOPT|        1     |       2     | 0.11366670E-01 | 0.38494809E+03 | 1340.542
 BASOPT|        1     |       3     | 0.11709980E-01 | 0.19461756E+03 | 1058.663
 BASOPT|        2     |       1     | 0.15660472E-02 | 0.56396931E+03 |   69.821
 BASOPT|        2     |       2     | 0.23490772E-02 | 0.24230709E+03 |   53.571
 BASOPT|        2     |       3     | 0.23883196E-02 | 0.61867936E+02 |   44.426
 BASOPT|        3     |       1     | 0.24309645E-02 | 0.80544247E+03 |  157.894
 BASOPT|        3     |       2     | 0.47124648E-02 | 0.36475645E+03 |  107.119
 BASOPT|        3     |       3     | 0.55877464E-02 | 0.18173036E+03 |   95.615
 BASOPT|        4     |       1     | 0.18113497E-02 | 0.59303132E+03 |   64.149
 BASOPT|        4     |       2     | 0.32318853E-02 | 0.23703739E+03 |   48.337
 BASOPT|        4     |       3     | 0.37133434E-02 | 0.12189899E+03 |   40.464
 BASOPT| -----------------------------------------------------------------------
 BASOPT| Total residuum value: -.11125320E+04

 BASOPT| Information at iteration number:    4800
 BASOPT| Training set | Combination | Rho difference | Condition num. | Time
 BASOPT| -----------------------------------------------------------------------
 BASOPT|        1     |       1     | 0.10585283E-01 | 0.24127441E+04 | 1717.020
 BASOPT|        1     |       2     | 0.11376326E-01 | 0.38247666E+03 | 1368.867
 BASOPT|        1     |       3     | 0.11718782E-01 | 0.19477734E+03 | 1081.177
 BASOPT|        2     |       1     | 0.15653880E-02 | 0.56291592E+03 |   71.305
 BASOPT|        2     |       2     | 0.23479201E-02 | 0.24191345E+03 |   54.696
 BASOPT|        2     |       3     | 0.23875190E-02 | 0.61755031E+02 |   45.369
 BASOPT|        3     |       1     | 0.24310203E-02 | 0.80309079E+03 |  161.250
 BASOPT|        3     |       2     | 0.47115905E-02 | 0.36376375E+03 |  109.399
 BASOPT|        3     |       3     | 0.55837135E-02 | 0.18211656E+03 |   97.666
 BASOPT|        4     |       1     | 0.18113660E-02 | 0.59156888E+03 |   65.517
 BASOPT|        4     |       2     | 0.32311015E-02 | 0.23656743E+03 |   49.365
 BASOPT|        4     |       3     | 0.37119544E-02 | 0.12197161E+03 |   41.325
 BASOPT| -----------------------------------------------------------------------
 BASOPT| Total residuum value: -.11125322E+04

 BASOPT| Information at iteration number:    4900
 BASOPT| Training set | Combination | Rho difference | Condition num. | Time
 BASOPT| -----------------------------------------------------------------------
 BASOPT|        1     |       1     | 0.10578287E-01 | 0.23934972E+04 | 1752.875
 BASOPT|        1     |       2     | 0.11370850E-01 | 0.38015605E+03 | 1397.184
 BASOPT|        1     |       3     | 0.11711385E-01 | 0.19447610E+03 | 1103.688
 BASOPT|        2     |       1     | 0.15662090E-02 | 0.56130187E+03 |   72.790
 BASOPT|        2     |       2     | 0.23491780E-02 | 0.24148739E+03 |   55.818
 BASOPT|        2     |       3     | 0.23894053E-02 | 0.61771630E+02 |   46.313
 BASOPT|        3     |       1     | 0.24353033E-02 | 0.80078917E+03 |  164.607
 BASOPT|        3     |       2     | 0.47161487E-02 | 0.36258237E+03 |  111.680
 BASOPT|        3     |       3     | 0.55872523E-02 | 0.18225233E+03 |   99.721
 BASOPT|        4     |       1     | 0.18145752E-02 | 0.58984831E+03 |   66.881
 BASOPT|        4     |       2     | 0.32343158E-02 | 0.23595634E+03 |   50.394
 BASOPT|        4     |       3     | 0.37148539E-02 | 0.12191052E+03 |   42.187
 BASOPT| -----------------------------------------------------------------------
 BASOPT| Total residuum value: -.11125324E+04

 BASOPT| Information at iteration number:    5000
 BASOPT| Training set | Combination | Rho difference | Condition num. | Time
 BASOPT| -----------------------------------------------------------------------
 BASOPT|        1     |       1     | 0.10584278E-01 | 0.23768082E+04 | 1788.631
 BASOPT|        1     |       2     | 0.11391431E-01 | 0.37634727E+03 | 1425.492
 BASOPT|        1     |       3     | 0.11735017E-01 | 0.19381746E+03 | 1126.205
 BASOPT|        2     |       1     | 0.15655664E-02 | 0.55983447E+03 |   74.273
 BASOPT|        2     |       2     | 0.23447716E-02 | 0.24089257E+03 |   56.939
 BASOPT|        2     |       3     | 0.23849663E-02 | 0.61963031E+02 |   47.255
 BASOPT|        3     |       1     | 0.24335313E-02 | 0.79820598E+03 |  167.962
 BASOPT|        3     |       2     | 0.47111265E-02 | 0.35970248E+03 |  113.964
 BASOPT|        3     |       3     | 0.55748412E-02 | 0.18227250E+03 |  101.772
 BASOPT|        4     |       1     | 0.18148079E-02 | 0.58744650E+03 |   68.249
 BASOPT|        4     |       2     | 0.32367707E-02 | 0.23456334E+03 |   51.419
 BASOPT|        4     |       3     | 0.37159018E-02 | 0.12163861E+03 |   43.050
 BASOPT| -----------------------------------------------------------------------
 BASOPT| Total residuum value: -.11125329E+04

 BASOPT| Information at iteration number:    5100
 BASOPT| Training set | Combination | Rho difference | Condition num. | Time
 BASOPT| -----------------------------------------------------------------------
 BASOPT|        1     |       1     | 0.10577420E-01 | 0.23376971E+04 | 1824.388
 BASOPT|        1     |       2     | 0.11373239E-01 | 0.37618999E+03 | 1453.811
 BASOPT|        1     |       3     | 0.11716594E-01 | 0.19478161E+03 | 1148.723
 BASOPT|        2     |       1     | 0.15654072E-02 | 0.55548110E+03 |   75.756
 BASOPT|        2     |       2     | 0.23472695E-02 | 0.24039615E+03 |   58.064
 BASOPT|        2     |       3     | 0.23879469E-02 | 0.62010111E+02 |   48.199
 BASOPT|        3     |       1     | 0.24368815E-02 | 0.79626471E+03 |  171.318
 BASOPT|        3     |       2     | 0.47183606E-02 | 0.36012233E+03 |  116.242
 BASOPT|        3     |       3     | 0.55808399E-02 | 0.18292599E+03 |  103.831
 BASOPT|        4     |       1     | 0.18179542E-02 | 0.58575628E+03 |   69.610
 BASOPT|        4     |       2     | 0.32367370E-02 | 0.23460489E+03 |   52.448
 BASOPT|        4     |       3     | 0.37154515E-02 | 0.12200210E+03 |   43.912
 BASOPT| -----------------------------------------------------------------------
 BASOPT| Total residuum value: -.11125332E+04

 BASOPT| Information at iteration number:    5200
 BASOPT| Training set | Combination | Rho difference | Condition num. | Time
 BASOPT| -----------------------------------------------------------------------
 BASOPT|        1     |       1     | 0.10590459E-01 | 0.22966633E+04 | 1860.240
 BASOPT|        1     |       2     | 0.11377852E-01 | 0.37475740E+03 | 1482.132
 BASOPT|        1     |       3     | 0.11731996E-01 | 0.19553723E+03 | 1171.249
 BASOPT|        2     |       1     | 0.15640069E-02 | 0.55006841E+03 |   77.239
 BASOPT|        2     |       2     | 0.23467566E-02 | 0.23982643E+03 |   59.186
 BASOPT|        2     |       3     | 0.23865000E-02 | 0.62145093E+02 |   49.142
 BASOPT|        3     |       1     | 0.24342535E-02 | 0.79534202E+03 |  174.673
 BASOPT|        3     |       2     | 0.47174020E-02 | 0.36065389E+03 |  118.524
 BASOPT|        3     |       3     | 0.55736950E-02 | 0.18354012E+03 |  105.884
 BASOPT|        4     |       1     | 0.18182937E-02 | 0.58465272E+03 |   70.974
 BASOPT|        4     |       2     | 0.32330983E-02 | 0.23501194E+03 |   53.475
 BASOPT|        4     |       3     | 0.37080816E-02 | 0.12229395E+03 |   44.773
 BASOPT| -----------------------------------------------------------------------
 BASOPT| Total residuum value: -.11125333E+04

 BASOPT| Information at iteration number:    5300
 BASOPT| Training set | Combination | Rho difference | Condition num. | Time
 BASOPT| -----------------------------------------------------------------------
 BASOPT|        1     |       1     | 0.10589503E-01 | 0.22809333E+04 | 1896.208
 BASOPT|        1     |       2     | 0.11375764E-01 | 0.37392398E+03 | 1510.452
 BASOPT|        1     |       3     | 0.11714283E-01 | 0.19430335E+03 | 1193.774
 BASOPT|        2     |       1     | 0.15637587E-02 | 0.54856057E+03 |   78.723
 BASOPT|        2     |       2     | 0.23466614E-02 | 0.23957132E+03 |   60.307
 BASOPT|        2     |       3     | 0.23877565E-02 | 0.62128422E+02 |   50.091
 BASOPT|        3     |       1     | 0.24351585E-02 | 0.79412932E+03 |  178.027
 BASOPT|        3     |       2     | 0.47186772E-02 | 0.36020271E+03 |  120.803
 BASOPT|        3     |       3     | 0.55861717E-02 | 0.18342860E+03 |  107.923
 BASOPT|        4     |       1     | 0.18192776E-02 | 0.58354164E+03 |   72.340
 BASOPT|        4     |       2     | 0.32333794E-02 | 0.23461850E+03 |   54.501
 BASOPT|        4     |       3     | 0.37143836E-02 | 0.12230017E+03 |   45.637
 BASOPT| -----------------------------------------------------------------------
 BASOPT| Total residuum value: -.11125335E+04

 BASOPT| Information at iteration number:    5400
 BASOPT| Training set | Combination | Rho difference | Condition num. | Time
 BASOPT| -----------------------------------------------------------------------
 BASOPT|        1     |       1     | 0.10580225E-01 | 0.22641289E+04 | 1932.141
 BASOPT|        1     |       2     | 0.11364632E-01 | 0.37190981E+03 | 1538.871
 BASOPT|        1     |       3     | 0.11709187E-01 | 0.19368604E+03 | 1216.293
 BASOPT|        2     |       1     | 0.15648525E-02 | 0.54579213E+03 |   80.210
 BASOPT|        2     |       2     | 0.23491946E-02 | 0.23913459E+03 |   61.428
 BASOPT|        2     |       3     | 0.23899977E-02 | 0.62063263E+02 |   51.043
 BASOPT|        3     |       1     | 0.24382978E-02 | 0.79329138E+03 |  181.386
 BASOPT|        3     |       2     | 0.47231415E-02 | 0.35996479E+03 |  123.092
 BASOPT|        3     |       3     | 0.55849483E-02 | 0.18368928E+03 |  109.953
 BASOPT|        4     |       1     | 0.18222717E-02 | 0.58283405E+03 |   73.704
 BASOPT|        4     |       2     | 0.32356065E-02 | 0.23472584E+03 |   55.530
[...]
 BASOPT|        1     |       3     | 0.11761870E-01 | 0.15072146E+03 | 1904.268
 BASOPT|        2     |       1     | 0.14948328E-02 | 0.37603179E+03 |  110.257
 BASOPT|        2     |       2     | 0.22235501E-02 | 0.21062864E+03 |   89.588
 BASOPT|        2     |       3     | 0.23764110E-02 | 0.53824253E+02 |   73.530
 BASOPT|        3     |       1     | 0.23108596E-02 | 0.79160698E+03 |  257.000
 BASOPT|        3     |       2     | 0.45329347E-02 | 0.37324641E+03 |  174.438
 BASOPT|        3     |       3     | 0.55518961E-02 | 0.20414789E+03 |  154.713
 BASOPT|        4     |       1     | 0.18291594E-02 | 0.54993277E+03 |   98.028
 BASOPT|        4     |       2     | 0.31363606E-02 | 0.21223156E+03 |   83.698
 BASOPT|        4     |       3     | 0.37062512E-02 | 0.12946951E+03 |   69.166
 BASOPT| -----------------------------------------------------------------------
 BASOPT| Total residuum value: -.11125877E+04

 BASOPT| Information at iteration number:    8200
 BASOPT| Training set | Combination | Rho difference | Condition num. | Time
 BASOPT| -----------------------------------------------------------------------
 BASOPT|        1     |       1     | 0.10178914E-01 | 0.11409586E+04 | 2999.664
 BASOPT|        1     |       2     | 0.11038874E-01 | 0.27541026E+03 | 2221.825
 BASOPT|        1     |       3     | 0.11761882E-01 | 0.15071835E+03 | 1925.711
 BASOPT|        2     |       1     | 0.14948278E-02 | 0.37603411E+03 |  111.616
 BASOPT|        2     |       2     | 0.22235317E-02 | 0.21062861E+03 |   90.688
 BASOPT|        2     |       3     | 0.23764128E-02 | 0.53824344E+02 |   74.436
 BASOPT|        3     |       1     | 0.23108537E-02 | 0.79160954E+03 |  260.228
 BASOPT|        3     |       2     | 0.45329080E-02 | 0.37324323E+03 |  176.591
 BASOPT|        3     |       3     | 0.55518393E-02 | 0.20414284E+03 |  156.633
 BASOPT|        4     |       1     | 0.18291559E-02 | 0.54993481E+03 |   99.238
 BASOPT|        4     |       2     | 0.31363595E-02 | 0.21222891E+03 |   84.746
 BASOPT|        4     |       3     | 0.37062452E-02 | 0.12946758E+03 |   70.021
 BASOPT| -----------------------------------------------------------------------
 BASOPT| Total residuum value: -.11125877E+04

 BASOPT| Information at iteration number:    8300
 BASOPT| Training set | Combination | Rho difference | Condition num. | Time
 BASOPT| -----------------------------------------------------------------------
 BASOPT|        1     |       1     | 0.10178954E-01 | 0.11409596E+04 | 3034.281
 BASOPT|        1     |       2     | 0.11038904E-01 | 0.27541006E+03 | 2248.926
 BASOPT|        1     |       3     | 0.11761762E-01 | 0.15071899E+03 | 1947.157
 BASOPT|        2     |       1     | 0.14948209E-02 | 0.37603507E+03 |  112.976
 BASOPT|        2     |       2     | 0.22235211E-02 | 0.21062868E+03 |   91.788
 BASOPT|        2     |       3     | 0.23764315E-02 | 0.53824476E+02 |   75.343
 BASOPT|        3     |       1     | 0.23108543E-02 | 0.79161171E+03 |  263.455
 BASOPT|        3     |       2     | 0.45329122E-02 | 0.37324455E+03 |  178.745
 BASOPT|        3     |       3     | 0.55518984E-02 | 0.20414431E+03 |  158.553
 BASOPT|        4     |       1     | 0.18291551E-02 | 0.54993621E+03 |  100.448
 BASOPT|        4     |       2     | 0.31363579E-02 | 0.21222958E+03 |   85.795
 BASOPT|        4     |       3     | 0.37062766E-02 | 0.12946828E+03 |   70.873
 BASOPT| -----------------------------------------------------------------------
 BASOPT| Total residuum value: -.11125877E+04

 BASOPT| Information at iteration number:    8400
 BASOPT| Training set | Combination | Rho difference | Condition num. | Time
 BASOPT| -----------------------------------------------------------------------
 BASOPT|        1     |       1     | 0.10178953E-01 | 0.11409594E+04 | 3068.912
 BASOPT|        1     |       2     | 0.11038903E-01 | 0.27541004E+03 | 2276.025
 BASOPT|        1     |       3     | 0.11761765E-01 | 0.15071899E+03 | 1968.611
 BASOPT|        2     |       1     | 0.14948212E-02 | 0.37603506E+03 |  114.336
 BASOPT|        2     |       2     | 0.22235216E-02 | 0.21062868E+03 |   92.887
 BASOPT|        2     |       3     | 0.23764311E-02 | 0.53824479E+02 |   76.251
 BASOPT|        3     |       1     | 0.23108541E-02 | 0.79161172E+03 |  266.683
 BASOPT|        3     |       2     | 0.45329120E-02 | 0.37324456E+03 |  180.897
 BASOPT|        3     |       3     | 0.55518975E-02 | 0.20414432E+03 |  160.471
 BASOPT|        4     |       1     | 0.18291551E-02 | 0.54993621E+03 |  101.657
 BASOPT|        4     |       2     | 0.31363579E-02 | 0.21222958E+03 |   86.844
 BASOPT|        4     |       3     | 0.37062760E-02 | 0.12946827E+03 |   71.726
 BASOPT| -----------------------------------------------------------------------
 BASOPT| Total residuum value: -.11125877E+04

 BASOPT| Information at iteration number:    8500
 BASOPT| Training set | Combination | Rho difference | Condition num. | Time
 BASOPT| -----------------------------------------------------------------------
 BASOPT|        1     |       1     | 0.10178953E-01 | 0.11409594E+04 | 3103.535
 BASOPT|        1     |       2     | 0.11038903E-01 | 0.27541004E+03 | 2303.124
 BASOPT|        1     |       3     | 0.11761765E-01 | 0.15071899E+03 | 1990.064
 BASOPT|        2     |       1     | 0.14948212E-02 | 0.37603505E+03 |  115.696
 BASOPT|        2     |       2     | 0.22235216E-02 | 0.21062868E+03 |   93.985
 BASOPT|        2     |       3     | 0.23764312E-02 | 0.53824479E+02 |   77.159
 BASOPT|        3     |       1     | 0.23108541E-02 | 0.79161172E+03 |  269.911
 BASOPT|        3     |       2     | 0.45329120E-02 | 0.37324456E+03 |  183.050
 BASOPT|        3     |       3     | 0.55518976E-02 | 0.20414432E+03 |  162.390
 BASOPT|        4     |       1     | 0.18291551E-02 | 0.54993620E+03 |  102.867
 BASOPT|        4     |       2     | 0.31363579E-02 | 0.21222958E+03 |   87.893
 BASOPT|        4     |       3     | 0.37062761E-02 | 0.12946827E+03 |   72.579
 BASOPT| -----------------------------------------------------------------------
 BASOPT| Total residuum value: -.11125877E+04


 -------------------------------------------------------------------------------
 -                                                                             -
 -                                DBCSR STATISTICS                             -
 -                                                                             -
 -------------------------------------------------------------------------------
 COUNTER                                    TOTAL       BLAS       SMM       ACC
 flops    68 x   104 x     4               169728       0.0%    100.0%      0.0%
 flops   104 x    68 x     4               169728       0.0%    100.0%      0.0%
 flops   104 x   104 x     4               259584       0.0%    100.0%      0.0%
 flops    68 x    68 x     4               332928       0.0%    100.0%      0.0%
 flops   104 x   104 x     6               389376       0.0%    100.0%      0.0%
 flops   116 x   104 x     6               434304       0.0%    100.0%      0.0%
 flops   116 x   116 x     6               484416       0.0%    100.0%      0.0%
 flops   104 x   104 x     9               584064       0.0%    100.0%      0.0%
 flops   116 x   104 x     9               651456       0.0%    100.0%      0.0%
 flops   104 x   116 x     9               651456       0.0%    100.0%      0.0%
 flops   116 x   116 x     9              2179872       0.0%    100.0%      0.0%
 flops   104 x   104 x    24             56070144       0.0%    100.0%      0.0%
 flops inhomo. stacks                           0       0.0%      0.0%      0.0%
 flops total                        62.377056E+06       0.0%    100.0%      0.0%
 flops max/rank                      5.191680E+06       0.0%    100.0%      0.0%
 matmuls inhomo. stacks                         0       0.0%      0.0%      0.0%
 matmuls total                                153       0.0%    100.0%      0.0%
 number of processed stacks                    51       0.0%    100.0%      0.0%
 average stack size                                     0.0       3.0       0.0
 marketing flops                   108.901440E+06
 -------------------------------------------------------------------------------
 # multiplications                              1
 max memory usage/rank             224.636928E+06
 # max total images/rank                        1
 # max 3D layers                                1
 # MPI messages exchanged                      96
 MPI messages size (bytes):
  total size                         1.213056E+06
  min size                           0.000000E+00
  max size                          79.872000E+03
  average size                      12.636000E+03
 MPI breakdown and total messages size (bytes):
             size <=      128                  48                        0
       128 < size <=     8192                  24                   109440
      8192 < size <=    32768                  12                   145152
     32768 < size <=   131072                  12                   958464
    131072 < size <=  4194304                   0                        0
   4194304 < size <= 16777216                   0                        0
  16777216 < size                               0                        0
 -------------------------------------------------------------------------------
 -                                                                             -
 -                      DBCSR MESSAGE PASSING PERFORMANCE                      -
 -                                                                             -
 -------------------------------------------------------------------------------
 ROUTINE             CALLS      AVE VOLUME [Bytes]
 MP_Bcast               13                     12.
 MP_Allreduce           50                     21.
 MP_Alltoall        513501                 231227.
 MP_ISend                8                  20051.
 MP_IRecv                8                     71.
 -------------------------------------------------------------------------------

 -------------------------------------------------------------------------------
 -                                                                             -
 -                                GRID STATISTICS                              -
 -                                                                             -
 -------------------------------------------------------------------------------
 LP    KERNEL             BACKEND                              COUNT     PERCENT
 4     collocate ortho    REF                                   9834      20.47%
 4     integrate ortho    REF                                   9834      20.47%
 2     collocate ortho    REF                                   6765      14.08%
 2     integrate ortho    REF                                   6765      14.08%
 6     collocate ortho    REF                                   4164       8.67%
 6     integrate ortho    REF                                   4164       8.67%
 5     collocate ortho    REF                                   1038       2.16%
 5     integrate ortho    REF                                   1038       2.16%
 3     collocate ortho    REF                                    864       1.80%
 3     integrate ortho    REF                                    864       1.80%
 0     collocate ortho    REF                                    561       1.17%
 0     integrate ortho    REF                                    561       1.17%
 1     collocate ortho    REF                                    366       0.76%
 1     integrate ortho    REF                                    366       0.76%
 7     collocate ortho    REF                                    216       0.45%
 7     integrate ortho    REF                                    216       0.45%
 8     collocate ortho    REF                                    192       0.40%
 8     integrate ortho    REF                                    192       0.40%
 0     collocate general  REF                                     48       0.10%
 -------------------------------------------------------------------------------

 MEMORY| Estimated peak process memory [MiB]                                 326

 -------------------------------------------------------------------------------
 -                                                                             -
 -                         MESSAGE PASSING PERFORMANCE                         -
 -                                                                             -
 -------------------------------------------------------------------------------

 ROUTINE             CALLS      AVE VOLUME [Bytes]
 MP_Bcast             8586                   4982.
 MP_Allreduce        60271                     93.
 MP_Sync              8558
 MP_Alltoall            18               21601109.
 MP_ISendRecv           27                1548565.
 MP_Wait                27
 MP_comm_split           1
 -------------------------------------------------------------------------------


 -------------------------------------------------------------------------------
 -                                                                             -
 -                           R E F E R E N C E S                               -
 -                                                                             -
 -------------------------------------------------------------------------------
 
 CP2K version 9.0 (Development Version), the CP2K developers group (2020).
 CP2K is freely available from https://www.cp2k.org/ .

 Kuehne,Thomas D.; Iannuzzi,Marcella; Del Ben,Mauro;
 Rybkin,Vladimir V.; Seewald,Patrick; Stein,Frederick; Laino,Teodoro;
 Khaliullin,Rustam Z.; Schuett,Ole; Schiffmann,Florian; Golze,Dorothea;
 Wilhelm,Jan; Chulkov,Sergey; Bani-Hashemian,Mohammad Hossein;
 Weber,Valery; Borstnik,Urban; Taillefumier,Mathieu;
 Jakobovits,Alice Shoshana; Lazzaro,Alfio; Pabst,Hans; Mueller,Tiziano;
 Schade,Robert; Guidon,Manuel; Andermatt,Samuel; Holmberg,Nico;
 Schenter,Gregory K.; Hehn,Anna; Bussy,Augustin; Belleflamme,Fabian;
 Tabacchi,Gloria; Gloess,Andreas; Lass,Michael; Bethune,Iain;
 Mundy,Christopher J.; Plessl,Christian; Watkins,Matt;
 VandeVondele,Joost; Krack,Matthias; Hutter,Juerg. 
 The Journal of Chemical Physics, 152 (19), (2020). 
 CP2K: An electronic structure and molecular dynamics software package -
 Quickstep: Efficient and accurate electronic structure calculations.
 https://doi.org/10.1063/5.0007045

 Schuett, Ole; Messmer, Peter; Hutter, Juerg; VandeVondele, Joost. 
 Electronic Structure Calculations on Graphics Processing Units, John
 Wiley & Sons, Ltd, 173-190 (2016). 
 GPU-Accelerated Sparse Matrix-Matrix Multiplication for
 Linear Scaling Density Functional Theory.
 https://doi.org/10.1002/9781118670712.ch8

 Borstnik, U; VandeVondele, J; Weber, V; Hutter, J. 
 PARALLEL COMPUTING, 40 (5-6), 47-58 (2014). 
 Sparse matrix multiplication: The distributed block-compressed sparse
 row library.
 https://doi.org/10.1016/j.parco.2014.03.012

 Hutter, J; Iannuzzi, M; Schiffmann, F; VandeVondele, J. 
 WIREs Comput Mol Sci., 4 (1), 15-25 (2014). 
 CP2K: atomistic simulations of condensed matter systems.
 https://doi.org/10.1002/wcms.1159

 Marek, A; Blum, V; Johanni, R; Havu, V; Lang, B; Auckenthaler, T;
 Heinecke, A; Bungartz, H; Lederer, H. 
 Journal of Physics: Condensed Matter, 26 (21), (2014). 
 The ELPA library: scalable parallel eigenvalue solutions for
 electronic structure
 theory and computational science.
 https://doi.org/10.1088/0953-8984/26/21/213201

 Guidon, M; Hutter, J; VandeVondele, J. 
 JOURNAL OF CHEMICAL THEORY AND COMPUTATION, 6 (8), 2348-2364 (2010). 
 Auxiliary Density Matrix Methods for Hartree-Fock Exchange Calculations.
 https://doi.org/10.1021/ct1002225

 VandeVondele, J; Hutter, J. 
 JOURNAL OF CHEMICAL PHYSICS, 127 (11), 114105 (2007). 
 Gaussian basis sets for accurate calculations on molecular systems in
 gas and condensed phases.
 https://doi.org/10.1063/1.2770708

 Krack, M. 
 THEORETICAL CHEMISTRY ACCOUNTS, 114 (1-3), 145-152 (2005). 
 Pseudopotentials for H to Kr optimized for gradient-corrected
 exchange-correlation functionals.
 https://doi.org/10.1007/s00214-005-0655-y

 VandeVondele, J; Krack, M; Mohamed, F; Parrinello, M; Chassaing, T;
 Hutter, J. COMPUTER PHYSICS COMMUNICATIONS, 167 (2), 103-128 (2005). 
 QUICKSTEP: Fast and accurate density functional calculations using a
 mixed Gaussian and plane waves approach.
 https://doi.org/10.1016/j.cpc.2004.12.014

 Frigo, M; Johnson, SG. 
 PROCEEDINGS OF THE IEEE, 93 (2), 216-231 (2005). 
 The design and implementation of FFTW3.
 https://doi.org/10.1109/JPROC.2004.840301

 Hartwigsen, C; Goedecker, S; Hutter, J. 
 PHYSICAL REVIEW B, 58 (7), 3641-3662 (1998). 
 Relativistic separable dual-space Gaussian pseudopotentials from H to Rn.
 https://doi.org/10.1103/PhysRevB.58.3641

 Lippert, G; Hutter, J; Parrinello, M. 
 MOLECULAR PHYSICS, 92 (3), 477-487 (1997). 
 A hybrid Gaussian and plane wave density functional scheme.
 https://doi.org/10.1080/002689797170220

 Perdew, JP; Burke, K; Ernzerhof, M. 
 PHYSICAL REVIEW LETTERS, 77 (18), 3865-3868 (1996). 
 Generalized gradient approximation made simple.
 https://doi.org/10.1103/PhysRevLett.77.3865

 Goedecker, S; Teter, M; Hutter, J. 
 PHYSICAL REVIEW B, 54 (3), 1703-1710 (1996). 
 Separable dual-space Gaussian pseudopotentials.
 https://doi.org/10.1103/PhysRevB.54.1703


 -------------------------------------------------------------------------------
 -                                                                             -
 -                                T I M I N G                                  -
 -                                                                             -
 -------------------------------------------------------------------------------
 SUBROUTINE                       CALLS  ASD         SELF TIME        TOTAL TIME
                                MAXIMUM       AVERAGE  MAXIMUM  AVERAGE  MAXIMUM
 CP2K                                 1  1.0    0.002    0.005 3127.134 3127.610
 run_optimize_basis                   1  2.0    0.002    0.002 3127.123 3127.600
 driver_para_opt_basis                1  3.0    0.000    0.000 3127.116 3127.593
 driver_optimization_para_low         1  4.0    0.093    0.181 3127.115 3127.591
 compute_residuum_vectors          8558  5.0    0.495    0.681 3124.374 3124.872
 mp_sum_dv                        42791  5.8 2406.109 3051.219 2406.109 3051.219
 cp_gemm                         102696  7.2    0.149    0.266  631.681 2889.815
 cp_gemm_fm_gemm                 102696  8.2    0.089    0.153  631.532 2889.653
 cp_fm_gemm                      102696  9.2  631.443 2889.552  631.443 2889.552
 admm_fit_mo_coeffs                8558  6.0    0.021    0.036  273.617 1230.341
 fit_mo_coeffs                     8558  7.0    0.074    0.119  221.376 1063.334
 purify_mo_diag                    8558  7.0    0.099    0.184   52.221  168.346
 cp_fm_syevd                      17116  7.0    0.054    0.093   30.616  104.466
 cp_fm_syevd_base                 17116  8.0   30.541  104.366   30.541  104.366
 -------------------------------------------------------------------------------

 The number of warnings for this run is : 0
 
 -------------------------------------------------------------------------------
  **** **** ******  **  PROGRAM ENDED AT                 2021-01-24 15:01:50.488
 ***** ** ***  *** **   PROGRAM RAN ON                                   tcopt10
 **    ****   ******    PROGRAM RAN BY                                    hutter
 ***** **    ** ** **   PROGRAM PROCESS ID                                  2158
  **** **  *******  **  PROGRAM STOPPED IN /data/hutter/GITHUB/BASIS/MOLOPT/PBE/
                                           Se
