 DBCSR| CPU Multiplication driver                                           XSMM
 DBCSR| Multrec recursion limit                                              512
 DBCSR| Multiplication stack size                                           1000
 DBCSR| Maximum elements for images                                    UNLIMITED
 DBCSR| Multiplicative factor virtual images                                   1
 DBCSR| Use multiplication densification                                       T
 DBCSR| Multiplication size stacks                                             3
 DBCSR| Use memory pool for CPU allocation                                     F
 DBCSR| Number of 3D layers                                               SINGLE
 DBCSR| Use MPI memory allocation                                              F
 DBCSR| Use RMA algorithm                                                      F
 DBCSR| Use Communication thread                                               T
 DBCSR| Communication thread load                                             87
 DBCSR| MPI: My node id                                                        0
 DBCSR| MPI: Number of nodes                                                  12
 DBCSR| OMP: Current number of threads                                         1
 DBCSR| OMP: Max number of threads                                             1
 DBCSR| Split modifier for TAS multiplication algorithm                  1.0E+00


  **** **** ******  **  PROGRAM STARTED AT               2022-05-30 17:51:01.645
 ***** ** ***  *** **   PROGRAM STARTED ON                               tcopt10
 **    ****   ******    PROGRAM STARTED BY                                hutter
 ***** **    ** ** **   PROGRAM PROCESS ID                                 79105
  **** **  *******  **  PROGRAM STARTED IN /data/hutter/GITHUB/BASIS/scMOLOPT/PB
                                           E/Mo

 CP2K| version string:                   CP2K version 10.0 (Development Version)
 CP2K| source code revision number:                                  git:d19b00a
 CP2K| cp2kflags: omp libint fftw3 libxc elpa parallel mpi3 scalapack cosma xsmm
 CP2K|             spglib sirius libvori libbqb
 CP2K| is freely available from                            https://www.cp2k.org/
 CP2K| Program compiled at                      Wed 18 May 2022 12:15:59 PM CEST
 CP2K| Program compiled on                                               tcopt10
 CP2K| Program compiled for                                                local
 CP2K| Data directory path                   /data/hutter/GITHUB/TDLRI/cp2k/data
 CP2K| Input file name                                             MoCO6-ref.inp

 GLOBAL| Force Environment number                                              1
 GLOBAL| Basis set file name                                        ../def2QZVPP
 GLOBAL| Potential file name                                        ../POTENTIAL
 GLOBAL| MM Potential file name                                     MM_POTENTIAL
 GLOBAL| Coordinate file name                                      __STD_INPUT__
 GLOBAL| Method name                                                        CP2K
 GLOBAL| Project name                                                   refMoCO6
 GLOBAL| Run type                                                         ENERGY
 GLOBAL| FFT library                                                       FFTW3
 GLOBAL| Diagonalization library                                            ELPA
 GLOBAL| Minimum number of eigenvectors for ELPA usage                        16
 GLOBAL| Orthonormality check for eigenvectors                          DISABLED
 GLOBAL| Matrix multiplication library                                     COSMA
 GLOBAL| All-to-all communication in single precision                          F
 GLOBAL| FFTs using library dependent lengths                                  F
 GLOBAL| Grid backend                                                       AUTO
 GLOBAL| Global print level                                                  LOW
 GLOBAL| MPI I/O enabled                                                       T
 GLOBAL| Total number of message passing processes                            12
 GLOBAL| Number of threads for this process                                    1
 GLOBAL| This output is from process                                           0
 GLOBAL| Stack size for threads created by OpenMP (OMP_STACKSIZE)        default
 GLOBAL| CPU model name                          AMD EPYC 7401 24-Core Processor
 GLOBAL| CPUID                                                              1002

 MEMORY| system memory details [Kb]
 MEMORY|                        rank 0           min           max       average
 MEMORY| MemTotal            263969132     263969132     263969132     263969132
 MEMORY| MemFree             224311768     224311768     224311768     224311768
 MEMORY| Buffers                  2836          2836          2836          2836
 MEMORY| Cached               20276060      20276060      20276060      20276060
 MEMORY| Slab                  1470904       1470904       1470904       1470904
 MEMORY| SReclaimable           879812        879812        879812        879812
 MEMORY| MemLikelyFree       245470476     245470476     245470476     245470476


 GENERATE|  Preliminary Number of Bonds generated:                             0
 GENERATE|  Achieved consistency in connectivity generation.

 *******************************************************************************
 *******************************************************************************
 **                                                                           **
 **     #####                         ##              ##                      **
 **    ##   ##            ##          ##              ##                      **
 **   ##     ##                       ##            ######                    **
 **   ##     ##  ##   ##  ##   #####  ##  ##   ####   ##    #####    #####    **
 **   ##     ##  ##   ##  ##  ##      ## ##   ##      ##   ##   ##  ##   ##   **
 **   ##  ## ##  ##   ##  ##  ##      ####     ###    ##   ######   ######    **
 **    ##  ###   ##   ##  ##  ##      ## ##      ##   ##   ##       ##        **
 **     #######   #####   ##   #####  ##  ##  ####    ##    #####   ##        **
 **           ##                                                    ##        **
 **                                                                           **
 **                                                ... make the atoms dance   **
 **                                                                           **
 **            Copyright (C) by CP2K developers group (2000-2022)             **
 **                      J. Chem. Phys. 152, 194103 (2020)                    **
 **                                                                           **
 *******************************************************************************


 TOTAL NUMBERS AND MAXIMUM NUMBERS

  Total number of            - Atomic kinds:                                   3
                             - Atoms:                                         13
                             - Shell sets:                                   225
                             - Shells:                                       225
                             - Primitive Cartesian functions:                377
                             - Cartesian basis functions:                    970
                             - Spherical basis functions:                    765

  Maximum angular momentum of- Orbital basis functions:                        4
                             - Local part of the GTH pseudopotential:          2
                             - Non-local part of the GTH pseudopotential:      4


 SCF PARAMETERS         Density guess:                                    ATOMIC
                        --------------------------------------------------------
                        max_scf:                                              20
                        max_scf_history:                                       0
                        max_diis:                                              4
                        --------------------------------------------------------
                        eps_scf:                                        1.00E-07
                        eps_scf_history:                                0.00E+00
                        eps_diis:                                       1.00E-01
                        eps_eigval:                                     1.00E-05
                        --------------------------------------------------------
                        level_shift [a.u.]:                             0.000000
                        --------------------------------------------------------
                        Outer loop SCF in use 
                        No variables optimised in outer loop
                        eps_scf                                         1.00E-07
                        max_scf                                                5
                        No outer loop optimization
                        step_size                                       5.00E-01

 Number of electrons:                                                         98
 Number of occupied orbitals:                                                 49
 Number of molecular orbitals:                                                49

 Number of orbital functions:                                                765
 Number of independent orbital functions:                                    765

 Extrapolation method: initial_guess


 SCF WAVEFUNCTION OPTIMIZATION

  ----------------------------------- OT ---------------------------------------
  Minimizer      : DIIS                : direct inversion
                                         in the iterative subspace
                                         using   7 DIIS vectors
                                         safer DIIS on
  Preconditioner : FULL_ALL            : diagonalization, state selective
  Precond_solver : DEFAULT
  stepsize       :    0.10000000                  energy_gap     :    0.08000000
  eps_taylor     :   0.10000E-15                  max_taylor     :             4
  ----------------------------------- OT ---------------------------------------

  Step     Update method      Time    Convergence         Total energy    Change
  ------------------------------------------------------------------------------
     1 OT DIIS     0.10E+00    2.0     0.08184682      -717.8972395350 -7.18E+02
     2 OT DIIS     0.10E+00    2.2     0.04272017      -737.0778050779 -1.92E+01
     3 OT DIIS     0.10E+00    2.2     0.01375056      -743.7629990630 -6.69E+00
     4 OT DIIS     0.10E+00    2.2     0.00982093      -744.3346044686 -5.72E-01
     5 OT DIIS     0.10E+00    2.2     0.00683498      -744.9084722326 -5.74E-01
     6 OT DIIS     0.10E+00    2.2     0.00501677      -745.3582684546 -4.50E-01
     7 OT DIIS     0.10E+00    2.2     0.00421511      -745.6150946440 -2.57E-01
     8 OT DIIS     0.10E+00    2.2     0.00361791      -745.8582896909 -2.43E-01
     9 OT DIIS     0.10E+00    2.2     0.00329528      -746.0013752378 -1.43E-01
    10 OT DIIS     0.10E+00    2.2     0.00320158      -746.1624718058 -1.61E-01
    11 OT DIIS     0.10E+00    2.2     0.00318696      -746.1862860611 -2.38E-02
    12 OT DIIS     0.10E+00    2.2     0.00310316      -746.2794711566 -9.32E-02
    13 OT DIIS     0.10E+00    2.2     0.00306489      -746.2833978629 -3.93E-03
    14 OT SD       0.10E+00    2.2     0.00313777      -746.2898305163 -6.43E-03
    15 OT SD       0.10E+00    2.2     0.00308894      -746.3263624571 -3.65E-02
    16 OT SD       0.10E+00    2.2     0.00306579      -746.3619758797 -3.56E-02
    17 OT DIIS     0.10E+00    2.2     0.00304697      -746.3970922658 -3.51E-02
    18 OT DIIS     0.10E+00    2.2     0.00365165      -746.4560241412 -5.89E-02
    19 OT DIIS     0.10E+00    2.2     0.00369012      -746.4571437731 -1.12E-03
    20 OT SD       0.10E+00    2.2     0.00353334      -746.5447319250 -8.76E-02

  Leaving inner SCF loop after reaching    20 steps.


  Electronic density on regular grids:        -74.4137827139       23.5862172861
  Core density on regular grids:               98.0000000000        0.0000000000
  Hard and soft densities (Lebedev):         -198.6837568563     -175.0975561728
  Total Rho_soft + Rho1_hard - Rho1_soft      -97.9999833975
  Total charge density (r-space):               0.0000166025
  Total Rho_soft + Rho0_soft (g-space):         0.0000158608

  Overlap energy of the core charge distribution:               0.00004183273335
  Self energy of the core charge distribution:               -739.92018650029820
  Core Hamiltonian energy:                                    -54.60972404495828
  Hartree energy:                                             236.39988566085540
  Exchange-correlation energy:                                -38.67916436233737

  GAPW| Exc from hard and soft atomic rho1:                   -51.88753840646584
  GAPW| local Eh = 1 center integrals:                        -97.84804610455674

  Total energy:                                              -746.54473192502769

  outer SCF iter =    1 RMS gradient =   0.35E-02 energy =       -746.5447319250

  ----------------------------------- OT ---------------------------------------
  Minimizer      : DIIS                : direct inversion
                                         in the iterative subspace
                                         using   7 DIIS vectors
                                         safer DIIS on
  Preconditioner : FULL_ALL            : diagonalization, state selective
  Precond_solver : DEFAULT
  stepsize       :    0.10000000                  energy_gap     :    0.08000000
  eps_taylor     :   0.10000E-15                  max_taylor     :             4
  ----------------------------------- OT ---------------------------------------

  Step     Update method      Time    Convergence         Total energy    Change
  ------------------------------------------------------------------------------
     1 OT DIIS     0.10E+00    4.5     0.01340302      -746.5869075948 -4.22E-02
     2 OT DIIS     0.10E+00    2.2     0.00851883      -747.1327189652 -5.46E-01
     3 OT DIIS     0.10E+00    2.2     0.00429568      -747.2782229137 -1.46E-01
     4 OT DIIS     0.10E+00    2.1     0.00242319      -747.3086286758 -3.04E-02
     5 OT DIIS     0.10E+00    2.2     0.00180335      -747.3183718696 -9.74E-03
     6 OT DIIS     0.10E+00    2.2     0.00144994      -747.3210862402 -2.71E-03
     7 OT DIIS     0.10E+00    2.2     0.00042646      -747.3225842928 -1.50E-03
     8 OT DIIS     0.10E+00    2.2     0.00049385      -747.3226086255 -2.43E-05
     9 OT DIIS     0.10E+00    2.2     0.00011666      -747.3229170187 -3.08E-04
    10 OT DIIS     0.10E+00    2.2     0.00005077      -747.3229521444 -3.51E-05
    11 OT DIIS     0.10E+00    2.2     0.00003045      -747.3229603908 -8.25E-06
    12 OT DIIS     0.10E+00    2.2     0.00001577      -747.3229620777 -1.69E-06
    13 OT DIIS     0.10E+00    2.2     0.00000961      -747.3229626864 -6.09E-07
    14 OT DIIS     0.10E+00    2.2     0.00000556      -747.3229628242 -1.38E-07
    15 OT DIIS     0.10E+00    2.2     0.00000504      -747.3229628635 -3.93E-08
    16 OT DIIS     0.10E+00    2.2     0.00000146      -747.3229628994 -3.59E-08
    17 OT DIIS     0.10E+00    2.2     0.00000083      -747.3229629067 -7.35E-09
    18 OT DIIS     0.10E+00    2.2     0.00000047      -747.3229629085 -1.80E-09
    19 OT DIIS     0.10E+00    2.2     0.00000026      -747.3229629093 -7.34E-10
    20 OT DIIS     0.10E+00    2.2     0.00000015      -747.3229629094 -1.30E-10

  Leaving inner SCF loop after reaching    20 steps.


  Electronic density on regular grids:        -74.4445322914       23.5554677086
  Core density on regular grids:               98.0000000000        0.0000000000
  Hard and soft densities (Lebedev):         -200.3276895063     -176.7722388134
  Total Rho_soft + Rho1_hard - Rho1_soft      -97.9999829843
  Total charge density (r-space):               0.0000170157
  Total Rho_soft + Rho0_soft (g-space):         0.0000162735

  Overlap energy of the core charge distribution:               0.00004183273335
  Self energy of the core charge distribution:               -739.92018650029820
  Core Hamiltonian energy:                                    -55.45826055201314
  Hartree energy:                                             236.59301919699834
  Exchange-correlation energy:                                -38.74080372665896

  GAPW| Exc from hard and soft atomic rho1:                   -51.86847543090173
  GAPW| local Eh = 1 center integrals:                        -97.92829772924843

  Total energy:                                              -747.32296290938882

  outer SCF iter =    2 RMS gradient =   0.15E-06 energy =       -747.3229629094

  ----------------------------------- OT ---------------------------------------
  Minimizer      : DIIS                : direct inversion
                                         in the iterative subspace
                                         using   7 DIIS vectors
                                         safer DIIS on
  Preconditioner : FULL_ALL            : diagonalization, state selective
  Precond_solver : DEFAULT
  stepsize       :    0.10000000                  energy_gap     :    0.08000000
  eps_taylor     :   0.10000E-15                  max_taylor     :             4
  ----------------------------------- OT ---------------------------------------

  Step     Update method      Time    Convergence         Total energy    Change
  ------------------------------------------------------------------------------
     1 OT DIIS     0.10E+00    4.5     0.00000008      -747.3229629094 -4.30E-11

  *** SCF run converged in     1 steps ***


  Electronic density on regular grids:        -74.4445317379       23.5554682621
  Core density on regular grids:               98.0000000000        0.0000000000
  Hard and soft densities (Lebedev):         -200.3276975229     -176.7722462765
  Total Rho_soft + Rho1_hard - Rho1_soft      -97.9999829843
  Total charge density (r-space):               0.0000170157
  Total Rho_soft + Rho0_soft (g-space):         0.0000162735

  Overlap energy of the core charge distribution:               0.00004183273335
  Self energy of the core charge distribution:               -739.92018650029820
  Core Hamiltonian energy:                                    -55.45825381209572
  Hartree energy:                                             236.59301373302969
  Exchange-correlation energy:                                -38.74080402619677

  GAPW| Exc from hard and soft atomic rho1:                   -51.86847602796801
  GAPW| local Eh = 1 center integrals:                        -97.92829810863627

  Total energy:                                              -747.32296290943179

  outer SCF iter =    3 RMS gradient =   0.84E-07 energy =       -747.3229629094
  outer SCF loop converged in   3 iterations or   41 steps


 ENERGY| Total FORCE_EVAL ( QS ) energy [a.u.]:             -747.322962909431794

 -------------------------------------------------------------------------------
 -                                                                             -
 -                                DBCSR STATISTICS                             -
 -                                                                             -
 -------------------------------------------------------------------------------
 COUNTER                                    TOTAL       BLAS       SMM       ACC
 flops    81 x    17 x    17               140454       0.0%    100.0%      0.0%
 flops    81 x    32 x    32               497664       0.0%    100.0%      0.0%
 flops    57 x    17 x    17              1186056       0.0%    100.0%      0.0%
 flops    17 x    17 x    17              3429274       0.0%    100.0%      0.0%
 flops    57 x    32 x    32              4202496       0.0%    100.0%      0.0%
 flops    17 x    17 x    32              6455104       0.0%    100.0%      0.0%
 flops    17 x    32 x    17              6455104       0.0%    100.0%      0.0%
 flops    32 x    17 x    17              6455104       0.0%    100.0%      0.0%
 flops    81 x    81 x    17              9369108       0.0%    100.0%      0.0%
 flops    32 x    32 x    17             12150784       0.0%    100.0%      0.0%
 flops    17 x    32 x    32             12150784       0.0%    100.0%      0.0%
 flops    32 x    17 x    32             12150784       0.0%    100.0%      0.0%
 flops    17 x    17 x   138             13320588       0.0%    100.0%      0.0%
 flops    17 x    17 x   171             16505946       0.0%    100.0%      0.0%
 flops    81 x    81 x    32             17635968       0.0%    100.0%      0.0%
 flops    81 x    17 x    81             22753548       0.0%    100.0%      0.0%
 flops    32 x    32 x    32             22872064       0.0%    100.0%      0.0%
 flops    17 x    32 x   138             25074048       0.0%    100.0%      0.0%
 flops    32 x    17 x   138             25074048       0.0%    100.0%      0.0%
 flops    17 x    32 x   171             31070016       0.0%    100.0%      0.0%
 flops    32 x    17 x   171             31070016       0.0%    100.0%      0.0%
 flops    81 x    57 x    17             39558456       0.0%    100.0%      0.0%
 flops    57 x    81 x    17             39558456       0.0%    100.0%      0.0%
 flops    81 x    32 x    81             42830208       0.0%    100.0%      0.0%
 flops   366 x    17 x    17             43367340       0.0%    100.0%      0.0%
 flops    17 x    17 x   114             44015856       0.0%    100.0%      0.0%
 flops    32 x    32 x   138             47198208       0.0%    100.0%      0.0%
 flops   399 x    17 x    17             47277510       0.0%    100.0%      0.0%
 flops    32 x    32 x   171             58484736       0.0%    100.0%      0.0%
 flops    81 x    57 x    32             74462976       0.0%    100.0%      0.0%
 flops    57 x    81 x    32             74462976       0.0%    100.0%      0.0%
 flops   366 x    32 x    17             81632640       0.0%    100.0%      0.0%
 flops   366 x    17 x    32             81632640       0.0%    100.0%      0.0%
 flops    17 x    32 x   114             82853376       0.0%    100.0%      0.0%
 flops    32 x    17 x   114             82853376       0.0%    100.0%      0.0%
 flops   399 x    17 x    32             88992960       0.0%    100.0%      0.0%
 flops   399 x    32 x    17             88992960       0.0%    100.0%      0.0%
 flops   366 x    17 x   138            151119936       0.0%    100.0%      0.0%
 flops   366 x    32 x    32            153661440       0.0%    100.0%      0.0%
 flops    32 x    32 x   114            155959296       0.0%    100.0%      0.0%
 flops   399 x    17 x   138            164745504       0.0%    100.0%      0.0%
 flops   399 x    32 x    32            167516160       0.0%    100.0%      0.0%
 flops   366 x    17 x   171            187257312       0.0%    100.0%      0.0%
 flops    57 x    17 x    81            192141072       0.0%    100.0%      0.0%
 flops    81 x    17 x    57            192141072       0.0%    100.0%      0.0%
 flops   399 x    17 x   171            204141168       0.0%    100.0%      0.0%
 flops   366 x    32 x   138            284461056       0.0%    100.0%      0.0%
 flops   399 x    32 x   138            310109184       0.0%    100.0%      0.0%
 flops   366 x    32 x   171            352484352       0.0%    100.0%      0.0%
 flops    81 x    32 x    57            361677312       0.0%    100.0%      0.0%
 flops    57 x    32 x    81            361677312       0.0%    100.0%      0.0%
 flops    57 x    57 x    17            361886616       0.0%    100.0%      0.0%
 flops   399 x    32 x   171            384265728       0.0%    100.0%      0.0%
 flops   366 x    17 x   114            499352832       0.0%    100.0%      0.0%
 flops   399 x    17 x   114            544376448       0.0%    100.0%      0.0%
 flops    57 x    57 x    32            681198336       0.0%    100.0%      0.0%
 flops   366 x    32 x   114            939958272       0.0%    100.0%      0.0%
 flops   399 x    32 x   114           1024708608       0.0%    100.0%      0.0%
 flops    57 x    17 x    57           1622524608       0.0%    100.0%      0.0%
 flops    57 x    32 x    57           3054163968       0.0%    100.0%      0.0%
 flops inhomo. stacks                           0       0.0%      0.0%      0.0%
 flops total                        13.649721E+09       0.0%    100.0%      0.0%
 flops max/rank                      4.244354E+09       0.0%    100.0%      0.0%
 matmuls inhomo. stacks                         0       0.0%      0.0%      0.0%
 matmuls total                              52750       0.0%    100.0%      0.0%
 number of processed stacks                 16618       0.0%    100.0%      0.0%
 average stack size                                     0.0       3.2       0.0
 marketing flops                    14.776326E+09
 -------------------------------------------------------------------------------
 # multiplications                            959
 max memory usage/rank             547.201024E+06
 # max total images/rank                        3
 # max 3D layers                                1
 # MPI messages exchanged                   92064
 MPI messages size (bytes):
  total size                         5.236804E+09
  min size                           0.000000E+00
  max size                         545.832000E+03
  average size                      56.882207E+03
 MPI breakdown and total messages size (bytes):
             size <=      128               51654                        0
       128 < size <=     8192                9202                 44190704
      8192 < size <=    32768               12340                272437584
     32768 < size <=   131072                7468                472464336
    131072 < size <=  4194304               11400               4447710000
   4194304 < size <= 16777216                   0                        0
  16777216 < size                               0                        0
 -------------------------------------------------------------------------------

 *** WARNING in dbcsr_mm.F:290 :: Using a non-square number of MPI ranks ***
 *** might lead to poor performance. Used ranks: 12 Suggested: 9 25      ***

 -------------------------------------------------------------------------------
 -                                                                             -
 -                      DBCSR MESSAGE PASSING PERFORMANCE                      -
 -                                                                             -
 -------------------------------------------------------------------------------
 ROUTINE             CALLS      AVE VOLUME [Bytes]
 MP_Bcast               61                     12.
 MP_Allreduce         5213                      8.
 MP_Alltoall          3636                   9826.
 MP_ISend            20472                  25458.
 MP_IRecv            20160                  23173.
 -------------------------------------------------------------------------------

 -------------------------------------------------------------------------------
 -                                                                             -
 -                                GRID STATISTICS                              -
 -                                                                             -
 -------------------------------------------------------------------------------
 LP    KERNEL             BACKEND                              COUNT     PERCENT
 2     collocate ortho    REF                                 268842      12.43%
 2     integrate ortho    REF                                 262441      12.14%
 1     collocate ortho    REF                                 221340      10.24%
 3     collocate ortho    REF                                 220416      10.19%
 1     integrate ortho    REF                                 216070       9.99%
 3     integrate ortho    REF                                 215168       9.95%
 4     collocate ortho    REF                                 159768       7.39%
 4     integrate ortho    REF                                 155964       7.21%
 5     collocate ortho    REF                                  90216       4.17%
 5     integrate ortho    REF                                  88068       4.07%
 0     collocate ortho    REF                                  76860       3.55%
 0     integrate ortho    REF                                  75030       3.47%
 6     collocate ortho    REF                                  33852       1.57%
 6     integrate ortho    REF                                  33046       1.53%
 7     collocate ortho    REF                                  12852       0.59%
 7     integrate ortho    REF                                  12546       0.58%
 2     collocate general  REF                                   6396       0.30%
 2     integrate general  REF                                   6396       0.30%
 8     collocate ortho    REF                                   3570       0.17%
 8     integrate ortho    REF                                   3485       0.16%
 -------------------------------------------------------------------------------

 MEMORY| Estimated peak process memory [MiB]                                 522

 -------------------------------------------------------------------------------
 -                                                                             -
 -                         MESSAGE PASSING PERFORMANCE                         -
 -                                                                             -
 -------------------------------------------------------------------------------

 ROUTINE             CALLS      AVE VOLUME [Bytes]
 MP_Group                4
 MP_Bcast             2941                 115818.
 MP_Allreduce         6819                 140068.
 MP_Sync                99
 MP_Alltoall           838               19223560.
 MP_ISendRecv         2739                 338304.
 MP_Wait              5874
 MP_comm_split          46
 MP_ISend             2640                1174860.
 MP_IRecv             2640                1174860.
 MP_Recv                15                  55080.
 -------------------------------------------------------------------------------


 -------------------------------------------------------------------------------
 -                                                                             -
 -                           R E F E R E N C E S                               -
 -                                                                             -
 -------------------------------------------------------------------------------
 
 CP2K version 10.0 (Development Version), the CP2K developers group (2022).
 CP2K is freely available from https://www.cp2k.org/ .

 Kuehne,Thomas D.; Iannuzzi,Marcella; Del Ben,Mauro;
 Rybkin,Vladimir V.; Seewald,Patrick; Stein,Frederick; Laino,Teodoro;
 Khaliullin,Rustam Z.; Schuett,Ole; Schiffmann,Florian; Golze,Dorothea;
 Wilhelm,Jan; Chulkov,Sergey; Bani-Hashemian,Mohammad Hossein;
 Weber,Valery; Borstnik,Urban; Taillefumier,Mathieu;
 Jakobovits,Alice Shoshana; Lazzaro,Alfio; Pabst,Hans; Mueller,Tiziano;
 Schade,Robert; Guidon,Manuel; Andermatt,Samuel; Holmberg,Nico;
 Schenter,Gregory K.; Hehn,Anna; Bussy,Augustin; Belleflamme,Fabian;
 Tabacchi,Gloria; Gloess,Andreas; Lass,Michael; Bethune,Iain;
 Mundy,Christopher J.; Plessl,Christian; Watkins,Matt;
 VandeVondele,Joost; Krack,Matthias; Hutter,Juerg. 
 The Journal of Chemical Physics, 152 (19), (2020). 
 CP2K: An electronic structure and molecular dynamics software package -
 Quickstep: Efficient and accurate electronic structure calculations.
 https://doi.org/10.1063/5.0007045

 Schuett, Ole; Messmer, Peter; Hutter, Juerg; VandeVondele, Joost. 
 Electronic Structure Calculations on Graphics Processing Units, John
 Wiley & Sons, Ltd, 173-190 (2016). 
 GPU-Accelerated Sparse Matrix-Matrix Multiplication for
 Linear Scaling Density Functional Theory.
 https://doi.org/10.1002/9781118670712.ch8

 Heinecke, A; Henry, G; Hutchinson, M; Pabst, H. 
 Proceedings of Intl. Supercomputing Conference, 981-991 (2016). 
 LIBXSMM: Accelerating Small Matrix Multiplications
 by Runtime Code Generation.
 https://doi.org/10.1109/SC.2016.83

 Borstnik, U; VandeVondele, J; Weber, V; Hutter, J. 
 PARALLEL COMPUTING, 40 (5-6), 47-58 (2014). 
 Sparse matrix multiplication: The distributed block-compressed sparse
 row library.
 https://doi.org/10.1016/j.parco.2014.03.012

 Hutter, J; Iannuzzi, M; Schiffmann, F; VandeVondele, J. 
 WIREs Comput Mol Sci., 4 (1), 15-25 (2014). 
 CP2K: atomistic simulations of condensed matter systems.
 https://doi.org/10.1002/wcms.1159

 Marek, A; Blum, V; Johanni, R; Havu, V; Lang, B; Auckenthaler, T;
 Heinecke, A; Bungartz, H; Lederer, H. 
 Journal of Physics: Condensed Matter, 26 (21), (2014). 
 The ELPA library: scalable parallel eigenvalue solutions for
 electronic structure
 theory and computational science.
 https://doi.org/10.1088/0953-8984/26/21/213201

 Krack, M. 
 THEORETICAL CHEMISTRY ACCOUNTS, 114 (1-3), 145-152 (2005). 
 Pseudopotentials for H to Kr optimized for gradient-corrected
 exchange-correlation functionals.
 https://doi.org/10.1007/s00214-005-0655-y

 Frigo, M; Johnson, SG. 
 PROCEEDINGS OF THE IEEE, 93 (2), 216-231 (2005). 
 The design and implementation of FFTW3.
 https://doi.org/10.1109/JPROC.2004.840301

 VandeVondele, J; Hutter, J. 
 JOURNAL OF CHEMICAL PHYSICS, 118 (10), 4365-4369 (2003). 
 An efficient orbital transformation method for electronic structure
 calculations.
 https://doi.org/10.1063/1.1543154

 Lippert, G; Hutter, J; Parrinello, M. 
 THEORETICAL CHEMISTRY ACCOUNTS, 103 (2), 124-140 (1999). 
 The Gaussian and augmented-plane-wave density functional method for ab
 initio molecular dynamics simulations.
 https://doi.org/10.1007/s002140050523

 Krack, M; Parrinello, M. 
 PHYSICAL CHEMISTRY CHEMICAL PHYSICS, 2 (10), 2105-2112 (2000). 
 All-electron ab-initio molecular dynamics.
 https://doi.org/10.1039/b001167n

 Hartwigsen, C; Goedecker, S; Hutter, J. 
 PHYSICAL REVIEW B, 58 (7), 3641-3662 (1998). 
 Relativistic separable dual-space Gaussian pseudopotentials from H to Rn.
 https://doi.org/10.1103/PhysRevB.58.3641

 Perdew, JP; Burke, K; Ernzerhof, M. 
 PHYSICAL REVIEW LETTERS, 77 (18), 3865-3868 (1996). 
 Generalized gradient approximation made simple.
 https://doi.org/10.1103/PhysRevLett.77.3865

 Goedecker, S; Teter, M; Hutter, J. 
 PHYSICAL REVIEW B, 54 (3), 1703-1710 (1996). 
 Separable dual-space Gaussian pseudopotentials.
 https://doi.org/10.1103/PhysRevB.54.1703


 -------------------------------------------------------------------------------
 -                                                                             -
 -                                T I M I N G                                  -
 -                                                                             -
 -------------------------------------------------------------------------------
 SUBROUTINE                       CALLS  ASD         SELF TIME        TOTAL TIME
                                MAXIMUM       AVERAGE  MAXIMUM  AVERAGE  MAXIMUM
 CP2K                                 1  1.0    0.009    0.028   91.940   91.943
 qs_energies                          1  2.0    0.000    0.000   91.470   91.470
 scf_env_do_scf                       1  3.0    0.000    0.000   89.494   89.495
 scf_env_do_scf_inner_loop           41  4.0    0.001    0.002   83.633   83.634
 qs_ks_update_qs_env                 44  5.0    0.000    0.001   71.376   71.399
 rebuild_ks_matrix                   41  6.0    0.000    0.000   71.366   71.387
 qs_ks_build_kohn_sham_matrix        41  7.0    0.007    0.009   71.365   71.387
 pw_transfer                        866 10.1    0.085    0.102   26.527   27.072
 fft_wrap_pw1pw2                    743 11.3    0.009    0.011   26.286   26.820
 fft_wrap_pw1pw2_300                494 12.7    1.275    1.456   24.910   25.485
 qs_vxc_create                       41  8.0    0.001    0.001   24.616   24.618
 xc_vxc_pw_create                    41  9.0    0.176    0.199   24.615   24.618
 fft3d_ps                           743 13.3   10.699   12.112   19.645   20.930
 qs_rho_update_rho                   42  5.0    0.001    0.001   16.117   16.122
 xc_rho_set_and_dset_create          41 10.0    0.144    0.183   14.419   15.454
 xc_pw_derive                       246 11.0    0.002    0.002   13.963   14.443
 calculate_rho_elec                  42  6.0    0.089    0.090   13.891   13.894
 sum_up_and_integrate                41  8.0    0.033    0.040   13.503   13.507
 integrate_v_rspace                  41  9.0    0.001    0.002   13.470   13.478
 mp_sum_d                          2183  8.9    9.999   13.387    9.999   13.387
 prepare_gapw_den                    41  8.0    0.001    0.002   12.155   12.344
 calculate_vxc_atom                  41  8.0    0.361    1.719   11.168   11.171
 xc_pw_divergence                    41 10.0    0.001    0.001    9.712   10.269
 mp_alltoall_z22v                   743 15.3    6.064    9.544    6.064    9.544
 grid_integrate_task_list            41 10.0    6.775    8.837    6.775    8.837
 gaVxcgb_GC                          82  9.0    1.953    8.607    1.953    8.607
 density_rs2pw                       42  7.0    0.002    0.002    7.589    8.529
 xc_functional_eval                 205 10.3    0.001    0.002    7.714    8.383
 pbe_lda_eval                       205 11.3    7.714    8.383    7.714    8.383
 rs_pw_transfer                     414  9.5    0.007    0.009    6.943    8.083
 calculate_rho_atom                 123  9.0    3.951    7.440    3.951    7.441
 grid_collocate_task_list            42  7.0    5.918    7.401    5.918    7.401
 yz_to_x                            373 13.9    1.414    1.979    5.016    6.728
 init_scf_loop                        3  4.0    0.000    0.000    5.860    5.860
 mp_sum_dv                         3309 13.1    3.292    5.140    3.292    5.140
 x_to_yz                            370 14.7    1.449    1.962    3.912    4.771
 potential_pw2rs                     41 10.0    0.006    0.007    4.619    4.628
 rs_pw_transfer_RS2PW_300            83 10.0    1.075    1.363    3.408    4.598
 mp_waitany                        2640 11.5    2.870    4.477    2.870    4.477
 integrate_vhg0_rspace               41  8.0    0.986    1.173    4.288    4.305
 mp_sum_dm                         1625  7.7    3.430    4.103    3.430    4.103
 pw_gather_p                        373 12.9    2.666    3.619    2.666    3.619
 put_rho0_on_grid                    41  9.0    0.102    0.135    3.358    3.547
 dbcsr_multiply_generic             959 10.1    0.028    0.031    3.019    3.366
 mp_alltoall_d11v                   887 11.9    2.108    3.272    2.108    3.272
 rs_gather_matrices                  41 10.0    0.005    0.008    2.074    3.241
 pw_scatter_p                       370 13.7    2.640    3.063    2.640    3.063
 rs_pw_transfer_PW2RS_300            82 11.0    1.137    1.365    2.227    2.455
 calculate_rho0_atom                123  9.0    1.568    2.425    1.568    2.425
 calculate_rho_atom_coeff            42  6.0    0.692    1.969    2.225    2.229
 update_ks_atom                      41  8.0    0.611    1.900    0.782    2.066
 mp_waitall_1                     49266 14.2    1.461    1.882    1.461    1.882
 -------------------------------------------------------------------------------

 The number of warnings for this run is : 1
 
 -------------------------------------------------------------------------------
  **** **** ******  **  PROGRAM ENDED AT                 2022-05-30 17:52:34.012
 ***** ** ***  *** **   PROGRAM RAN ON                                   tcopt10
 **    ****   ******    PROGRAM RAN BY                                    hutter
 ***** **    ** ** **   PROGRAM PROCESS ID                                 79105
  **** **  *******  **  PROGRAM STOPPED IN /data/hutter/GITHUB/BASIS/scMOLOPT/PB
                                           E/Mo
