 DBCSR| CPU Multiplication driver                                           XSMM
 DBCSR| Multrec recursion limit                                              512
 DBCSR| Multiplication stack size                                           1000
 DBCSR| Maximum elements for images                                    UNLIMITED
 DBCSR| Multiplicative factor virtual images                                   1
 DBCSR| Use multiplication densification                                       T
 DBCSR| Multiplication size stacks                                             3
 DBCSR| Use memory pool for CPU allocation                                     F
 DBCSR| Number of 3D layers                                               SINGLE
 DBCSR| Use MPI memory allocation                                              F
 DBCSR| Use RMA algorithm                                                      F
 DBCSR| Use Communication thread                                               T
 DBCSR| Communication thread load                                             87
 DBCSR| MPI: My node id                                                        0
 DBCSR| MPI: Number of nodes                                                  12
 DBCSR| OMP: Current number of threads                                         1
 DBCSR| OMP: Max number of threads                                             1
 DBCSR| Split modifier for TAS multiplication algorithm                  1.0E+00


  **** **** ******  **  PROGRAM STARTED AT               2022-05-30 18:14:02.968
 ***** ** ***  *** **   PROGRAM STARTED ON                               tcopt10
 **    ****   ******    PROGRAM STARTED BY                                hutter
 ***** **    ** ** **   PROGRAM PROCESS ID                                 81652
  **** **  *******  **  PROGRAM STARTED IN /data/hutter/GITHUB/BASIS/scMOLOPT/PB
                                           E/Mo

 CP2K| version string:                   CP2K version 10.0 (Development Version)
 CP2K| source code revision number:                                  git:d19b00a
 CP2K| cp2kflags: omp libint fftw3 libxc elpa parallel mpi3 scalapack cosma xsmm
 CP2K|             spglib sirius libvori libbqb
 CP2K| is freely available from                            https://www.cp2k.org/
 CP2K| Program compiled at                      Wed 18 May 2022 12:15:59 PM CEST
 CP2K| Program compiled on                                               tcopt10
 CP2K| Program compiled for                                                local
 CP2K| Data directory path                   /data/hutter/GITHUB/TDLRI/cp2k/data
 CP2K| Input file name                                              MoO3-ref.inp

 GLOBAL| Force Environment number                                              1
 GLOBAL| Basis set file name                                        ../def2QZVPP
 GLOBAL| Potential file name                                        ../POTENTIAL
 GLOBAL| MM Potential file name                                     MM_POTENTIAL
 GLOBAL| Coordinate file name                                      __STD_INPUT__
 GLOBAL| Method name                                                        CP2K
 GLOBAL| Project name                                                    refMoO3
 GLOBAL| Run type                                                         ENERGY
 GLOBAL| FFT library                                                       FFTW3
 GLOBAL| Diagonalization library                                            ELPA
 GLOBAL| Minimum number of eigenvectors for ELPA usage                        16
 GLOBAL| Orthonormality check for eigenvectors                          DISABLED
 GLOBAL| Matrix multiplication library                                     COSMA
 GLOBAL| All-to-all communication in single precision                          F
 GLOBAL| FFTs using library dependent lengths                                  F
 GLOBAL| Grid backend                                                       AUTO
 GLOBAL| Global print level                                                  LOW
 GLOBAL| MPI I/O enabled                                                       T
 GLOBAL| Total number of message passing processes                            12
 GLOBAL| Number of threads for this process                                    1
 GLOBAL| This output is from process                                           0
 GLOBAL| Stack size for threads created by OpenMP (OMP_STACKSIZE)        default
 GLOBAL| CPU model name                          AMD EPYC 7401 24-Core Processor
 GLOBAL| CPUID                                                              1002

 MEMORY| system memory details [Kb]
 MEMORY|                        rank 0           min           max       average
 MEMORY| MemTotal            263969132     263969132     263969132     263969132
 MEMORY| MemFree             224302436     224302436     224302436     224302436
 MEMORY| Buffers                  2836          2836          2836          2836
 MEMORY| Cached               20278468      20278468      20278468      20278468
 MEMORY| Slab                  1471064       1471064       1471064       1471064
 MEMORY| SReclaimable           879964        879964        879964        879964
 MEMORY| MemLikelyFree       245463704     245463704     245463704     245463704


 GENERATE|  Preliminary Number of Bonds generated:                             0
 GENERATE|  Achieved consistency in connectivity generation.

 *******************************************************************************
 *******************************************************************************
 **                                                                           **
 **     #####                         ##              ##                      **
 **    ##   ##            ##          ##              ##                      **
 **   ##     ##                       ##            ######                    **
 **   ##     ##  ##   ##  ##   #####  ##  ##   ####   ##    #####    #####    **
 **   ##     ##  ##   ##  ##  ##      ## ##   ##      ##   ##   ##  ##   ##   **
 **   ##  ## ##  ##   ##  ##  ##      ####     ###    ##   ######   ######    **
 **    ##  ###   ##   ##  ##  ##      ## ##      ##   ##   ##       ##        **
 **     #######   #####   ##   #####  ##  ##  ####    ##    #####   ##        **
 **           ##                                                    ##        **
 **                                                                           **
 **                                                ... make the atoms dance   **
 **                                                                           **
 **            Copyright (C) by CP2K developers group (2000-2022)             **
 **                      J. Chem. Phys. 152, 194103 (2020)                    **
 **                                                                           **
 *******************************************************************************


 TOTAL NUMBERS AND MAXIMUM NUMBERS

  Total number of            - Atomic kinds:                                   2
                             - Atoms:                                          4
                             - Shell sets:                                    72
                             - Shells:                                        72
                             - Primitive Cartesian functions:                116
                             - Cartesian basis functions:                    322
                             - Spherical basis functions:                    252

  Maximum angular momentum of- Orbital basis functions:                        4
                             - Local part of the GTH pseudopotential:          2
                             - Non-local part of the GTH pseudopotential:      4


 SCF PARAMETERS         Density guess:                                   RESTART
                        --------------------------------------------------------
                        max_scf:                                              20
                        max_scf_history:                                       0
                        max_diis:                                              4
                        --------------------------------------------------------
                        eps_scf:                                        1.00E-07
                        eps_scf_history:                                0.00E+00
                        eps_diis:                                       1.00E-01
                        eps_eigval:                                     1.00E-05
                        --------------------------------------------------------
                        level_shift [a.u.]:                             0.000000
                        --------------------------------------------------------
                        Outer loop SCF in use 
                        No variables optimised in outer loop
                        eps_scf                                         1.00E-07
                        max_scf                                                5
                        No outer loop optimization
                        step_size                                       5.00E-01

 Number of electrons:                                                         38
 Number of occupied orbitals:                                                 19
 Number of molecular orbitals:                                                19

 Number of orbital functions:                                                252
 Number of independent orbital functions:                                    252

 Extrapolation method: initial_guess


 SCF WAVEFUNCTION OPTIMIZATION

  ----------------------------------- OT ---------------------------------------
  Minimizer      : CG                  : conjugate gradient
  Preconditioner : FULL_ALL            : diagonalization, state selective
  Precond_solver : DEFAULT
  Line search    : 2PNT                : 2 energies, one gradient
  stepsize       :    0.10000000                  energy_gap     :    0.08000000
  eps_taylor     :   0.10000E-15                  max_taylor     :             4
  ----------------------------------- OT ---------------------------------------

  Step     Update method      Time    Convergence         Total energy    Change
  ------------------------------------------------------------------------------
     1 OT CG       0.10E+00    1.6     0.00864505      -292.8058819313 -2.93E+02
     2 OT LS       0.40E+00    1.1                     -292.8465127159
     3 OT CG       0.40E+00    1.8     0.02889133      -292.9206858982 -1.15E-01
     4 OT LS       0.50E-01    1.1                     -288.4234414543
     5 OT CG       0.50E-01    1.8     0.03955960      -292.8871171992  3.36E-02
     6 OT LS       0.43E-01    1.1                     -293.0420679449
     7 OT CG       0.43E-01    1.8     0.01738386      -293.0454057224 -1.58E-01
     8 OT LS       0.16E+00    1.1                     -293.0993493565
     9 OT CG       0.16E+00    1.8     0.02824275      -293.1050105353 -5.96E-02
    10 OT LS       0.45E-01    1.1                     -292.6824235984
    11 OT CG       0.45E-01    1.8     0.00891470      -293.1710220619 -6.60E-02
    12 OT LS       0.13E+00    1.1                     -293.1766749457
    13 OT CG       0.13E+00    1.8     0.01089896      -293.1813389968 -1.03E-02
    14 OT LS       0.39E-01    1.1                     -293.1327794849
    15 OT CG       0.39E-01    1.8     0.00195429      -293.1931858919 -1.18E-02
    16 OT LS       0.15E+00    1.1                     -293.1938480051
    17 OT CG       0.15E+00    1.8     0.00114667      -293.1952015813 -2.02E-03
    18 OT LS       0.16E+00    1.1                     -293.1956946240
    19 OT CG       0.16E+00    1.8     0.00179796      -293.1956948146 -4.93E-04
    20 OT LS       0.71E-01    1.1                     -293.1954322626

  Leaving inner SCF loop after reaching    20 steps.


  Electronic density on regular grids:        -32.7933555570        5.2066444430
  Core density on regular grids:               38.0000000000        0.0000000000
  Hard and soft densities (Lebedev):          -56.9002050441      -51.6935610571
  Total Rho_soft + Rho1_hard - Rho1_soft      -37.9999995441
  Total charge density (r-space):               0.0000004559
  Total Rho_soft + Rho0_soft (g-space):         0.0000001710

  Overlap energy of the core charge distribution:               0.00000000521971
  Self energy of the core charge distribution:               -346.51334610238536
  Core Hamiltonian energy:                                      8.51001162054578
  Hartree energy:                                             151.59616086791345
  Exchange-correlation energy:                                -18.84296762327185

  GAPW| Exc from hard and soft atomic rho1:                   -14.29749262125461
  GAPW| local Eh = 1 center integrals:                        -73.64779840934285

  Total energy:                                              -293.19543226257576

  outer SCF iter =    1 RMS gradient =   0.18E-02 energy =       -293.1954322626

  ----------------------------------- OT ---------------------------------------
  Minimizer      : CG                  : conjugate gradient
  Preconditioner : FULL_ALL            : diagonalization, state selective
  Precond_solver : DEFAULT
  Line search    : 2PNT                : 2 energies, one gradient
  stepsize       :    0.10000000                  energy_gap     :    0.08000000
  eps_taylor     :   0.10000E-15                  max_taylor     :             4
  ----------------------------------- OT ---------------------------------------

  Step     Update method      Time    Convergence         Total energy    Change
  ------------------------------------------------------------------------------
     1 OT CG       0.10E+00    2.9     0.00064869      -293.1962690530 -5.74E-04
     2 OT LS       0.54E-01    1.1                     -293.1962822515
     3 OT CG       0.54E-01    1.8     0.00037554      -293.1963228998 -5.38E-05
     4 OT LS       0.99E-01    1.1                     -293.1963492235
     5 OT CG       0.99E-01    1.8     0.00012923      -293.1963562048 -3.33E-05
     6 OT LS       0.12E+00    1.1                     -293.1963608933
     7 OT CG       0.12E+00    1.8     0.00011315      -293.1963610635 -4.86E-06
     8 OT LS       0.56E-01    1.1                     -293.1963604497
     9 OT CG       0.56E-01    1.8     0.00001094      -293.1963627803 -1.72E-06
    10 OT LS       0.16E+00    1.1                     -293.1963628067
    11 OT CG       0.16E+00    1.8     0.00000455      -293.1963628250 -4.47E-08
    12 OT LS       0.45E-01    1.1                     -293.1963628134
    13 OT CG       0.45E-01    1.8     0.00000190      -293.1963628273 -2.21E-09
    14 OT LS       0.13E+00    1.1                     -293.1963628279
    15 OT CG       0.13E+00    1.8     0.00000040      -293.1963628284 -1.12E-09
    16 OT LS       0.12E+00    1.1                     -293.1963628284
    17 OT CG       0.12E+00    1.8     0.00000035      -293.1963628284 -4.40E-11
    18 OT LS       0.59E-01    1.1                     -293.1963628284
    19 OT CG       0.59E-01    1.8     0.00000007      -293.1963628284 -1.72E-11

  *** SCF run converged in    19 steps ***


  Electronic density on regular grids:        -32.7868130942        5.2131869058
  Core density on regular grids:               38.0000000000        0.0000000000
  Hard and soft densities (Lebedev):          -56.8981267249      -51.6849402811
  Total Rho_soft + Rho1_hard - Rho1_soft      -37.9999995380
  Total charge density (r-space):               0.0000004620
  Total Rho_soft + Rho0_soft (g-space):         0.0000001772

  Overlap energy of the core charge distribution:               0.00000000521971
  Self energy of the core charge distribution:               -346.51334610238536
  Core Hamiltonian energy:                                      8.62415031882550
  Hartree energy:                                             151.50253268486512
  Exchange-correlation energy:                                -18.85878974734584

  GAPW| Exc from hard and soft atomic rho1:                   -14.30726450795559
  GAPW| local Eh = 1 center integrals:                        -73.64364547965339

  Total energy:                                              -293.19636282842987

  outer SCF iter =    2 RMS gradient =   0.69E-07 energy =       -293.1963628284
  outer SCF loop converged in   2 iterations or   39 steps


 ENERGY| Total FORCE_EVAL ( QS ) energy [a.u.]:             -293.196362828429869

 -------------------------------------------------------------------------------
 -                                                                             -
 -                                DBCSR STATISTICS                             -
 -                                                                             -
 -------------------------------------------------------------------------------
 COUNTER                                    TOTAL       BLAS       SMM       ACC
 flops    19 x    19 x    19              2318342       0.0%    100.0%      0.0%
 flops    19 x    19 x    81              5906682       0.0%    100.0%      0.0%
 flops    81 x    57 x    19              7017840       0.0%    100.0%      0.0%
 flops    81 x    81 x    19              9972720       0.0%    100.0%      0.0%
 flops   114 x    19 x    19             11523120       0.0%    100.0%      0.0%
 flops    19 x    19 x    57             12469662       0.0%    100.0%      0.0%
 flops   138 x    19 x    19             13949040       0.0%    100.0%      0.0%
 flops    57 x    81 x    19             14035680       0.0%    100.0%      0.0%
 flops   114 x    19 x    81             15439248       0.0%    100.0%      0.0%
 flops    81 x    19 x    81             17701578       0.0%    100.0%      0.0%
 flops   138 x    19 x    81             18689616       0.0%    100.0%      0.0%
 flops    57 x    57 x    19             29630880       0.0%    100.0%      0.0%
 flops   114 x    19 x    57             32593968       0.0%    100.0%      0.0%
 flops    57 x    19 x    81             37369998       0.0%    100.0%      0.0%
 flops    81 x    19 x    57             37369998       0.0%    100.0%      0.0%
 flops   138 x    19 x    57             39455856       0.0%    100.0%      0.0%
 flops    57 x    19 x    57             78892218       0.0%    100.0%      0.0%
 flops inhomo. stacks                           0       0.0%      0.0%      0.0%
 flops total                       384.336446E+06       0.0%    100.0%      0.0%
 flops max/rank                    203.605406E+06       0.0%    100.0%      0.0%
 matmuls inhomo. stacks                         0       0.0%      0.0%      0.0%
 matmuls total                               2741       0.0%    100.0%      0.0%
 number of processed stacks                  2417       0.0%    100.0%      0.0%
 average stack size                                     0.0       1.1       0.0
 marketing flops                   420.569856E+06
 -------------------------------------------------------------------------------
 # multiplications                            567
 max memory usage/rank             518.746112E+06
 # max total images/rank                        3
 # max 3D layers                                1
 # MPI messages exchanged                   54432
 MPI messages size (bytes):
  total size                       359.074080E+06
  min size                           0.000000E+00
  max size                          89.424000E+03
  average size                       6.596746E+03
 MPI breakdown and total messages size (bytes):
             size <=      128               43834                        0
       128 < size <=     8192                1154                  3332752
      8192 < size <=    32768                4844                 63622944
     32768 < size <=   131072                4600                292118400
    131072 < size <=  4194304                   0                        0
   4194304 < size <= 16777216                   0                        0
  16777216 < size                               0                        0
 -------------------------------------------------------------------------------

 *** WARNING in dbcsr_mm.F:290 :: Using a non-square number of MPI ranks ***
 *** might lead to poor performance. Used ranks: 12 Suggested: 9 25      ***

 -------------------------------------------------------------------------------
 -                                                                             -
 -                      DBCSR MESSAGE PASSING PERFORMANCE                      -
 -                                                                             -
 -------------------------------------------------------------------------------
 ROUTINE             CALLS      AVE VOLUME [Bytes]
 MP_Bcast               18                     12.
 MP_Allreduce         2902                      8.
 MP_Alltoall          2150                   2932.
 MP_ISend            11800                   4353.
 MP_IRecv            11376                   2597.
 -------------------------------------------------------------------------------

 -------------------------------------------------------------------------------
 -                                                                             -
 -                                GRID STATISTICS                              -
 -                                                                             -
 -------------------------------------------------------------------------------
 LP    KERNEL             BACKEND                              COUNT     PERCENT
 2     collocate ortho    REF                                  43840      15.90%
 3     collocate ortho    REF                                  36560      13.26%
 1     collocate ortho    REF                                  36320      13.18%
 4     collocate ortho    REF                                  27080       9.82%
 2     integrate ortho    REF                                  21920       7.95%
 3     integrate ortho    REF                                  18280       6.63%
 1     integrate ortho    REF                                  18160       6.59%
 5     collocate ortho    REF                                  14840       5.38%
 0     collocate ortho    REF                                  13600       4.93%
 4     integrate ortho    REF                                  13540       4.91%
 5     integrate ortho    REF                                   7420       2.69%
 0     integrate ortho    REF                                   6800       2.47%
 6     collocate ortho    REF                                   6120       2.22%
 6     integrate ortho    REF                                   3060       1.11%
 7     collocate ortho    REF                                   2280       0.83%
 2     collocate general  REF                                   1872       0.68%
 2     integrate general  REF                                   1872       0.68%
 7     integrate ortho    REF                                   1140       0.41%
 8     collocate ortho    REF                                    640       0.23%
 8     integrate ortho    REF                                    320       0.12%
 -------------------------------------------------------------------------------

 MEMORY| Estimated peak process memory [MiB]                                 495

 -------------------------------------------------------------------------------
 -                                                                             -
 -                         MESSAGE PASSING PERFORMANCE                         -
 -                                                                             -
 -------------------------------------------------------------------------------

 ROUTINE             CALLS      AVE VOLUME [Bytes]
 MP_Group                4
 MP_Bcast              806                 284010.
 MP_Allreduce         2131                 172101.
 MP_Sync                56
 MP_Alltoall           608               19074144.
 MP_ISendRecv         1980                 338304.
 MP_Wait              4602
 MP_comm_split          26
 MP_ISend             2208                1174860.
 MP_IRecv             2208                1174860.
 MP_Recv                 8                   8064.
 -------------------------------------------------------------------------------


 -------------------------------------------------------------------------------
 -                                                                             -
 -                           R E F E R E N C E S                               -
 -                                                                             -
 -------------------------------------------------------------------------------
 
 CP2K version 10.0 (Development Version), the CP2K developers group (2022).
 CP2K is freely available from https://www.cp2k.org/ .

 Kuehne,Thomas D.; Iannuzzi,Marcella; Del Ben,Mauro;
 Rybkin,Vladimir V.; Seewald,Patrick; Stein,Frederick; Laino,Teodoro;
 Khaliullin,Rustam Z.; Schuett,Ole; Schiffmann,Florian; Golze,Dorothea;
 Wilhelm,Jan; Chulkov,Sergey; Bani-Hashemian,Mohammad Hossein;
 Weber,Valery; Borstnik,Urban; Taillefumier,Mathieu;
 Jakobovits,Alice Shoshana; Lazzaro,Alfio; Pabst,Hans; Mueller,Tiziano;
 Schade,Robert; Guidon,Manuel; Andermatt,Samuel; Holmberg,Nico;
 Schenter,Gregory K.; Hehn,Anna; Bussy,Augustin; Belleflamme,Fabian;
 Tabacchi,Gloria; Gloess,Andreas; Lass,Michael; Bethune,Iain;
 Mundy,Christopher J.; Plessl,Christian; Watkins,Matt;
 VandeVondele,Joost; Krack,Matthias; Hutter,Juerg. 
 The Journal of Chemical Physics, 152 (19), (2020). 
 CP2K: An electronic structure and molecular dynamics software package -
 Quickstep: Efficient and accurate electronic structure calculations.
 https://doi.org/10.1063/5.0007045

 Schuett, Ole; Messmer, Peter; Hutter, Juerg; VandeVondele, Joost. 
 Electronic Structure Calculations on Graphics Processing Units, John
 Wiley & Sons, Ltd, 173-190 (2016). 
 GPU-Accelerated Sparse Matrix-Matrix Multiplication for
 Linear Scaling Density Functional Theory.
 https://doi.org/10.1002/9781118670712.ch8

 Heinecke, A; Henry, G; Hutchinson, M; Pabst, H. 
 Proceedings of Intl. Supercomputing Conference, 981-991 (2016). 
 LIBXSMM: Accelerating Small Matrix Multiplications
 by Runtime Code Generation.
 https://doi.org/10.1109/SC.2016.83

 Borstnik, U; VandeVondele, J; Weber, V; Hutter, J. 
 PARALLEL COMPUTING, 40 (5-6), 47-58 (2014). 
 Sparse matrix multiplication: The distributed block-compressed sparse
 row library.
 https://doi.org/10.1016/j.parco.2014.03.012

 Hutter, J; Iannuzzi, M; Schiffmann, F; VandeVondele, J. 
 WIREs Comput Mol Sci., 4 (1), 15-25 (2014). 
 CP2K: atomistic simulations of condensed matter systems.
 https://doi.org/10.1002/wcms.1159

 Marek, A; Blum, V; Johanni, R; Havu, V; Lang, B; Auckenthaler, T;
 Heinecke, A; Bungartz, H; Lederer, H. 
 Journal of Physics: Condensed Matter, 26 (21), (2014). 
 The ELPA library: scalable parallel eigenvalue solutions for
 electronic structure
 theory and computational science.
 https://doi.org/10.1088/0953-8984/26/21/213201

 Krack, M. 
 THEORETICAL CHEMISTRY ACCOUNTS, 114 (1-3), 145-152 (2005). 
 Pseudopotentials for H to Kr optimized for gradient-corrected
 exchange-correlation functionals.
 https://doi.org/10.1007/s00214-005-0655-y

 Frigo, M; Johnson, SG. 
 PROCEEDINGS OF THE IEEE, 93 (2), 216-231 (2005). 
 The design and implementation of FFTW3.
 https://doi.org/10.1109/JPROC.2004.840301

 VandeVondele, J; Hutter, J. 
 JOURNAL OF CHEMICAL PHYSICS, 118 (10), 4365-4369 (2003). 
 An efficient orbital transformation method for electronic structure
 calculations.
 https://doi.org/10.1063/1.1543154

 Lippert, G; Hutter, J; Parrinello, M. 
 THEORETICAL CHEMISTRY ACCOUNTS, 103 (2), 124-140 (1999). 
 The Gaussian and augmented-plane-wave density functional method for ab
 initio molecular dynamics simulations.
 https://doi.org/10.1007/s002140050523

 Krack, M; Parrinello, M. 
 PHYSICAL CHEMISTRY CHEMICAL PHYSICS, 2 (10), 2105-2112 (2000). 
 All-electron ab-initio molecular dynamics.
 https://doi.org/10.1039/b001167n

 Hartwigsen, C; Goedecker, S; Hutter, J. 
 PHYSICAL REVIEW B, 58 (7), 3641-3662 (1998). 
 Relativistic separable dual-space Gaussian pseudopotentials from H to Rn.
 https://doi.org/10.1103/PhysRevB.58.3641

 Perdew, JP; Burke, K; Ernzerhof, M. 
 PHYSICAL REVIEW LETTERS, 77 (18), 3865-3868 (1996). 
 Generalized gradient approximation made simple.
 https://doi.org/10.1103/PhysRevLett.77.3865

 Goedecker, S; Teter, M; Hutter, J. 
 PHYSICAL REVIEW B, 54 (3), 1703-1710 (1996). 
 Separable dual-space Gaussian pseudopotentials.
 https://doi.org/10.1103/PhysRevB.54.1703


 -------------------------------------------------------------------------------
 -                                                                             -
 -                                T I M I N G                                  -
 -                                                                             -
 -------------------------------------------------------------------------------
 SUBROUTINE                       CALLS  ASD         SELF TIME        TOTAL TIME
                                MAXIMUM       AVERAGE  MAXIMUM  AVERAGE  MAXIMUM
 CP2K                                 1  1.0    0.011    0.035   57.427   57.428
 qs_energies                          1  2.0    0.000    0.000   56.998   56.998
 scf_env_do_scf                       1  3.0    0.000    0.000   56.041   56.042
 scf_env_do_scf_inner_loop           39  4.0    0.001    0.002   52.874   52.874
 qs_ks_update_qs_env                 41  5.0    0.000    0.000   46.496   46.784
 rebuild_ks_matrix                   39  6.0    0.000    0.000   46.490   46.781
 qs_ks_build_kohn_sham_matrix        39  7.0    0.007    0.008   46.489   46.781
 pw_transfer                        653  9.9    0.063    0.081   19.081   19.374
 qs_vxc_create                       39  8.0    0.001    0.001   19.162   19.162
 fft_wrap_pw1pw2                    536 11.0    0.007    0.009   18.871   19.157
 fft_wrap_pw1pw2_300                356 12.5    0.923    1.070   17.886   18.326
 fft3d_ps                           536 13.0    7.812    8.904   14.074   14.679
 xc_rho_set_and_dset_create          39 10.0    0.108    0.147   13.678   14.625
 xc_vxc_pw_create                    20  9.0    0.084    0.094   12.058   12.059
 prepare_gapw_den                    39  8.0    0.001    0.001   11.165   11.351
 xc_pw_derive                       177 11.0    0.002    0.002    9.948   10.169
 mp_sum_d                          1163  6.6    8.454   10.123    8.454   10.123
 qs_rho_update_rho                   40  5.0    0.000    0.001    8.778    8.781
 calculate_rho_elec                  40  6.0    0.085    0.088    8.062    8.062
 xc_functional_eval                 195 10.6    0.001    0.002    7.237    7.959
 pbe_lda_eval                       195 11.6    7.237    7.959    7.237    7.959
 calculate_vxc_atom                  39  8.0    0.223    1.770    7.406    7.407
 calculate_rho_atom                  78  9.0    2.811    7.369    2.811    7.369
 xc_exc_calc                         19  9.0    0.041    0.042    7.103    7.103
 mp_alltoall_z22v                   536 15.0    4.179    6.582    4.179    6.582
 density_rs2pw                       40  7.0    0.002    0.002    6.266    6.449
 mp_sum_dv                          574 12.7    4.473    5.511    4.473    5.511
 xc_pw_divergence                    20 10.0    0.001    0.001    4.758    4.963
 rs_pw_transfer                     318  9.1    0.006    0.009    4.612    4.929
 gaVxcgb_GC                          40  9.0    0.540    4.786    0.540    4.786
 yz_to_x                            279 13.4    0.923    1.337    3.177    4.156
 x_to_yz                            257 14.8    1.146    1.562    3.071    3.769
 put_rho0_on_grid                    39  9.0    0.089    0.101    3.206    3.392
 sum_up_and_integrate                20  8.0    0.018    0.021    3.204    3.206
 integrate_v_rspace                  20  9.0    0.001    0.001    3.186    3.191
 init_scf_loop                        2  4.0    0.000    0.000    3.167    3.167
 rs_pw_transfer_RS2PW_300            79 10.0    1.063    1.329    2.242    2.582
 integrate_vhg0_rspace               39  8.0    0.337    0.420    2.464    2.485
 pw_scatter_p                       257 13.8    2.078    2.414    2.078    2.414
 pw_gather_p                        279 12.4    1.751    2.359    1.751    2.359
 mp_waitany                        2208 11.3    1.547    2.322    1.547    2.322
 potential_pw2rs                     20 10.0    0.003    0.003    2.236    2.239
 grid_collocate_task_list            40  7.0    1.416    1.791    1.416    1.791
 rs_pw_transfer_PW2RS_300            59 10.7    0.805    0.959    1.590    1.743
 mp_sum_dm                          476  7.7    1.443    1.742    1.443    1.742
 dbcsr_multiply_generic             567  9.8    0.017    0.019    1.168    1.261
 -------------------------------------------------------------------------------

 The number of warnings for this run is : 1
 
 -------------------------------------------------------------------------------
  **** **** ******  **  PROGRAM ENDED AT                 2022-05-30 18:15:00.816
 ***** ** ***  *** **   PROGRAM RAN ON                                   tcopt10
 **    ****   ******    PROGRAM RAN BY                                    hutter
 ***** **    ** ** **   PROGRAM PROCESS ID                                 81652
  **** **  *******  **  PROGRAM STOPPED IN /data/hutter/GITHUB/BASIS/scMOLOPT/PB
                                           E/Mo
