 DBCSR| CPU Multiplication driver                                           XSMM
 DBCSR| Multrec recursion limit                                              512
 DBCSR| Multiplication stack size                                           1000
 DBCSR| Maximum elements for images                                    UNLIMITED
 DBCSR| Multiplicative factor virtual images                                   1
 DBCSR| Use multiplication densification                                       T
 DBCSR| Multiplication size stacks                                             3
 DBCSR| Use memory pool for CPU allocation                                     F
 DBCSR| Number of 3D layers                                               SINGLE
 DBCSR| Use MPI memory allocation                                              F
 DBCSR| Use RMA algorithm                                                      F
 DBCSR| Use Communication thread                                               T
 DBCSR| Communication thread load                                             87
 DBCSR| MPI: My node id                                                        0
 DBCSR| MPI: Number of nodes                                                  32
 DBCSR| OMP: Current number of threads                                         1
 DBCSR| OMP: Max number of threads                                             1
 DBCSR| Split modifier for TAS multiplication algorithm                  1.0E+00


  **** **** ******  **  PROGRAM STARTED AT               2020-12-17 18:08:27.247
 ***** ** ***  *** **   PROGRAM STARTED ON                               tcopt10
 **    ****   ******    PROGRAM STARTED BY                                hutter
 ***** **    ** ** **   PROGRAM PROCESS ID                                  8682
  **** **  *******  **  PROGRAM STARTED IN /data/hutter/GITHUB/BASIS/MOLOPT/PBE0
                                           /Br

 CP2K| version string:                    CP2K version 8.0 (Development Version)
 CP2K| source code revision number:                                  git:7416431
 CP2K| cp2kflags: omp libint fftw3 libxc elpa parallel mpi3 scalapack xsmm spgli
 CP2K|            b sirius
 CP2K| is freely available from                            https://www.cp2k.org/
 CP2K| Program compiled at                          Thu Dec 10 17:08:57 CET 2020
 CP2K| Program compiled on                                               tcopt10
 CP2K| Program compiled for                                                local
 CP2K| Data directory path                 /data/hutter/GITHUB/CURRENT/cp2k/data
 CP2K| Input file name                                              BrCl-ref.inp

 GLOBAL| Force Environment number                                              1
 GLOBAL| Basis set file name                                  ../PBE0_UCSEGBASIS
 GLOBAL| Potential file name                                        ../POTENTIAL
 GLOBAL| MM Potential file name                                     MM_POTENTIAL
 GLOBAL| Coordinate file name                                      __STD_INPUT__
 GLOBAL| Method name                                                        CP2K
 GLOBAL| Project name                                                    refBrCl
 GLOBAL| Preferred FFT library                                             FFTW3
 GLOBAL| Preferred diagonalization lib.                                     ELPA
 GLOBAL| Run type                                                         ENERGY
 GLOBAL| All-to-all communication in single precision                          F
 GLOBAL| FFTs using library dependent lengths                                  F
 GLOBAL| Global print level                                                  LOW
 GLOBAL| MPI I/O enabled                                                       T
 GLOBAL| Total number of message passing processes                            32
 GLOBAL| Number of threads for this process                                    1
 GLOBAL| This output is from process                                           0
 GLOBAL| CPU model name                          AMD EPYC 7401 24-Core Processor
 GLOBAL| CPUID                                                              1002

 MEMORY| system memory details [Kb]
 MEMORY|                        rank 0           min           max       average
 MEMORY| MemTotal            263987256     263987256     263987256     263987256
 MEMORY| MemFree             260221928     260221928     260221928     260221928
 MEMORY| Buffers                    32            32            32            32
 MEMORY| Cached                 555004        555004        555004        555004
 MEMORY| Slab                   776096        776096        776096        776096
 MEMORY| SReclaimable           283564        283564        283564        283564
 MEMORY| MemLikelyFree       261060528     261060528     261060528     261060528


 GENERATE|  Preliminary Number of Bonds generated:                             0
 GENERATE|  Achieved consistency in connectivity generation.

 *******************************************************************************
 *******************************************************************************
 **                                                                           **
 **     #####                         ##              ##                      **
 **    ##   ##            ##          ##              ##                      **
 **   ##     ##                       ##            ######                    **
 **   ##     ##  ##   ##  ##   #####  ##  ##   ####   ##    #####    #####    **
 **   ##     ##  ##   ##  ##  ##      ## ##   ##      ##   ##   ##  ##   ##   **
 **   ##  ## ##  ##   ##  ##  ##      ####     ###    ##   ######   ######    **
 **    ##  ###   ##   ##  ##  ##      ## ##      ##   ##   ##       ##        **
 **     #######   #####   ##   #####  ##  ##  ####    ##    #####   ##        **
 **           ##                                                    ##        **
 **                                                                           **
 **                                                ... make the atoms dance   **
 **                                                                           **
 **            Copyright (C) by CP2K developers group (2000 - 2020)           **
 **                      J. Chem. Phys. 152, 194103 (2020)                    **
 **                                                                           **
 *******************************************************************************


 TOTAL NUMBERS AND MAXIMUM NUMBERS

  Total number of            - Atomic kinds:                                   2
                             - Atoms:                                          2
                             - Shell sets:                                    20
                             - Shells:                                        52
                             - Primitive Cartesian functions:                 20
                             - Cartesian basis functions:                    252
                             - Spherical basis functions:                    196

  Maximum angular momentum of- Orbital basis functions:                        4
                             - Local part of the GTH pseudopotential:          0
                             - Non-local part of the GTH pseudopotential:      4


 SCF PARAMETERS         Density guess:                                    ATOMIC
                        --------------------------------------------------------
                        max_scf:                                              10
                        max_scf_history:                                       0
                        max_diis:                                              4
                        --------------------------------------------------------
                        eps_scf:                                        1.00E-07
                        eps_scf_history:                                0.00E+00
                        eps_diis:                                       1.00E-01
                        eps_eigval:                                     1.00E-05
                        --------------------------------------------------------
                        level_shift [a.u.]:                                 0.00
                        --------------------------------------------------------
                        Outer loop SCF in use 
                        No variables optimised in outer loop
                        eps_scf                                         1.00E-07
                        max_scf                                               10
                        No outer loop optimization
                        step_size                                       5.00E-01

 Number of electrons:                                                         14
 Number of occupied orbitals:                                                  7
 Number of molecular orbitals:                                                 7

 Number of orbital functions:                                                196
 Number of independent orbital functions:                                    196

 Extrapolation method: initial_guess


 SCF WAVEFUNCTION OPTIMIZATION

  ----------------------------------- OT ---------------------------------------
  Minimizer      : DIIS                : direct inversion
                                         in the iterative subspace
                                         using   7 DIIS vectors
                                         safer DIIS on
  Preconditioner : FULL_ALL            : diagonalization, state selective
  Precond_solver : DEFAULT
  stepsize       :    0.15000000                  energy_gap     :    0.08000000
  eps_taylor     :   0.10000E-15                  max_taylor     :             4
  ----------------------------------- OT ---------------------------------------

  Step     Update method      Time    Convergence         Total energy    Change
  ------------------------------------------------------------------------------
     1 OT DIIS     0.15E+00   34.2     0.06399290       -27.8571384875 -2.79E+01
     2 OT DIIS     0.15E+00    2.4     0.09659503       -27.9149101063 -5.78E-02
     3 OT DIIS     0.15E+00    2.3     0.03823548       -28.2169706463 -3.02E-01
     4 OT DIIS     0.15E+00    2.3     0.02270841       -28.2965305203 -7.96E-02
     5 OT DIIS     0.15E+00    2.3     0.02174614       -28.3541760631 -5.76E-02
     6 OT DIIS     0.15E+00    2.3     0.01442153       -28.4005776217 -4.64E-02
     7 OT DIIS     0.15E+00    2.3     0.01427473       -28.4299918063 -2.94E-02
     8 OT DIIS     0.15E+00    2.4     0.00575699       -28.4410382193 -1.10E-02
     9 OT DIIS     0.15E+00    2.3     0.00370042       -28.4435347181 -2.50E-03
    10 OT DIIS     0.15E+00    2.4     0.00486579       -28.4429834266  5.51E-04

  Leaving inner SCF loop after reaching    10 steps.


  Electronic density on regular grids:        -14.0000000000       -0.0000000000
  Core density on regular grids:               14.0000000000       -0.0000000000
  Total charge density on r-space grids:       -0.0000000000
  Total charge density g-space grids:          -0.0000000000

  Overlap energy of the core charge distribution:               0.00000000102786
  Self energy of the core charge distribution:                -61.73326890188649
  Core Hamiltonian energy:                                     13.87563062362729
  Hartree energy:                                              24.88228599278112
  Exchange-correlation energy:                                 -4.21993034822990
  Hartree-Fock Exchange energy:                                -1.24770079396706

  Total energy:                                               -28.44298342664719

  outer SCF iter =    1 RMS gradient =   0.49E-02 energy =        -28.4429834266

  ----------------------------------- OT ---------------------------------------
  Minimizer      : DIIS                : direct inversion
                                         in the iterative subspace
                                         using   7 DIIS vectors
                                         safer DIIS on
  Preconditioner : FULL_ALL            : diagonalization, state selective
  Precond_solver : DEFAULT
  stepsize       :    0.15000000                  energy_gap     :    0.08000000
  eps_taylor     :   0.10000E-15                  max_taylor     :             4
  ----------------------------------- OT ---------------------------------------

  Step     Update method      Time    Convergence         Total energy    Change
  ------------------------------------------------------------------------------
     1 OT DIIS     0.15E+00    4.7     0.00139380       -28.4446602712 -1.68E-03
     2 OT DIIS     0.15E+00    2.3     0.00056378       -28.4449294432 -2.69E-04
     3 OT DIIS     0.15E+00    2.3     0.00016587       -28.4449854601 -5.60E-05
     4 OT DIIS     0.15E+00    2.3     0.00005498       -28.4449900977 -4.64E-06
     5 OT DIIS     0.15E+00    2.3     0.00002220       -28.4449904554 -3.58E-07
     6 OT DIIS     0.15E+00    2.3     0.00000772       -28.4449905516 -9.62E-08
     7 OT DIIS     0.15E+00    2.3     0.00000182       -28.4449905657 -1.42E-08
     8 OT DIIS     0.15E+00    2.4     0.00000036       -28.4449905664 -7.15E-10
     9 OT DIIS     0.15E+00    2.3     0.00000014       -28.4449905665 -2.22E-11
    10 OT DIIS     0.15E+00    2.4     0.00000004       -28.4449905665 -3.39E-12

  *** SCF run converged in    10 steps ***


  Electronic density on regular grids:        -14.0000000000       -0.0000000000
  Core density on regular grids:               14.0000000000       -0.0000000000
  Total charge density on r-space grids:       -0.0000000000
  Total charge density g-space grids:          -0.0000000000

  Overlap energy of the core charge distribution:               0.00000000102786
  Self energy of the core charge distribution:                -61.73326890188649
  Core Hamiltonian energy:                                     13.87091045399340
  Hartree energy:                                              24.88457228482309
  Exchange-correlation energy:                                 -4.21958214455150
  Hartree-Fock Exchange energy:                                -1.24762225987455

  Total energy:                                               -28.44499056646819

  outer SCF iter =    2 RMS gradient =   0.39E-07 energy =        -28.4449905665
  outer SCF loop converged in   2 iterations or   20 steps


 ENERGY| Total FORCE_EVAL ( QS ) energy [a.u.]:              -28.444990566468189

 -------------------------------------------------------------------------------
 -                                                                             -
 -                                DBCSR STATISTICS                             -
 -                                                                             -
 -------------------------------------------------------------------------------
 COUNTER                                    TOTAL       BLAS       SMM       ACC
 flops     7 x     7 x     7                96040       0.0%    100.0%      0.0%
 flops     7 x     7 x    80               642880       0.0%    100.0%      0.0%
 flops     7 x     7 x   116               932176       0.0%    100.0%      0.0%
 flops    80 x    80 x     7              1881600       0.0%    100.0%      0.0%
 flops   196 x     7 x     7              1959216       0.0%    100.0%      0.0%
 flops   116 x    80 x     7              2728320       0.0%    100.0%      0.0%
 flops   116 x   116 x     7              3956064       0.0%    100.0%      0.0%
 flops    80 x     7 x    80              4838400       0.0%    100.0%      0.0%
 flops   116 x     7 x    80              7015680       0.0%    100.0%      0.0%
 flops    80 x     7 x   116              7015680       0.0%    100.0%      0.0%
 flops   196 x     7 x    80              9658880       0.0%    100.0%      0.0%
 flops   116 x     7 x   116             10172736       0.0%    100.0%      0.0%
 flops   196 x     7 x   116             14005376       0.0%    100.0%      0.0%
 flops inhomo. stacks                           0       0.0%      0.0%      0.0%
 flops total                        64.903048E+06       0.0%    100.0%      0.0%
 flops max/rank                     60.293128E+06       0.0%    100.0%      0.0%
 matmuls inhomo. stacks                         0       0.0%      0.0%      0.0%
 matmuls total                                773       0.0%    100.0%      0.0%
 number of processed stacks                   773       0.0%    100.0%      0.0%
 average stack size                                     0.0       1.0       0.0
 marketing flops                    67.669896E+06
 -------------------------------------------------------------------------------
 # multiplications                            445
 max memory usage/rank               1.704276E+09
 # max total images/rank                        2
 # max 3D layers                                1
 # MPI messages exchanged                  185120
 MPI messages size (bytes):
  total size                       233.864848E+06
  min size                           0.000000E+00
  max size                         181.888000E+03
  average size                       1.263315E+03
 MPI breakdown and total messages size (bytes):
             size <=      128              178827                        0
       128 < size <=     8192                4060                 13587504
      8192 < size <=    32768                 861                  9450336
     32768 < size <=   131072                 686                 86051840
    131072 < size <=  4194304                 686                124775168
   4194304 < size <= 16777216                   0                        0
  16777216 < size                               0                        0
 -------------------------------------------------------------------------------

 *** WARNING in dbcsr_mm.F:294 :: Using a non-square number of MPI ranks ***
 *** might lead to poor performance. Used ranks: 32 Suggested: 36 64     ***

 -------------------------------------------------------------------------------
 -                                                                             -
 -                      DBCSR MESSAGE PASSING PERFORMANCE                      -
 -                                                                             -
 -------------------------------------------------------------------------------
 ROUTINE             CALLS      AVE VOLUME [Bytes]
 MP_Bcast               14                     12.
 MP_Allreduce         2399                      8.
 MP_Alltoall          1742                   4115.
 MP_ISend            13592                   3548.
 MP_IRecv            13386                   2225.
 -------------------------------------------------------------------------------

 -------------------------------------------------------------------------------
 -                                                                             -
 -                                GRID STATISTICS                              -
 -                                                                             -
 -------------------------------------------------------------------------------
 LP    KERNEL    OPERATION                                     COUNT     PERCENT
 0     general   collocate                                        64       0.52%
 2     ortho     integrate                                      2180      17.63%
 2     ortho     collocate                                      2289      18.51%
 4     ortho     integrate                                      1280      10.35%
 4     ortho     collocate                                      1344      10.87%
 5     ortho     integrate                                      1580      12.78%
 5     ortho     collocate                                      1659      13.42%
 6     ortho     integrate                                       320       2.59%
 6     ortho     collocate                                       336       2.72%
 7     ortho     integrate                                       320       2.59%
 7     ortho     collocate                                       336       2.72%
 8     ortho     integrate                                       320       2.59%
 8     ortho     collocate                                       336       2.72%
 -------------------------------------------------------------------------------

 MEMORY| Estimated peak process memory [MiB]                                1626

 -------------------------------------------------------------------------------
 -                                                                             -
 -                         MESSAGE PASSING PERFORMANCE                         -
 -                                                                             -
 -------------------------------------------------------------------------------

 ROUTINE             CALLS      AVE VOLUME [Bytes]
 MP_Group                5
 MP_Bcast              225                 692549.
 MP_Allreduce          673                   5789.
 MP_Sync               121
 MP_Alltoall           402               31331784.
 MP_ISendRecv         3844                 165333.
 MP_Wait              6002
 MP_comm_split          14
 MP_ISend             1826                1055986.
 MP_IRecv             1826                1055744.
 MP_Recv                 6                   1568.
 -------------------------------------------------------------------------------


 -------------------------------------------------------------------------------
 -                                                                             -
 -                           R E F E R E N C E S                               -
 -                                                                             -
 -------------------------------------------------------------------------------
 
 CP2K version 8.0 (Development Version), the CP2K developers group (2020).
 CP2K is freely available from https://www.cp2k.org/ .

 Kuehne,Thomas D.; Iannuzzi,Marcella; Del Ben,Mauro;
 Rybkin,Vladimir V.; Seewald,Patrick; Stein,Frederick; Laino,Teodoro;
 Khaliullin,Rustam Z.; Schuett,Ole; Schiffmann,Florian; Golze,Dorothea;
 Wilhelm,Jan; Chulkov,Sergey; Bani-Hashemian,Mohammad Hossein;
 Weber,Valery; Borstnik,Urban; Taillefumier,Mathieu;
 Jakobovits,Alice Shoshana; Lazzaro,Alfio; Pabst,Hans; Mueller,Tiziano;
 Schade,Robert; Guidon,Manuel; Andermatt,Samuel; Holmberg,Nico;
 Schenter,Gregory K.; Hehn,Anna; Bussy,Augustin; Belleflamme,Fabian;
 Tabacchi,Gloria; Gloess,Andreas; Lass,Michael; Bethune,Iain;
 Mundy,Christopher J.; Plessl,Christian; Watkins,Matt;
 VandeVondele,Joost; Krack,Matthias; Hutter,Juerg. 
 The Journal of Chemical Physics, 152 (19), (2020). 
 CP2K: An electronic structure and molecular dynamics software package -
 Quickstep: Efficient and accurate electronic structure calculations.
 https://doi.org/10.1063/5.0007045

 Schuett, Ole; Messmer, Peter; Hutter, Juerg; VandeVondele, Joost. 
 Electronic Structure Calculations on Graphics Processing Units, John
 Wiley & Sons, Ltd, 173-190 (2016). 
 GPU-Accelerated Sparse Matrix-Matrix Multiplication for
 Linear Scaling Density Functional Theory.
 https://doi.org/10.1002/9781118670712.ch8

 Borstnik, U; VandeVondele, J; Weber, V; Hutter, J. 
 PARALLEL COMPUTING, 40 (5-6), 47-58 (2014). 
 Sparse matrix multiplication: The distributed block-compressed sparse
 row library.
 https://doi.org/10.1016/j.parco.2014.03.012

 Hutter, J; Iannuzzi, M; Schiffmann, F; VandeVondele, J. 
 WIREs Comput Mol Sci., 4 (1), 15-25 (2014). 
 CP2K: atomistic simulations of condensed matter systems.
 https://doi.org/10.1002/wcms.1159

 Marek, A; Blum, V; Johanni, R; Havu, V; Lang, B; Auckenthaler, T;
 Heinecke, A; Bungartz, H; Lederer, H. 
 Journal of Physics: Condensed Matter, 26 (21), (2014). 
 The ELPA library: scalable parallel eigenvalue solutions for
 electronic structure
 theory and computational science.
 https://doi.org/10.1088/0953-8984/26/21/213201

 Guidon, M; Hutter, J; VandeVondele, J. 
 JOURNAL OF CHEMICAL THEORY AND COMPUTATION, 5 (11), 3010-3021 (2009). 
 Robust Periodic Hartree-Fock Exchange for Large-Scale Simulations Using
 Gaussian Basis Sets.
 https://doi.org/10.1021/ct900494g

 Guidon, M; Schiffmann, F; Hutter, J; VandeVondele, J. 
 JOURNAL OF CHEMICAL PHYSICS, 128 (21), 214104 (2008). 
 Ab initio molecular dynamics using hybrid density functionals.
 https://doi.org/10.1063/1.2931945

 Krack, M. 
 THEORETICAL CHEMISTRY ACCOUNTS, 114 (1-3), 145-152 (2005). 
 Pseudopotentials for H to Kr optimized for gradient-corrected
 exchange-correlation functionals.
 https://doi.org/10.1007/s00214-005-0655-y

 VandeVondele, J; Krack, M; Mohamed, F; Parrinello, M; Chassaing, T;
 Hutter, J. COMPUTER PHYSICS COMMUNICATIONS, 167 (2), 103-128 (2005). 
 QUICKSTEP: Fast and accurate density functional calculations using a
 mixed Gaussian and plane waves approach.
 https://doi.org/10.1016/j.cpc.2004.12.014

 Frigo, M; Johnson, SG. 
 PROCEEDINGS OF THE IEEE, 93 (2), 216-231 (2005). 
 The design and implementation of FFTW3.
 https://doi.org/10.1109/JPROC.2004.840301

 VandeVondele, J; Hutter, J. 
 JOURNAL OF CHEMICAL PHYSICS, 118 (10), 4365-4369 (2003). 
 An efficient orbital transformation method for electronic structure
 calculations.
 https://doi.org/10.1063/1.1543154

 Martyna, GJ; Tuckerman, ME. 
 JOURNAL OF CHEMICAL PHYSICS, 110 (6), 2810-2821 (1999). 
 A reciprocal space based method for treating long range interactions in
 ab initio and force-field-based calculations in clusters.
 https://doi.org/10.1063/1.477923

 Hartwigsen, C; Goedecker, S; Hutter, J. 
 PHYSICAL REVIEW B, 58 (7), 3641-3662 (1998). 
 Relativistic separable dual-space Gaussian pseudopotentials from H to Rn.
 https://doi.org/10.1103/PhysRevB.58.3641

 Lippert, G; Hutter, J; Parrinello, M. 
 MOLECULAR PHYSICS, 92 (3), 477-487 (1997). 
 A hybrid Gaussian and plane wave density functional scheme.
 https://doi.org/10.1080/002689797170220

 Perdew, JP; Burke, K; Ernzerhof, M. 
 PHYSICAL REVIEW LETTERS, 77 (18), 3865-3868 (1996). 
 Generalized gradient approximation made simple.
 https://doi.org/10.1103/PhysRevLett.77.3865

 Goedecker, S; Teter, M; Hutter, J. 
 PHYSICAL REVIEW B, 54 (3), 1703-1710 (1996). 
 Separable dual-space Gaussian pseudopotentials.
 https://doi.org/10.1103/PhysRevB.54.1703


 -------------------------------------------------------------------------------
 -                                                                             -
 -                                T I M I N G                                  -
 -                                                                             -
 -------------------------------------------------------------------------------
 SUBROUTINE                       CALLS  ASD         SELF TIME        TOTAL TIME
                                MAXIMUM       AVERAGE  MAXIMUM  AVERAGE  MAXIMUM
 CP2K                                 1  1.0    0.015    0.055   80.651   80.653
 qs_energies                          1  2.0    0.000    0.000   79.559   79.560
 scf_env_do_scf                       1  3.0    0.000    0.000   78.980   78.981
 qs_ks_update_qs_env                 22  5.0    0.000    0.000   71.424   71.432
 rebuild_ks_matrix                   20  6.0    0.000    0.000   71.421   71.430
 qs_ks_build_kohn_sham_matrix        20  7.0    0.004    0.004   71.421   71.430
 hfx_ks_matrix                       20  8.0    0.001    0.001   46.504   46.507
 integrate_four_center               20  9.0    0.011    0.012   46.503   46.504
 scf_env_do_scf_inner_loop           20  4.0    0.001    0.002   42.860   42.860
 init_scf_loop                        2  4.0    0.000    0.000   36.119   36.120
 mp_sync                            121 10.9   22.757   25.185   22.757   25.185
 integrate_four_center_main          20 10.0    0.003    0.004    2.427   25.167
 integrate_four_center_bin         2560 11.0    2.424   25.164    2.424   25.164
 pw_transfer                        387  9.6    0.045    0.058   21.564   23.048
 fft_wrap_pw1pw2                    347 10.7    0.006    0.008   21.322   22.792
 fft_wrap_pw1pw2_300                223 11.8    1.464    1.542   20.066   21.531
 calc_screening_functions             1 10.0   18.924   19.059   19.436   19.575
 fft3d_ps                           347 12.7    7.029    7.467   15.469   16.938
 qs_vxc_create                       20  8.0    0.001    0.001   16.751   16.791
 xc_vxc_pw_create                    20  9.0    0.174    0.203   16.751   16.791
 xc_rho_set_and_dset_create          20 10.0    0.084    0.093    7.427    9.362
 qs_rho_update_rho                   21  5.0    0.000    0.000    7.463    7.463
 calculate_rho_elec                  21  6.0    0.077    0.082    7.463    7.463
 mp_alltoall_z22v                   347 14.7    5.124    6.948    5.124    6.948
 yz_to_x                            166 13.1    1.582    1.764    5.017    6.597
 density_rs2pw                       21  7.0    0.002    0.002    6.253    6.362
 sum_up_and_integrate                20  8.0    0.048    0.053    5.113    5.116
 integrate_v_rspace                  20  9.0    0.001    0.001    5.065    5.072
 rs_pw_transfer                     165  9.4    0.005    0.006    4.711    4.847
 potential_pw2rs                     20 10.0    0.005    0.008    4.738    4.744
 x_to_yz                            181 14.2    1.722    1.871    3.410    3.522
 xc_functional_eval                  20 11.0    0.000    0.000    1.508    3.439
 pbe_lda_eval                        20 12.0    1.508    3.439    1.508    3.439
 pw_scatter_p                       181 13.2    2.316    2.386    2.316    2.386
 pw_gather_p                        166 12.1    1.985    2.054    1.985    2.054
 -------------------------------------------------------------------------------

 The number of warnings for this run is : 1
 
 -------------------------------------------------------------------------------
  **** **** ******  **  PROGRAM ENDED AT                 2020-12-17 18:09:48.594
 ***** ** ***  *** **   PROGRAM RAN ON                                   tcopt10
 **    ****   ******    PROGRAM RAN BY                                    hutter
 ***** **    ** ** **   PROGRAM PROCESS ID                                  8682
  **** **  *******  **  PROGRAM STOPPED IN /data/hutter/GITHUB/BASIS/MOLOPT/PBE0
                                           /Br
