 DBCSR| CPU Multiplication driver                                           XSMM
 DBCSR| Multrec recursion limit                                              512
 DBCSR| Multiplication stack size                                           1000
 DBCSR| Maximum elements for images                                    UNLIMITED
 DBCSR| Multiplicative factor virtual images                                   1
 DBCSR| Use multiplication densification                                       T
 DBCSR| Multiplication size stacks                                             3
 DBCSR| Use memory pool for CPU allocation                                     F
 DBCSR| Number of 3D layers                                               SINGLE
 DBCSR| Use MPI memory allocation                                              F
 DBCSR| Use RMA algorithm                                                      F
 DBCSR| Use Communication thread                                               T
 DBCSR| Communication thread load                                             87
 DBCSR| MPI: My node id                                                        0
 DBCSR| MPI: Number of nodes                                                  32
 DBCSR| OMP: Current number of threads                                         1
 DBCSR| OMP: Max number of threads                                             1
 DBCSR| Split modifier for TAS multiplication algorithm                  1.0E+00


  **** **** ******  **  PROGRAM STARTED AT               2020-12-17 18:19:41.640
 ***** ** ***  *** **   PROGRAM STARTED ON                               tcopt10
 **    ****   ******    PROGRAM STARTED BY                                hutter
 ***** **    ** ** **   PROGRAM PROCESS ID                                 10220
  **** **  *******  **  PROGRAM STARTED IN /data/hutter/GITHUB/BASIS/MOLOPT/PBE0
                                           /Br

 CP2K| version string:                    CP2K version 8.0 (Development Version)
 CP2K| source code revision number:                                  git:7416431
 CP2K| cp2kflags: omp libint fftw3 libxc elpa parallel mpi3 scalapack xsmm spgli
 CP2K|            b sirius
 CP2K| is freely available from                            https://www.cp2k.org/
 CP2K| Program compiled at                          Thu Dec 10 17:08:57 CET 2020
 CP2K| Program compiled on                                               tcopt10
 CP2K| Program compiled for                                                local
 CP2K| Data directory path                 /data/hutter/GITHUB/CURRENT/cp2k/data
 CP2K| Input file name                                               HBr-ref.inp

 GLOBAL| Force Environment number                                              1
 GLOBAL| Basis set file name                                  ../PBE0_UCSEGBASIS
 GLOBAL| Potential file name                                        ../POTENTIAL
 GLOBAL| MM Potential file name                                     MM_POTENTIAL
 GLOBAL| Coordinate file name                                      __STD_INPUT__
 GLOBAL| Method name                                                        CP2K
 GLOBAL| Project name                                                     refHBr
 GLOBAL| Preferred FFT library                                             FFTW3
 GLOBAL| Preferred diagonalization lib.                                     ELPA
 GLOBAL| Run type                                                         ENERGY
 GLOBAL| All-to-all communication in single precision                          F
 GLOBAL| FFTs using library dependent lengths                                  F
 GLOBAL| Global print level                                                  LOW
 GLOBAL| MPI I/O enabled                                                       T
 GLOBAL| Total number of message passing processes                            32
 GLOBAL| Number of threads for this process                                    1
 GLOBAL| This output is from process                                           0
 GLOBAL| CPU model name                          AMD EPYC 7401 24-Core Processor
 GLOBAL| CPUID                                                              1002

 MEMORY| system memory details [Kb]
 MEMORY|                        rank 0           min           max       average
 MEMORY| MemTotal            263987256     263987256     263987256     263987256
 MEMORY| MemFree             260222680     260222680     260222680     260222680
 MEMORY| Buffers                    32            32            32            32
 MEMORY| Cached                 562812        562812        562812        562812
 MEMORY| Slab                   774052        774052        774052        774052
 MEMORY| SReclaimable           283124        283124        283124        283124
 MEMORY| MemLikelyFree       261068648     261068648     261068648     261068648


 GENERATE|  Preliminary Number of Bonds generated:                             0
 GENERATE|  Achieved consistency in connectivity generation.

 *******************************************************************************
 *******************************************************************************
 **                                                                           **
 **     #####                         ##              ##                      **
 **    ##   ##            ##          ##              ##                      **
 **   ##     ##                       ##            ######                    **
 **   ##     ##  ##   ##  ##   #####  ##  ##   ####   ##    #####    #####    **
 **   ##     ##  ##   ##  ##  ##      ## ##   ##      ##   ##   ##  ##   ##   **
 **   ##  ## ##  ##   ##  ##  ##      ####     ###    ##   ######   ######    **
 **    ##  ###   ##   ##  ##  ##      ## ##      ##   ##   ##       ##        **
 **     #######   #####   ##   #####  ##  ##  ####    ##    #####   ##        **
 **           ##                                                    ##        **
 **                                                                           **
 **                                                ... make the atoms dance   **
 **                                                                           **
 **            Copyright (C) by CP2K developers group (2000 - 2020)           **
 **                      J. Chem. Phys. 152, 194103 (2020)                    **
 **                                                                           **
 *******************************************************************************


 TOTAL NUMBERS AND MAXIMUM NUMBERS

  Total number of            - Atomic kinds:                                   2
                             - Atoms:                                          2
                             - Shell sets:                                    20
                             - Shells:                                        44
                             - Primitive Cartesian functions:                 20
                             - Cartesian basis functions:                    180
                             - Spherical basis functions:                    148

  Maximum angular momentum of- Orbital basis functions:                        3
                             - Local part of the GTH pseudopotential:          2
                             - Non-local part of the GTH pseudopotential:      4


 SCF PARAMETERS         Density guess:                                    ATOMIC
                        --------------------------------------------------------
                        max_scf:                                              10
                        max_scf_history:                                       0
                        max_diis:                                              4
                        --------------------------------------------------------
                        eps_scf:                                        1.00E-07
                        eps_scf_history:                                0.00E+00
                        eps_diis:                                       1.00E-01
                        eps_eigval:                                     1.00E-05
                        --------------------------------------------------------
                        level_shift [a.u.]:                                 0.00
                        --------------------------------------------------------
                        Outer loop SCF in use 
                        No variables optimised in outer loop
                        eps_scf                                         1.00E-07
                        max_scf                                               10
                        No outer loop optimization
                        step_size                                       5.00E-01

 Number of electrons:                                                          8
 Number of occupied orbitals:                                                  4
 Number of molecular orbitals:                                                 4

 Number of orbital functions:                                                148
 Number of independent orbital functions:                                    148

 Extrapolation method: initial_guess


 SCF WAVEFUNCTION OPTIMIZATION

  ----------------------------------- OT ---------------------------------------
  Minimizer      : DIIS                : direct inversion
                                         in the iterative subspace
                                         using   7 DIIS vectors
                                         safer DIIS on
  Preconditioner : FULL_ALL            : diagonalization, state selective
  Precond_solver : DEFAULT
  stepsize       :    0.15000000                  energy_gap     :    0.08000000
  eps_taylor     :   0.10000E-15                  max_taylor     :             4
  ----------------------------------- OT ---------------------------------------

  Step     Update method      Time    Convergence         Total energy    Change
  ------------------------------------------------------------------------------
     1 OT DIIS     0.15E+00    9.6     0.04312905       -13.9543035609 -1.40E+01
     2 OT DIIS     0.15E+00    1.8     0.01522760       -14.0538129613 -9.95E-02
     3 OT DIIS     0.15E+00    1.8     0.00526584       -14.0675907696 -1.38E-02
     4 OT DIIS     0.15E+00    1.8     0.00119054       -14.0694136817 -1.82E-03
     5 OT DIIS     0.15E+00    1.8     0.00036157       -14.0694775928 -6.39E-05
     6 OT DIIS     0.15E+00    1.8     0.00005186       -14.0694878557 -1.03E-05
     7 OT DIIS     0.15E+00    1.8     0.00001215       -14.0694880379 -1.82E-07
     8 OT DIIS     0.15E+00    1.8     0.00000187       -14.0694880483 -1.04E-08
     9 OT DIIS     0.15E+00    1.8     0.00000038       -14.0694880486 -2.36E-10
    10 OT DIIS     0.15E+00    1.8     0.00000006       -14.0694880486 -1.10E-11

  *** SCF run converged in    10 steps ***


  Electronic density on regular grids:         -8.0000000000        0.0000000000
  Core density on regular grids:                8.0000000000       -0.0000000000
  Total charge density on r-space grids:       -0.0000000000
  Total charge density g-space grids:          -0.0000000000

  Overlap energy of the core charge distribution:               0.00000073407905
  Self energy of the core charge distribution:                -29.67041569698727
  Core Hamiltonian energy:                                      6.70384322495647
  Hartree energy:                                              11.83430970996023
  Exchange-correlation energy:                                 -2.26580061070056
  Hartree-Fock Exchange energy:                                -0.67142540988507

  Total energy:                                               -14.06948804857715

  outer SCF iter =    1 RMS gradient =   0.62E-07 energy =        -14.0694880486
  outer SCF loop converged in   1 iterations or   10 steps


 ENERGY| Total FORCE_EVAL ( QS ) energy [a.u.]:              -14.069488048577146

 -------------------------------------------------------------------------------
 -                                                                             -
 -                                DBCSR STATISTICS                             -
 -                                                                             -
 -------------------------------------------------------------------------------
 COUNTER                                    TOTAL       BLAS       SMM       ACC
 flops     4 x     4 x     4                10752       0.0%    100.0%      0.0%
 flops     4 x     4 x    68                89216       0.0%    100.0%      0.0%
 flops     4 x     4 x    80               104960       0.0%    100.0%      0.0%
 flops   148 x     4 x     4               241536       0.0%    100.0%      0.0%
 flops    68 x    68 x     4               406912       0.0%    100.0%      0.0%
 flops    80 x    68 x     4               478720       0.0%    100.0%      0.0%
 flops    80 x    80 x     4               563200       0.0%    100.0%      0.0%
 flops    68 x     4 x    68              1035776       0.0%    100.0%      0.0%
 flops    80 x     4 x    68              1218560       0.0%    100.0%      0.0%
 flops    68 x     4 x    80              1218560       0.0%    100.0%      0.0%
 flops    80 x     4 x    80              1433600       0.0%    100.0%      0.0%
 flops   148 x     4 x    68              1771264       0.0%    100.0%      0.0%
 flops   148 x     4 x    80              2083840       0.0%    100.0%      0.0%
 flops inhomo. stacks                           0       0.0%      0.0%      0.0%
 flops total                        10.656896E+06       0.0%    100.0%      0.0%
 flops max/rank                      9.771264E+06       0.0%    100.0%      0.0%
 matmuls inhomo. stacks                         0       0.0%      0.0%      0.0%
 matmuls total                                406       0.0%    100.0%      0.0%
 number of processed stacks                   406       0.0%    100.0%      0.0%
 average stack size                                     0.0       1.0       0.0
 marketing flops                    11.140352E+06
 -------------------------------------------------------------------------------
 # multiplications                            238
 max memory usage/rank               1.051193E+09
 # max total images/rank                        2
 # max 3D layers                                1
 # MPI messages exchanged                   99008
 MPI messages size (bytes):
  total size                        66.322176E+06
  min size                           0.000000E+00
  max size                          94.720000E+03
  average size                     669.866821E+00
 MPI breakdown and total messages size (bytes):
             size <=      128               96688                   127104
       128 < size <=     8192                1620                  4863872
      8192 < size <=    32768                   0                        0
     32768 < size <=   131072                 700                 61331200
    131072 < size <=  4194304                   0                        0
   4194304 < size <= 16777216                   0                        0
  16777216 < size                               0                        0
 -------------------------------------------------------------------------------

 *** WARNING in dbcsr_mm.F:294 :: Using a non-square number of MPI ranks ***
 *** might lead to poor performance. Used ranks: 32 Suggested: 36 64     ***

 -------------------------------------------------------------------------------
 -                                                                             -
 -                      DBCSR MESSAGE PASSING PERFORMANCE                      -
 -                                                                             -
 -------------------------------------------------------------------------------
 ROUTINE             CALLS      AVE VOLUME [Bytes]
 MP_Bcast               14                     12.
 MP_Allreduce         1298                      9.
 MP_Alltoall          1007                   2833.
 MP_ISend             7262                   1835.
 MP_IRecv             7158                   1229.
 -------------------------------------------------------------------------------

 -------------------------------------------------------------------------------
 -                                                                             -
 -                                GRID STATISTICS                              -
 -                                                                             -
 -------------------------------------------------------------------------------
 LP    KERNEL    OPERATION                                     COUNT     PERCENT
 0     general   collocate                                        64       0.99%
 0     ortho     integrate                                       640       9.93%
 0     ortho     collocate                                       704      10.92%
 1     ortho     integrate                                       320       4.96%
 1     ortho     collocate                                       352       5.46%
 2     ortho     integrate                                       160       2.48%
 2     ortho     collocate                                       176       2.73%
 3     ortho     integrate                                       960      14.89%
 3     ortho     collocate                                      1056      16.38%
 4     ortho     integrate                                       480       7.44%
 4     ortho     collocate                                       528       8.19%
 6     ortho     integrate                                       480       7.44%
 6     ortho     collocate                                       528       8.19%
 -------------------------------------------------------------------------------

 MEMORY| Estimated peak process memory [MiB]                                1003

 -------------------------------------------------------------------------------
 -                                                                             -
 -                         MESSAGE PASSING PERFORMANCE                         -
 -                                                                             -
 -------------------------------------------------------------------------------

 ROUTINE             CALLS      AVE VOLUME [Bytes]
 MP_Group                5
 MP_Bcast              159                 979422.
 MP_Allreduce          499                   7793.
 MP_Sync                69
 MP_Alltoall           212               30465577.
 MP_ISendRecv         1984                 149092.
 MP_Wait              3102
 MP_comm_split          12
 MP_ISend              946                1076469.
 MP_IRecv              946                1076001.
 MP_Recv                 3                   1184.
 -------------------------------------------------------------------------------


 -------------------------------------------------------------------------------
 -                                                                             -
 -                           R E F E R E N C E S                               -
 -                                                                             -
 -------------------------------------------------------------------------------
 
 CP2K version 8.0 (Development Version), the CP2K developers group (2020).
 CP2K is freely available from https://www.cp2k.org/ .

 Kuehne,Thomas D.; Iannuzzi,Marcella; Del Ben,Mauro;
 Rybkin,Vladimir V.; Seewald,Patrick; Stein,Frederick; Laino,Teodoro;
 Khaliullin,Rustam Z.; Schuett,Ole; Schiffmann,Florian; Golze,Dorothea;
 Wilhelm,Jan; Chulkov,Sergey; Bani-Hashemian,Mohammad Hossein;
 Weber,Valery; Borstnik,Urban; Taillefumier,Mathieu;
 Jakobovits,Alice Shoshana; Lazzaro,Alfio; Pabst,Hans; Mueller,Tiziano;
 Schade,Robert; Guidon,Manuel; Andermatt,Samuel; Holmberg,Nico;
 Schenter,Gregory K.; Hehn,Anna; Bussy,Augustin; Belleflamme,Fabian;
 Tabacchi,Gloria; Gloess,Andreas; Lass,Michael; Bethune,Iain;
 Mundy,Christopher J.; Plessl,Christian; Watkins,Matt;
 VandeVondele,Joost; Krack,Matthias; Hutter,Juerg. 
 The Journal of Chemical Physics, 152 (19), (2020). 
 CP2K: An electronic structure and molecular dynamics software package -
 Quickstep: Efficient and accurate electronic structure calculations.
 https://doi.org/10.1063/5.0007045

 Schuett, Ole; Messmer, Peter; Hutter, Juerg; VandeVondele, Joost. 
 Electronic Structure Calculations on Graphics Processing Units, John
 Wiley & Sons, Ltd, 173-190 (2016). 
 GPU-Accelerated Sparse Matrix-Matrix Multiplication for
 Linear Scaling Density Functional Theory.
 https://doi.org/10.1002/9781118670712.ch8

 Borstnik, U; VandeVondele, J; Weber, V; Hutter, J. 
 PARALLEL COMPUTING, 40 (5-6), 47-58 (2014). 
 Sparse matrix multiplication: The distributed block-compressed sparse
 row library.
 https://doi.org/10.1016/j.parco.2014.03.012

 Hutter, J; Iannuzzi, M; Schiffmann, F; VandeVondele, J. 
 WIREs Comput Mol Sci., 4 (1), 15-25 (2014). 
 CP2K: atomistic simulations of condensed matter systems.
 https://doi.org/10.1002/wcms.1159

 Marek, A; Blum, V; Johanni, R; Havu, V; Lang, B; Auckenthaler, T;
 Heinecke, A; Bungartz, H; Lederer, H. 
 Journal of Physics: Condensed Matter, 26 (21), (2014). 
 The ELPA library: scalable parallel eigenvalue solutions for
 electronic structure
 theory and computational science.
 https://doi.org/10.1088/0953-8984/26/21/213201

 Guidon, M; Hutter, J; VandeVondele, J. 
 JOURNAL OF CHEMICAL THEORY AND COMPUTATION, 5 (11), 3010-3021 (2009). 
 Robust Periodic Hartree-Fock Exchange for Large-Scale Simulations Using
 Gaussian Basis Sets.
 https://doi.org/10.1021/ct900494g

 Guidon, M; Schiffmann, F; Hutter, J; VandeVondele, J. 
 JOURNAL OF CHEMICAL PHYSICS, 128 (21), 214104 (2008). 
 Ab initio molecular dynamics using hybrid density functionals.
 https://doi.org/10.1063/1.2931945

 Krack, M. 
 THEORETICAL CHEMISTRY ACCOUNTS, 114 (1-3), 145-152 (2005). 
 Pseudopotentials for H to Kr optimized for gradient-corrected
 exchange-correlation functionals.
 https://doi.org/10.1007/s00214-005-0655-y

 VandeVondele, J; Krack, M; Mohamed, F; Parrinello, M; Chassaing, T;
 Hutter, J. COMPUTER PHYSICS COMMUNICATIONS, 167 (2), 103-128 (2005). 
 QUICKSTEP: Fast and accurate density functional calculations using a
 mixed Gaussian and plane waves approach.
 https://doi.org/10.1016/j.cpc.2004.12.014

 Frigo, M; Johnson, SG. 
 PROCEEDINGS OF THE IEEE, 93 (2), 216-231 (2005). 
 The design and implementation of FFTW3.
 https://doi.org/10.1109/JPROC.2004.840301

 VandeVondele, J; Hutter, J. 
 JOURNAL OF CHEMICAL PHYSICS, 118 (10), 4365-4369 (2003). 
 An efficient orbital transformation method for electronic structure
 calculations.
 https://doi.org/10.1063/1.1543154

 Martyna, GJ; Tuckerman, ME. 
 JOURNAL OF CHEMICAL PHYSICS, 110 (6), 2810-2821 (1999). 
 A reciprocal space based method for treating long range interactions in
 ab initio and force-field-based calculations in clusters.
 https://doi.org/10.1063/1.477923

 Hartwigsen, C; Goedecker, S; Hutter, J. 
 PHYSICAL REVIEW B, 58 (7), 3641-3662 (1998). 
 Relativistic separable dual-space Gaussian pseudopotentials from H to Rn.
 https://doi.org/10.1103/PhysRevB.58.3641

 Lippert, G; Hutter, J; Parrinello, M. 
 MOLECULAR PHYSICS, 92 (3), 477-487 (1997). 
 A hybrid Gaussian and plane wave density functional scheme.
 https://doi.org/10.1080/002689797170220

 Perdew, JP; Burke, K; Ernzerhof, M. 
 PHYSICAL REVIEW LETTERS, 77 (18), 3865-3868 (1996). 
 Generalized gradient approximation made simple.
 https://doi.org/10.1103/PhysRevLett.77.3865

 Goedecker, S; Teter, M; Hutter, J. 
 PHYSICAL REVIEW B, 54 (3), 1703-1710 (1996). 
 Separable dual-space Gaussian pseudopotentials.
 https://doi.org/10.1103/PhysRevB.54.1703


 -------------------------------------------------------------------------------
 -                                                                             -
 -                                T I M I N G                                  -
 -                                                                             -
 -------------------------------------------------------------------------------
 SUBROUTINE                       CALLS  ASD         SELF TIME        TOTAL TIME
                                MAXIMUM       AVERAGE  MAXIMUM  AVERAGE  MAXIMUM
 CP2K                                 1  1.0    0.014    0.025   27.552   27.559
 qs_energies                          1  2.0    0.000    0.000   26.481   26.488
 scf_env_do_scf                       1  3.0    0.000    0.000   25.905   25.912
 qs_ks_update_qs_env                 11  5.0    0.000    0.000   22.091   22.097
 rebuild_ks_matrix                   10  6.0    0.000    0.000   22.090   22.096
 qs_ks_build_kohn_sham_matrix        10  7.0    0.002    0.002   22.090   22.096
 scf_env_do_scf_inner_loop           10  4.0    0.000    0.001   16.321   16.326
 pw_transfer                        197  9.6    0.023    0.030   11.106   11.801
 fft_wrap_pw1pw2                    177 10.6    0.003    0.004   10.984   11.675
 fft_wrap_pw1pw2_300                113 11.8    0.745    0.791   10.170   10.836
 init_scf_loop                        1  4.0    0.000    0.000    9.583    9.585
 hfx_ks_matrix                       10  8.0    0.000    0.000    9.427    9.429
 integrate_four_center               10  9.0    0.005    0.005    9.426    9.429
 fft3d_ps                           177 12.6    3.624    3.823    7.964    8.682
 qs_vxc_create                       10  8.0    0.000    0.000    8.300    8.320
 xc_vxc_pw_create                    10  9.0    0.089    0.105    8.300    8.320
 calc_screening_functions             1 10.0    4.625    4.656    5.049    5.078
 xc_rho_set_and_dset_create          10 10.0    0.042    0.048    3.653    4.603
 qs_rho_update_rho                   11  5.0    0.000    0.000    3.941    3.942
 calculate_rho_elec                  11  6.0    0.040    0.043    3.941    3.942
 mp_alltoall_z22v                   177 14.6    2.619    3.513    2.619    3.513
 density_rs2pw                       11  7.0    0.001    0.001    3.306    3.350
 yz_to_x                             86 13.1    0.843    0.958    2.610    3.332
 mp_sync                             69 10.8    2.723    3.225    2.723    3.225
 integrate_four_center_main          10 10.0    0.001    0.002    0.501    3.106
 integrate_four_center_bin         1280 11.0    0.500    3.105    0.500    3.105
 sum_up_and_integrate                10  8.0    0.024    0.028    2.564    2.565
 integrate_v_rspace                  10  9.0    0.000    0.000    2.540    2.544
 rs_pw_transfer                      85  9.4    0.002    0.003    2.484    2.539
 potential_pw2rs                     10 10.0    0.003    0.005    2.406    2.410
 x_to_yz                             91 14.2    0.870    0.943    1.722    1.806
 xc_functional_eval                  10 11.0    0.000    0.000    0.687    1.634
 pbe_lda_eval                        10 12.0    0.687    1.634    0.687    1.634
 pw_scatter_p                        91 13.2    1.167    1.250    1.167    1.250
 pw_gather_p                         86 12.1    1.049    1.090    1.049    1.090
 calc_pair_dist_radii                 1 10.0    0.887    0.893    1.016    1.022
 qs_init_subsys                       1  2.0    0.001    0.001    1.021    1.021
 qs_env_setup                         1  3.0    0.000    0.000    1.019    1.020
 qs_env_rebuild_pw_env                2  3.5    0.000    0.000    1.019    1.020
 pw_env_rebuild                       1  5.0    0.000    0.000    1.019    1.019
 pw_grid_setup                        5  6.0    0.000    0.000    1.010    1.011
 pw_grid_setup_internal               5  7.0    0.019    0.020    1.010    1.010
 pw_poisson_solve                    10  8.0    0.115    0.119    0.857    0.857
 rs_pw_transfer_RS2PW_300            12  8.8    0.582    0.619    0.791    0.849
 pw_grid_sort                         5  8.0    0.606    0.619    0.823    0.837
 rs_pw_transfer_PW2RS_300            10 12.0    0.464    0.481    0.756    0.773
 grid_collocate_task_list            11  7.0    0.557    0.710    0.557    0.710
 powell_optimize                 210791 11.0    0.552    0.565    0.552    0.565
 -------------------------------------------------------------------------------

 The number of warnings for this run is : 1
 
 -------------------------------------------------------------------------------
  **** **** ******  **  PROGRAM ENDED AT                 2020-12-17 18:20:09.898
 ***** ** ***  *** **   PROGRAM RAN ON                                   tcopt10
 **    ****   ******    PROGRAM RAN BY                                    hutter
 ***** **    ** ** **   PROGRAM PROCESS ID                                 10220
  **** **  *******  **  PROGRAM STOPPED IN /data/hutter/GITHUB/BASIS/MOLOPT/PBE0
                                           /Br
