 DBCSR| CPU Multiplication driver                                           XSMM
 DBCSR| Multrec recursion limit                                              512
 DBCSR| Multiplication stack size                                           1000
 DBCSR| Maximum elements for images                                    UNLIMITED
 DBCSR| Multiplicative factor virtual images                                   1
 DBCSR| Use multiplication densification                                       T
 DBCSR| Multiplication size stacks                                             3
 DBCSR| Use memory pool for CPU allocation                                     F
 DBCSR| Number of 3D layers                                               SINGLE
 DBCSR| Use MPI memory allocation                                              F
 DBCSR| Use RMA algorithm                                                      F
 DBCSR| Use Communication thread                                               T
 DBCSR| Communication thread load                                             87
 DBCSR| MPI: My node id                                                        0
 DBCSR| MPI: Number of nodes                                                  32
 DBCSR| OMP: Current number of threads                                         1
 DBCSR| OMP: Max number of threads                                             1
 DBCSR| Split modifier for TAS multiplication algorithm                  1.0E+00


  **** **** ******  **  PROGRAM STARTED AT               2020-12-17 18:20:43.088
 ***** ** ***  *** **   PROGRAM STARTED ON                               tcopt10
 **    ****   ******    PROGRAM STARTED BY                                hutter
 ***** **    ** ** **   PROGRAM PROCESS ID                                 10444
  **** **  *******  **  PROGRAM STARTED IN /data/hutter/GITHUB/BASIS/MOLOPT/PBE0
                                           /Br

 CP2K| version string:                    CP2K version 8.0 (Development Version)
 CP2K| source code revision number:                                  git:7416431
 CP2K| cp2kflags: omp libint fftw3 libxc elpa parallel mpi3 scalapack xsmm spgli
 CP2K|            b sirius
 CP2K| is freely available from                            https://www.cp2k.org/
 CP2K| Program compiled at                          Thu Dec 10 17:08:57 CET 2020
 CP2K| Program compiled on                                               tcopt10
 CP2K| Program compiled for                                                local
 CP2K| Data directory path                 /data/hutter/GITHUB/CURRENT/cp2k/data
 CP2K| Input file name                                             HCBr3-ref.inp

 GLOBAL| Force Environment number                                              1
 GLOBAL| Basis set file name                                  ../PBE0_UCSEGBASIS
 GLOBAL| Potential file name                                        ../POTENTIAL
 GLOBAL| MM Potential file name                                     MM_POTENTIAL
 GLOBAL| Coordinate file name                                      __STD_INPUT__
 GLOBAL| Method name                                                        CP2K
 GLOBAL| Project name                                                   refHCBr3
 GLOBAL| Preferred FFT library                                             FFTW3
 GLOBAL| Preferred diagonalization lib.                                     ELPA
 GLOBAL| Run type                                                         ENERGY
 GLOBAL| All-to-all communication in single precision                          F
 GLOBAL| FFTs using library dependent lengths                                  F
 GLOBAL| Global print level                                                  LOW
 GLOBAL| MPI I/O enabled                                                       T
 GLOBAL| Total number of message passing processes                            32
 GLOBAL| Number of threads for this process                                    1
 GLOBAL| This output is from process                                           0
 GLOBAL| CPU model name                          AMD EPYC 7401 24-Core Processor
 GLOBAL| CPUID                                                              1002

 MEMORY| system memory details [Kb]
 MEMORY|                        rank 0           min           max       average
 MEMORY| MemTotal            263987256     263987256     263987256     263987256
 MEMORY| MemFree             260229724     260229724     260229724     260229724
 MEMORY| Buffers                    32            32            32            32
 MEMORY| Cached                 563696        563696        563696        563696
 MEMORY| Slab                   775488        775488        775488        775488
 MEMORY| SReclaimable           283828        283828        283828        283828
 MEMORY| MemLikelyFree       261077280     261077280     261077280     261077280


 GENERATE|  Preliminary Number of Bonds generated:                             0
 GENERATE|  Achieved consistency in connectivity generation.

 *******************************************************************************
 *******************************************************************************
 **                                                                           **
 **     #####                         ##              ##                      **
 **    ##   ##            ##          ##              ##                      **
 **   ##     ##                       ##            ######                    **
 **   ##     ##  ##   ##  ##   #####  ##  ##   ####   ##    #####    #####    **
 **   ##     ##  ##   ##  ##  ##      ## ##   ##      ##   ##   ##  ##   ##   **
 **   ##  ## ##  ##   ##  ##  ##      ####     ###    ##   ######   ######    **
 **    ##  ###   ##   ##  ##  ##      ## ##      ##   ##   ##       ##        **
 **     #######   #####   ##   #####  ##  ##  ####    ##    #####   ##        **
 **           ##                                                    ##        **
 **                                                                           **
 **                                                ... make the atoms dance   **
 **                                                                           **
 **            Copyright (C) by CP2K developers group (2000 - 2020)           **
 **                      J. Chem. Phys. 152, 194103 (2020)                    **
 **                                                                           **
 *******************************************************************************


 TOTAL NUMBERS AND MAXIMUM NUMBERS

  Total number of            - Atomic kinds:                                   3
                             - Atoms:                                          5
                             - Shell sets:                                    48
                             - Shells:                                       120
                             - Primitive Cartesian functions:                 48
                             - Cartesian basis functions:                    528
                             - Spherical basis functions:                    424

  Maximum angular momentum of- Orbital basis functions:                        4
                             - Local part of the GTH pseudopotential:          2
                             - Non-local part of the GTH pseudopotential:      4


 SCF PARAMETERS         Density guess:                                    ATOMIC
                        --------------------------------------------------------
                        max_scf:                                              10
                        max_scf_history:                                       0
                        max_diis:                                              4
                        --------------------------------------------------------
                        eps_scf:                                        1.00E-07
                        eps_scf_history:                                0.00E+00
                        eps_diis:                                       1.00E-01
                        eps_eigval:                                     1.00E-05
                        --------------------------------------------------------
                        level_shift [a.u.]:                                 0.00
                        --------------------------------------------------------
                        Outer loop SCF in use 
                        No variables optimised in outer loop
                        eps_scf                                         1.00E-07
                        max_scf                                               10
                        No outer loop optimization
                        step_size                                       5.00E-01

 Number of electrons:                                                         26
 Number of occupied orbitals:                                                 13
 Number of molecular orbitals:                                                13

 Number of orbital functions:                                                424
 Number of independent orbital functions:                                    424

 Extrapolation method: initial_guess


 SCF WAVEFUNCTION OPTIMIZATION

  ----------------------------------- OT ---------------------------------------
  Minimizer      : DIIS                : direct inversion
                                         in the iterative subspace
                                         using   7 DIIS vectors
                                         safer DIIS on
  Preconditioner : FULL_ALL            : diagonalization, state selective
  Precond_solver : DEFAULT
  stepsize       :    0.15000000                  energy_gap     :    0.08000000
  eps_taylor     :   0.10000E-15                  max_taylor     :             4
  ----------------------------------- OT ---------------------------------------

  Step     Update method      Time    Convergence         Total energy    Change
  ------------------------------------------------------------------------------
     1 OT DIIS     0.15E+00   46.8     0.04796659       -45.6973617556 -4.57E+01
     2 OT DIIS     0.15E+00    2.7     0.06884547       -46.0465848503 -3.49E-01
     3 OT DIIS     0.15E+00    2.6     0.02672005       -46.5353757666 -4.89E-01
     4 OT DIIS     0.15E+00    2.7     0.01111412       -46.6510173622 -1.16E-01
     5 OT DIIS     0.15E+00    2.6     0.00624995       -46.6705763925 -1.96E-02
     6 OT DIIS     0.15E+00    2.7     0.00318681       -46.6772151168 -6.64E-03
     7 OT DIIS     0.15E+00    2.6     0.00099834       -46.6792370140 -2.02E-03
     8 OT DIIS     0.15E+00    2.6     0.00070339       -46.6794414948 -2.04E-04
     9 OT DIIS     0.15E+00    2.6     0.00021394       -46.6795491669 -1.08E-04
    10 OT DIIS     0.15E+00    2.6     0.00010753       -46.6795619158 -1.27E-05

  Leaving inner SCF loop after reaching    10 steps.


  Electronic density on regular grids:        -26.0000000000        0.0000000000
  Core density on regular grids:               26.0000000000       -0.0000000000
  Total charge density on r-space grids:       -0.0000000000
  Total charge density g-space grids:          -0.0000000000

  Overlap energy of the core charge distribution:               0.00000027761965
  Self energy of the core charge distribution:                -99.46637435689972
  Core Hamiltonian energy:                                     23.17957559587901
  Hartree energy:                                              39.45658216649372
  Exchange-correlation energy:                                 -7.61520043877103
  Hartree-Fock Exchange energy:                                -2.23414516015218

  Total energy:                                               -46.67956191583055

  outer SCF iter =    1 RMS gradient =   0.11E-03 energy =        -46.6795619158

  ----------------------------------- OT ---------------------------------------
  Minimizer      : DIIS                : direct inversion
                                         in the iterative subspace
                                         using   7 DIIS vectors
                                         safer DIIS on
  Preconditioner : FULL_ALL            : diagonalization, state selective
  Precond_solver : DEFAULT
  stepsize       :    0.15000000                  energy_gap     :    0.08000000
  eps_taylor     :   0.10000E-15                  max_taylor     :             4
  ----------------------------------- OT ---------------------------------------

  Step     Update method      Time    Convergence         Total energy    Change
  ------------------------------------------------------------------------------
     1 OT DIIS     0.15E+00    5.3     0.00004118       -46.6795651979 -3.28E-06
     2 OT DIIS     0.15E+00    2.6     0.00002416       -46.6795659105 -7.13E-07
     3 OT DIIS     0.15E+00    2.6     0.00001136       -46.6795660890 -1.78E-07
     4 OT DIIS     0.15E+00    2.6     0.00000144       -46.6795661592 -7.02E-08
     5 OT DIIS     0.15E+00    2.6     0.00000045       -46.6795661604 -1.17E-09
     6 OT DIIS     0.15E+00    2.6     0.00000013       -46.6795661605 -1.50E-10
     7 OT DIIS     0.15E+00    2.6     0.00000002       -46.6795661605 -1.29E-11

  *** SCF run converged in     7 steps ***


  Electronic density on regular grids:        -26.0000000000        0.0000000000
  Core density on regular grids:               26.0000000000       -0.0000000000
  Total charge density on r-space grids:       -0.0000000000
  Total charge density g-space grids:          -0.0000000000

  Overlap energy of the core charge distribution:               0.00000027761965
  Self energy of the core charge distribution:                -99.46637435689972
  Core Hamiltonian energy:                                     23.17973408116602
  Hartree energy:                                              39.45643095161721
  Exchange-correlation energy:                                 -7.61521518638651
  Hartree-Fock Exchange energy:                                -2.23414192765101

  Total energy:                                               -46.67956616053436

  outer SCF iter =    2 RMS gradient =   0.24E-07 energy =        -46.6795661605
  outer SCF loop converged in   2 iterations or   17 steps


 ENERGY| Total FORCE_EVAL ( QS ) energy [a.u.]:              -46.679566160534364

 -------------------------------------------------------------------------------
 -                                                                             -
 -                                DBCSR STATISTICS                             -
 -                                                                             -
 -------------------------------------------------------------------------------
 COUNTER                                    TOTAL       BLAS       SMM       ACC
 flops    13 x    13 x    13               399854       0.0%    100.0%      0.0%
 flops    13 x    13 x    68              1608880       0.0%    100.0%      0.0%
 flops    68 x    13 x    13              1999608       0.0%    100.0%      0.0%
 flops    68 x    68 x    13              2164032       0.0%    100.0%      0.0%
 flops    68 x    80 x    13              2545920       0.0%    100.0%      0.0%
 flops    68 x   116 x    13              3691584       0.0%    100.0%      0.0%
 flops    80 x   116 x    13              4343040       0.0%    100.0%      0.0%
 flops    80 x    13 x    13              4704960       0.0%    100.0%      0.0%
 flops    80 x    68 x    13              5091840       0.0%    100.0%      0.0%
 flops    13 x    13 x    80              5678400       0.0%    100.0%      0.0%
 flops   196 x    13 x    13              5763576       0.0%    100.0%      0.0%
 flops   116 x   116 x    13              6297408       0.0%    100.0%      0.0%
 flops   116 x    80 x    13              8686080       0.0%    100.0%      0.0%
 flops   116 x    13 x    68              9844224       0.0%    100.0%      0.0%
 flops    68 x    13 x   116              9844224       0.0%    100.0%      0.0%
 flops    68 x    13 x    68             10339264       0.0%    100.0%      0.0%
 flops   196 x    13 x    68             13168064       0.0%    100.0%      0.0%
 flops   116 x    13 x   116             16793088       0.0%    100.0%      0.0%
 flops    80 x    80 x    13             17971200       0.0%    100.0%      0.0%
 flops    80 x    13 x    68             31116800       0.0%    100.0%      0.0%
 flops    80 x    13 x   116             34744320       0.0%    100.0%      0.0%
 flops   116 x    13 x    80             34744320       0.0%    100.0%      0.0%
 flops    68 x    13 x    80             36491520       0.0%    100.0%      0.0%
 flops   196 x    13 x    80             46475520       0.0%    100.0%      0.0%
 flops    80 x    13 x    80            109824000       0.0%    100.0%      0.0%
 flops inhomo. stacks                    51338352     100.0%      0.0%      0.0%
 flops total                       475.670078E+06      10.8%     89.2%      0.0%
 flops max/rank                    208.313222E+06      12.1%     87.9%      0.0%
 matmuls inhomo. stacks                       222     100.0%      0.0%      0.0%
 matmuls total                               3019       7.4%     92.6%      0.0%
 number of processed stacks                  3019       7.4%     92.6%      0.0%
 average stack size                                     1.0       1.0       0.0
 marketing flops                   509.299840E+06
 -------------------------------------------------------------------------------
 # multiplications                            354
 max memory usage/rank               1.835860E+09
 # max total images/rank                        2
 # max 3D layers                                1
 # MPI messages exchanged                  147264
 MPI messages size (bytes):
  total size                       944.420160E+06
  min size                           0.000000E+00
  max size                         181.888000E+03
  average size                       6.413109E+03
 MPI breakdown and total messages size (bytes):
             size <=      128              126053                        0
       128 < size <=     8192                2918                 13937976
      8192 < size <=    32768                6253                 64680928
     32768 < size <=   131072               11438                756304640
    131072 < size <=  4194304                 602                109496576
   4194304 < size <= 16777216                   0                        0
  16777216 < size                               0                        0
 -------------------------------------------------------------------------------

 *** WARNING in dbcsr_mm.F:294 :: Using a non-square number of MPI ranks ***
 *** might lead to poor performance. Used ranks: 32 Suggested: 36 64     ***

 -------------------------------------------------------------------------------
 -                                                                             -
 -                      DBCSR MESSAGE PASSING PERFORMANCE                      -
 -                                                                             -
 -------------------------------------------------------------------------------
 ROUTINE             CALLS      AVE VOLUME [Bytes]
 MP_Bcast               26                     12.
 MP_Allreduce         1938                      9.
 MP_Alltoall          1518                   5595.
 MP_ISend            10826                   6590.
 MP_IRecv            10746                   4939.
 -------------------------------------------------------------------------------

 -------------------------------------------------------------------------------
 -                                                                             -
 -                                GRID STATISTICS                              -
 -                                                                             -
 -------------------------------------------------------------------------------
 LP    KERNEL    OPERATION                                     COUNT     PERCENT
 0     general   collocate                                       160       0.34%
 0     ortho     integrate                                      1088       2.29%
 0     ortho     collocate                                      1152       2.42%
 1     ortho     integrate                                      2465       5.19%
 1     ortho     collocate                                      2610       5.49%
 2     ortho     integrate                                      3944       8.30%
 2     ortho     collocate                                      4176       8.79%
 3     ortho     integrate                                      2720       5.72%
 3     ortho     collocate                                      2880       6.06%
 4     ortho     integrate                                      6800      14.31%
 4     ortho     collocate                                      7200      15.15%
 5     ortho     integrate                                      1904       4.01%
 5     ortho     collocate                                      2016       4.24%
 6     ortho     integrate                                      2720       5.72%
 6     ortho     collocate                                      2880       6.06%
 7     ortho     integrate                                      1088       2.29%
 7     ortho     collocate                                      1152       2.42%
 8     ortho     integrate                                       272       0.57%
 8     ortho     collocate                                       288       0.61%
 -------------------------------------------------------------------------------

 MEMORY| Estimated peak process memory [MiB]                                1751

 -------------------------------------------------------------------------------
 -                                                                             -
 -                         MESSAGE PASSING PERFORMANCE                         -
 -                                                                             -
 -------------------------------------------------------------------------------

 ROUTINE             CALLS      AVE VOLUME [Bytes]
 MP_Group                5
 MP_Bcast              327                 714440.
 MP_Allreduce          893                   4388.
 MP_Sync               106
 MP_Alltoall           345               31216741.
 MP_ISendRecv         3286                 164934.
 MP_Wait              5132
 MP_comm_split          14
 MP_ISend             1562                1072422.
 MP_IRecv             1562                1072139.
 MP_Recv                 6                   6784.
 -------------------------------------------------------------------------------


 -------------------------------------------------------------------------------
 -                                                                             -
 -                           R E F E R E N C E S                               -
 -                                                                             -
 -------------------------------------------------------------------------------
 
 CP2K version 8.0 (Development Version), the CP2K developers group (2020).
 CP2K is freely available from https://www.cp2k.org/ .

 Kuehne,Thomas D.; Iannuzzi,Marcella; Del Ben,Mauro;
 Rybkin,Vladimir V.; Seewald,Patrick; Stein,Frederick; Laino,Teodoro;
 Khaliullin,Rustam Z.; Schuett,Ole; Schiffmann,Florian; Golze,Dorothea;
 Wilhelm,Jan; Chulkov,Sergey; Bani-Hashemian,Mohammad Hossein;
 Weber,Valery; Borstnik,Urban; Taillefumier,Mathieu;
 Jakobovits,Alice Shoshana; Lazzaro,Alfio; Pabst,Hans; Mueller,Tiziano;
 Schade,Robert; Guidon,Manuel; Andermatt,Samuel; Holmberg,Nico;
 Schenter,Gregory K.; Hehn,Anna; Bussy,Augustin; Belleflamme,Fabian;
 Tabacchi,Gloria; Gloess,Andreas; Lass,Michael; Bethune,Iain;
 Mundy,Christopher J.; Plessl,Christian; Watkins,Matt;
 VandeVondele,Joost; Krack,Matthias; Hutter,Juerg. 
 The Journal of Chemical Physics, 152 (19), (2020). 
 CP2K: An electronic structure and molecular dynamics software package -
 Quickstep: Efficient and accurate electronic structure calculations.
 https://doi.org/10.1063/5.0007045

 Schuett, Ole; Messmer, Peter; Hutter, Juerg; VandeVondele, Joost. 
 Electronic Structure Calculations on Graphics Processing Units, John
 Wiley & Sons, Ltd, 173-190 (2016). 
 GPU-Accelerated Sparse Matrix-Matrix Multiplication for
 Linear Scaling Density Functional Theory.
 https://doi.org/10.1002/9781118670712.ch8

 Borstnik, U; VandeVondele, J; Weber, V; Hutter, J. 
 PARALLEL COMPUTING, 40 (5-6), 47-58 (2014). 
 Sparse matrix multiplication: The distributed block-compressed sparse
 row library.
 https://doi.org/10.1016/j.parco.2014.03.012

 Hutter, J; Iannuzzi, M; Schiffmann, F; VandeVondele, J. 
 WIREs Comput Mol Sci., 4 (1), 15-25 (2014). 
 CP2K: atomistic simulations of condensed matter systems.
 https://doi.org/10.1002/wcms.1159

 Marek, A; Blum, V; Johanni, R; Havu, V; Lang, B; Auckenthaler, T;
 Heinecke, A; Bungartz, H; Lederer, H. 
 Journal of Physics: Condensed Matter, 26 (21), (2014). 
 The ELPA library: scalable parallel eigenvalue solutions for
 electronic structure
 theory and computational science.
 https://doi.org/10.1088/0953-8984/26/21/213201

 Guidon, M; Hutter, J; VandeVondele, J. 
 JOURNAL OF CHEMICAL THEORY AND COMPUTATION, 5 (11), 3010-3021 (2009). 
 Robust Periodic Hartree-Fock Exchange for Large-Scale Simulations Using
 Gaussian Basis Sets.
 https://doi.org/10.1021/ct900494g

 Guidon, M; Schiffmann, F; Hutter, J; VandeVondele, J. 
 JOURNAL OF CHEMICAL PHYSICS, 128 (21), 214104 (2008). 
 Ab initio molecular dynamics using hybrid density functionals.
 https://doi.org/10.1063/1.2931945

 Krack, M. 
 THEORETICAL CHEMISTRY ACCOUNTS, 114 (1-3), 145-152 (2005). 
 Pseudopotentials for H to Kr optimized for gradient-corrected
 exchange-correlation functionals.
 https://doi.org/10.1007/s00214-005-0655-y

 VandeVondele, J; Krack, M; Mohamed, F; Parrinello, M; Chassaing, T;
 Hutter, J. COMPUTER PHYSICS COMMUNICATIONS, 167 (2), 103-128 (2005). 
 QUICKSTEP: Fast and accurate density functional calculations using a
 mixed Gaussian and plane waves approach.
 https://doi.org/10.1016/j.cpc.2004.12.014

 Frigo, M; Johnson, SG. 
 PROCEEDINGS OF THE IEEE, 93 (2), 216-231 (2005). 
 The design and implementation of FFTW3.
 https://doi.org/10.1109/JPROC.2004.840301

 VandeVondele, J; Hutter, J. 
 JOURNAL OF CHEMICAL PHYSICS, 118 (10), 4365-4369 (2003). 
 An efficient orbital transformation method for electronic structure
 calculations.
 https://doi.org/10.1063/1.1543154

 Martyna, GJ; Tuckerman, ME. 
 JOURNAL OF CHEMICAL PHYSICS, 110 (6), 2810-2821 (1999). 
 A reciprocal space based method for treating long range interactions in
 ab initio and force-field-based calculations in clusters.
 https://doi.org/10.1063/1.477923

 Hartwigsen, C; Goedecker, S; Hutter, J. 
 PHYSICAL REVIEW B, 58 (7), 3641-3662 (1998). 
 Relativistic separable dual-space Gaussian pseudopotentials from H to Rn.
 https://doi.org/10.1103/PhysRevB.58.3641

 Lippert, G; Hutter, J; Parrinello, M. 
 MOLECULAR PHYSICS, 92 (3), 477-487 (1997). 
 A hybrid Gaussian and plane wave density functional scheme.
 https://doi.org/10.1080/002689797170220

 Perdew, JP; Burke, K; Ernzerhof, M. 
 PHYSICAL REVIEW LETTERS, 77 (18), 3865-3868 (1996). 
 Generalized gradient approximation made simple.
 https://doi.org/10.1103/PhysRevLett.77.3865

 Goedecker, S; Teter, M; Hutter, J. 
 PHYSICAL REVIEW B, 54 (3), 1703-1710 (1996). 
 Separable dual-space Gaussian pseudopotentials.
 https://doi.org/10.1103/PhysRevB.54.1703


 -------------------------------------------------------------------------------
 -                                                                             -
 -                                T I M I N G                                  -
 -                                                                             -
 -------------------------------------------------------------------------------
 SUBROUTINE                       CALLS  ASD         SELF TIME        TOTAL TIME
                                MAXIMUM       AVERAGE  MAXIMUM  AVERAGE  MAXIMUM
 CP2K                                 1  1.0    0.100    0.111   91.089   91.093
 qs_energies                          1  2.0    0.000    0.000   89.929   89.933
 scf_env_do_scf                       1  3.0    0.000    0.000   89.308   89.312
 qs_ks_update_qs_env                 19  5.0    0.000    0.000   82.178   82.182
 rebuild_ks_matrix                   17  6.0    0.000    0.000   82.175   82.179
 qs_ks_build_kohn_sham_matrix        17  7.0    0.003    0.004   82.175   82.179
 hfx_ks_matrix                       17  8.0    0.001    0.001   59.175   59.178
 integrate_four_center               17  9.0    0.013    0.014   59.174   59.176
 init_scf_loop                        2  4.0    0.000    0.000   49.099   49.101
 scf_env_do_scf_inner_loop           17  4.0    0.001    0.002   40.208   40.210
 calc_screening_functions             1 10.0   28.974   29.272   30.138   30.430
 integrate_four_center_main          17 10.0    0.003    0.004   23.912   25.400
 integrate_four_center_bin         2125 11.0   23.909   25.397   23.909   25.397
 pw_transfer                        330  9.6    0.038    0.052   18.817   20.571
 fft_wrap_pw1pw2                    296 10.7    0.005    0.007   18.611   20.356
 fft_wrap_pw1pw2_300                190 11.8    1.245    1.309   17.486   19.248
 fft3d_ps                           296 12.7    6.012    6.308   13.623   15.394
 qs_vxc_create                       17  8.0    0.000    0.001   15.134   15.165
 xc_vxc_pw_create                    17  9.0    0.144    0.168   15.133   15.165
 xc_rho_set_and_dset_create          17 10.0    0.072    0.080    6.910    8.816
 qs_rho_update_rho                   18  5.0    0.000    0.000    7.024    7.024
 calculate_rho_elec                  18  6.0    0.066    0.070    7.024    7.024
 mp_alltoall_z22v                   296 14.7    4.775    6.813    4.775    6.813
 yz_to_x                            142 13.1    1.353    1.491    4.639    6.490
 density_rs2pw                       18  7.0    0.001    0.002    5.903    6.152
 sum_up_and_integrate                17  8.0    0.039    0.044    5.171    5.174
 integrate_v_rspace                  17  9.0    0.001    0.001    5.132    5.136
 mp_sync                            106 10.9    1.697    4.966    1.697    4.966
 rs_pw_transfer                     141  9.4    0.004    0.005    4.585    4.870
 potential_pw2rs                     17 10.0    0.005    0.006    4.057    4.061
 xc_functional_eval                  17 11.0    0.000    0.000    1.816    3.724
 pbe_lda_eval                        17 12.0    1.816    3.724    1.816    3.724
 x_to_yz                            154 14.2    1.472    1.603    2.961    3.057
 calc_pair_dist_radii                 1 10.0    2.557    2.577    2.886    2.905
 grid_collocate_task_list            18  7.0    0.984    2.081    0.984    2.081
 rs_pw_transfer_RS2PW_300            19  8.9    0.782    0.902    1.766    2.033
 pw_scatter_p                       154 13.2    1.965    2.013    1.965    2.013
 -------------------------------------------------------------------------------

 The number of warnings for this run is : 1
 
 -------------------------------------------------------------------------------
  **** **** ******  **  PROGRAM ENDED AT                 2020-12-17 18:22:14.860
 ***** ** ***  *** **   PROGRAM RAN ON                                   tcopt10
 **    ****   ******    PROGRAM RAN BY                                    hutter
 ***** **    ** ** **   PROGRAM PROCESS ID                                 10444
  **** **  *******  **  PROGRAM STOPPED IN /data/hutter/GITHUB/BASIS/MOLOPT/PBE0
                                           /Br
