SIRIUS 7.0.0, git hash: https://api.github.com/repos/electronic-structure/SIRIUS/git/ref/tags/v7.0.0

  **** **** ******  **  PROGRAM STARTED AT               2020-12-18 14:53:28.876
 ***** ** ***  *** **   PROGRAM STARTED ON                               tcopt10
 **    ****   ******    PROGRAM STARTED BY                                hutter
 ***** **    ** ** **   PROGRAM PROCESS ID                                 11436
  **** **  *******  **  PROGRAM STARTED IN /data/hutter/GITHUB/BASIS/MOLOPT/PBE0
                                           /Br

 CP2K| version string:                    CP2K version 8.0 (Development Version)
 CP2K| source code revision number:                                  git:7416431
 CP2K| cp2kflags: omp libint fftw3 libxc elpa parallel mpi3 scalapack xsmm spgli
 CP2K|            b sirius
 CP2K| is freely available from                            https://www.cp2k.org/
 CP2K| Program compiled at                          Thu Dec 10 17:08:57 CET 2020
 CP2K| Program compiled on                                               tcopt10
 CP2K| Program compiled for                                                local
 CP2K| Data directory path                 /data/hutter/GITHUB/CURRENT/cp2k/data
 CP2K| Input file name                                              opt-dzvp.inp

 GLOBAL| Method name                                              OPTIMIZE_BASIS
 GLOBAL| Project name                                                     molopt
 GLOBAL| Preferred FFT library                                             FFTW3
 GLOBAL| Preferred diagonalization lib.                                     ELPA
 GLOBAL| Run type                                                   ENERGY_FORCE
 GLOBAL| All-to-all communication in single precision                          F
 GLOBAL| FFTs using library dependent lengths                                  F
 GLOBAL| Global print level                                               MEDIUM
 GLOBAL| MPI I/O enabled                                                       T
 GLOBAL| Total number of message passing processes                             8
 GLOBAL| Number of threads for this process                                    1
 GLOBAL| This output is from process                                           0
 GLOBAL| CPU model name                          AMD EPYC 7401 24-Core Processor
 GLOBAL| CPUID                                                              1002

 MEMORY| system memory details [Kb]
 MEMORY|                        rank 0           min           max       average
 MEMORY| MemTotal            263987256     263987256     263987256     263987256
 MEMORY| MemFree              38423692      38423692      38423692      38423692
 MEMORY| Buffers                    32            32            32            32
 MEMORY| Cached                 383116        383116        383116        383116
 MEMORY| Slab                   767000        767000        767000        767000
 MEMORY| SReclaimable           279328        279328        279328        279328
 MEMORY| MemLikelyFree        39086168      39086168      39086168      39086168


 *** Fundamental physical constants (SI units) ***

 *** Literature: B. J. Mohr and B. N. Taylor,
 ***             CODATA recommended values of the fundamental physical
 ***             constants: 2006, Web Version 5.1
 ***             http://physics.nist.gov/constants

 Speed of light in vacuum [m/s]                             2.99792458000000E+08
 Magnetic constant or permeability of vacuum [N/A**2]       1.25663706143592E-06
 Electric constant or permittivity of vacuum [F/m]          8.85418781762039E-12
 Planck constant (h) [J*s]                                  6.62606896000000E-34
 Planck constant (h-bar) [J*s]                              1.05457162825177E-34
 Elementary charge [C]                                      1.60217648700000E-19
 Electron mass [kg]                                         9.10938215000000E-31
 Electron g factor [ ]                                     -2.00231930436220E+00
 Proton mass [kg]                                           1.67262163700000E-27
 Fine-structure constant                                    7.29735253760000E-03
 Rydberg constant [1/m]                                     1.09737315685270E+07
 Avogadro constant [1/mol]                                  6.02214179000000E+23
 Boltzmann constant [J/K]                                   1.38065040000000E-23
 Atomic mass unit [kg]                                      1.66053878200000E-27
 Bohr radius [m]                                            5.29177208590000E-11

 *** Conversion factors ***

 [u] -> [a.u.]                                              1.82288848426455E+03
 [Angstrom] -> [Bohr] = [a.u.]                              1.88972613288564E+00
 [a.u.] = [Bohr] -> [Angstrom]                              5.29177208590000E-01
 [a.u.] -> [s]                                              2.41888432650478E-17
 [a.u.] -> [fs]                                             2.41888432650478E-02
 [a.u.] -> [J]                                              4.35974393937059E-18
 [a.u.] -> [N]                                              8.23872205491840E-08
 [a.u.] -> [K]                                              3.15774647902944E+05
 [a.u.] -> [kJ/mol]                                         2.62549961709828E+03
 [a.u.] -> [kcal/mol]                                       6.27509468713739E+02
 [a.u.] -> [Pa]                                             2.94210107994716E+13
 [a.u.] -> [bar]                                            2.94210107994716E+08
 [a.u.] -> [atm]                                            2.90362800883016E+08
 [a.u.] -> [eV]                                             2.72113838565563E+01
 [a.u.] -> [Hz]                                             6.57968392072181E+15
 [a.u.] -> [1/cm] (wave numbers)                            2.19474631370540E+05
 [a.u./Bohr**2] -> [1/cm]                                   5.14048714338585E+03
 
 DBCSR| CPU Multiplication driver                                           XSMM
 DBCSR| Multrec recursion limit                                              512
 DBCSR| Multiplication stack size                                           1000
 DBCSR| Maximum elements for images                                    UNLIMITED
 DBCSR| Multiplicative factor virtual images                                   1
 DBCSR| Use multiplication densification                                       T
 DBCSR| Multiplication size stacks                                             3
 DBCSR| Use memory pool for CPU allocation                                     F
 DBCSR| Number of 3D layers                                               SINGLE
 DBCSR| Use MPI memory allocation                                              F
 DBCSR| Use RMA algorithm                                                      F
 DBCSR| Use Communication thread                                               T
 DBCSR| Communication thread load                                             87
 DBCSR| MPI: My node id                                                        0
 DBCSR| MPI: Number of nodes                                                   8
 DBCSR| OMP: Current number of threads                                         1
 DBCSR| OMP: Max number of threads                                             1
 DBCSR| Split modifier for TAS multiplication algorithm                  1.0E+00

 BASOPT| Total number of calculations      5

 BASOPT| Content of basis combination      1
 BASOPT|     Element:   BR    Basis set:    DZVP-MOLOPT-PBE0-GTH-Q7
 BASOPT|     Element:    H    Basis set:    DZVP-MOLOPT-PBE0-GTH-Q1
 BASOPT|     Element:    O    Basis set:    DZVP-MOLOPT-PBE0-GTH-Q6
 BASOPT|     Element:    C    Basis set:    DZVP-MOLOPT-PBE0-GTH-Q4
 BASOPT|     Element:   CL    Basis set:    DZVP-MOLOPT-PBE0-GTH-Q7

 BASOPT| Information at iteration number:       0
 BASOPT| Training set | Combination | Rho difference | Condition num. | Time
 BASOPT| -----------------------------------------------------------------------
 BASOPT|        1     |       1     | 0.52291732E-02 | 0.30082566E+02 |    0.008
 BASOPT|        2     |       1     | 0.40590438E-02 | 0.32121694E+02 |    0.010
 BASOPT|        3     |       1     | 0.27191139E-01 | 0.26351285E+03 |    0.275
 BASOPT|        4     |       1     | 0.27333050E-02 | 0.23049892E+02 |    0.005
 BASOPT|        5     |       1     | 0.90296407E-02 | 0.11804487E+03 |    0.044
 BASOPT| -----------------------------------------------------------------------
 BASOPT| Total residuum value: -.45336866E+03

 BASOPT| Information at iteration number:     100
 BASOPT| Training set | Combination | Rho difference | Condition num. | Time
 BASOPT| -----------------------------------------------------------------------
 BASOPT|        1     |       1     | 0.44430339E-02 | 0.74546772E+02 |    0.699
 BASOPT|        2     |       1     | 0.35404875E-02 | 0.51823983E+02 |    0.828
 BASOPT|        3     |       1     | 0.27659107E-01 | 0.74767624E+03 |   35.200
 BASOPT|        4     |       1     | 0.17522331E-02 | 0.23986288E+02 |    0.444
 BASOPT|        5     |       1     | 0.63061726E-02 | 0.24356712E+03 |    4.333
 BASOPT| -----------------------------------------------------------------------
 BASOPT| Total residuum value: -.45361647E+03

 BASOPT| Information at iteration number:     200
 BASOPT| Training set | Combination | Rho difference | Condition num. | Time
 BASOPT| -----------------------------------------------------------------------
 BASOPT|        1     |       1     | 0.40378775E-02 | 0.72329746E+02 |    1.389
 BASOPT|        2     |       1     | 0.33403287E-02 | 0.55046685E+02 |    1.640
 BASOPT|        3     |       1     | 0.24996021E-01 | 0.31143551E+03 |   71.128
 BASOPT|        4     |       1     | 0.16052817E-02 | 0.25266527E+02 |    0.881
 BASOPT|        5     |       1     | 0.58254706E-02 | 0.19901641E+03 |    8.628
 BASOPT| -----------------------------------------------------------------------
 BASOPT| Total residuum value: -.45380422E+03

 BASOPT| Information at iteration number:     300
 BASOPT| Training set | Combination | Rho difference | Condition num. | Time
 BASOPT| -----------------------------------------------------------------------
 BASOPT|        1     |       1     | 0.40475777E-02 | 0.67325489E+02 |    2.078
 BASOPT|        2     |       1     | 0.33482013E-02 | 0.53617415E+02 |    2.455
 BASOPT|        3     |       1     | 0.23087718E-01 | 0.28932376E+03 |  105.473
 BASOPT|        4     |       1     | 0.16552768E-02 | 0.25722346E+02 |    1.315
 BASOPT|        5     |       1     | 0.60282484E-02 | 0.18575778E+03 |   12.911
 BASOPT| -----------------------------------------------------------------------
 BASOPT| Total residuum value: -.45383485E+03

 BASOPT| Information at iteration number:     400
 BASOPT| Training set | Combination | Rho difference | Condition num. | Time
 BASOPT| -----------------------------------------------------------------------
 BASOPT|        1     |       1     | 0.38058134E-02 | 0.70465270E+02 |    2.767
 BASOPT|        2     |       1     | 0.32501382E-02 | 0.54257677E+02 |    3.273
 BASOPT|        3     |       1     | 0.22633755E-01 | 0.28160817E+03 |  141.658
 BASOPT|        4     |       1     | 0.16668990E-02 | 0.25894440E+02 |    1.751
 BASOPT|        5     |       1     | 0.59636037E-02 | 0.19694071E+03 |   17.193
 BASOPT| -----------------------------------------------------------------------
 BASOPT| Total residuum value: -.45385189E+03

 BASOPT| Information at iteration number:     500
 BASOPT| Training set | Combination | Rho difference | Condition num. | Time
 BASOPT| -----------------------------------------------------------------------
 BASOPT|        1     |       1     | 0.38055521E-02 | 0.71775018E+02 |    3.455
 BASOPT|        2     |       1     | 0.32690453E-02 | 0.54533118E+02 |    4.093
 BASOPT|        3     |       1     | 0.22661806E-01 | 0.31764659E+03 |  177.964
 BASOPT|        4     |       1     | 0.16849278E-02 | 0.26214820E+02 |    2.187
 BASOPT|        5     |       1     | 0.58398320E-02 | 0.21157532E+03 |   21.480
 BASOPT| -----------------------------------------------------------------------
 BASOPT| Total residuum value: -.45388766E+03

 BASOPT| Information at iteration number:     600
 BASOPT| Training set | Combination | Rho difference | Condition num. | Time
 BASOPT| -----------------------------------------------------------------------
 BASOPT|        1     |       1     | 0.38526124E-02 | 0.66233263E+02 |    4.144
 BASOPT|        2     |       1     | 0.32725946E-02 | 0.51168208E+02 |    4.914
 BASOPT|        3     |       1     | 0.22500188E-01 | 0.31861020E+03 |  214.543
 BASOPT|        4     |       1     | 0.16529526E-02 | 0.25693850E+02 |    2.621
 BASOPT|        5     |       1     | 0.58659902E-02 | 0.20805441E+03 |   25.764
 BASOPT| -----------------------------------------------------------------------
 BASOPT| Total residuum value: -.45393019E+03

 BASOPT| Information at iteration number:     700
 BASOPT| Training set | Combination | Rho difference | Condition num. | Time
 BASOPT| -----------------------------------------------------------------------
 BASOPT|        1     |       1     | 0.42194555E-02 | 0.51106012E+02 |    4.835
 BASOPT|        2     |       1     | 0.34314056E-02 | 0.44338160E+02 |    5.736
 BASOPT|        3     |       1     | 0.22062004E-01 | 0.29407279E+03 |  250.236
 BASOPT|        4     |       1     | 0.17512694E-02 | 0.25052384E+02 |    3.055
 BASOPT|        5     |       1     | 0.63400886E-02 | 0.16518630E+03 |   30.051
 BASOPT| -----------------------------------------------------------------------
 BASOPT| Total residuum value: -.45394956E+03

 BASOPT| Information at iteration number:     800
 BASOPT| Training set | Combination | Rho difference | Condition num. | Time
 BASOPT| -----------------------------------------------------------------------
 BASOPT|        1     |       1     | 0.42191764E-02 | 0.53158794E+02 |    5.524
 BASOPT|        2     |       1     | 0.34438988E-02 | 0.45262911E+02 |    6.557
 BASOPT|        3     |       1     | 0.21823284E-01 | 0.29677967E+03 |  286.410
 BASOPT|        4     |       1     | 0.18850192E-02 | 0.25963932E+02 |    3.489
 BASOPT|        5     |       1     | 0.63941157E-02 | 0.18884708E+03 |   34.333
 BASOPT| -----------------------------------------------------------------------
 BASOPT| Total residuum value: -.45396694E+03

 BASOPT| Information at iteration number:     900
 BASOPT| Training set | Combination | Rho difference | Condition num. | Time
 BASOPT| -----------------------------------------------------------------------
 BASOPT|        1     |       1     | 0.41278190E-02 | 0.52412988E+02 |    6.214
 BASOPT|        2     |       1     | 0.33907530E-02 | 0.44538010E+02 |    7.382
 BASOPT|        3     |       1     | 0.21694978E-01 | 0.29896760E+03 |  321.804
 BASOPT|        4     |       1     | 0.18016718E-02 | 0.25766340E+02 |    3.925
 BASOPT|        5     |       1     | 0.62744961E-02 | 0.19010071E+03 |   38.620
 BASOPT| -----------------------------------------------------------------------
 BASOPT| Total residuum value: -.45398155E+03

 BASOPT| Information at iteration number:    1000
 BASOPT| Training set | Combination | Rho difference | Condition num. | Time
 BASOPT| -----------------------------------------------------------------------
 BASOPT|        1     |       1     | 0.41541189E-02 | 0.49383930E+02 |    6.905
 BASOPT|        2     |       1     | 0.33990119E-02 | 0.42827750E+02 |    8.207
 BASOPT|        3     |       1     | 0.21567971E-01 | 0.29575857E+03 |  358.308
 BASOPT|        4     |       1     | 0.17916362E-02 | 0.25713269E+02 |    4.364
 BASOPT|        5     |       1     | 0.62916991E-02 | 0.18436630E+03 |   42.902
 BASOPT| -----------------------------------------------------------------------
 BASOPT| Total residuum value: -.45399109E+03

 BASOPT| Information at iteration number:    1100
 BASOPT| Training set | Combination | Rho difference | Condition num. | Time
 BASOPT| -----------------------------------------------------------------------
 BASOPT|        1     |       1     | 0.42512355E-02 | 0.42731804E+02 |    7.596
 BASOPT|        2     |       1     | 0.34487666E-02 | 0.39439867E+02 |    9.030
 BASOPT|        3     |       1     | 0.21248276E-01 | 0.29330154E+03 |  393.398
 BASOPT|        4     |       1     | 0.19321610E-02 | 0.25932945E+02 |    4.801
 BASOPT|        5     |       1     | 0.65540969E-02 | 0.17587167E+03 |   47.187
 BASOPT| -----------------------------------------------------------------------
 BASOPT| Total residuum value: -.45400775E+03

 BASOPT| Information at iteration number:    1200
 BASOPT| Training set | Combination | Rho difference | Condition num. | Time
 BASOPT| -----------------------------------------------------------------------
 BASOPT|        1     |       1     | 0.42317210E-02 | 0.35629337E+02 |    8.288
 BASOPT|        2     |       1     | 0.34376588E-02 | 0.35627684E+02 |    9.854
 BASOPT|        3     |       1     | 0.21126829E-01 | 0.28352765E+03 |  428.984
 BASOPT|        4     |       1     | 0.19250675E-02 | 0.25857398E+02 |    5.238
 BASOPT|        5     |       1     | 0.66037672E-02 | 0.15886991E+03 |   51.470
 BASOPT| -----------------------------------------------------------------------
 BASOPT| Total residuum value: -.45401919E+03

 BASOPT| Information at iteration number:    1300
 BASOPT| Training set | Combination | Rho difference | Condition num. | Time
 BASOPT| -----------------------------------------------------------------------
 BASOPT|        1     |       1     | 0.43466187E-02 | 0.34216677E+02 |    8.980
 BASOPT|        2     |       1     | 0.34891478E-02 | 0.34978184E+02 |   10.682
 BASOPT|        3     |       1     | 0.20976714E-01 | 0.28174263E+03 |  464.637
 BASOPT|        4     |       1     | 0.19811370E-02 | 0.26072379E+02 |    5.673
 BASOPT|        5     |       1     | 0.67165554E-02 | 0.16313582E+03 |   55.750
 BASOPT| -----------------------------------------------------------------------
 BASOPT| Total residuum value: -.45402638E+03

 BASOPT| Information at iteration number:    1400
 BASOPT| Training set | Combination | Rho difference | Condition num. | Time
 BASOPT| -----------------------------------------------------------------------
 BASOPT|        1     |       1     | 0.44185564E-02 | 0.34468832E+02 |    9.672
 BASOPT|        2     |       1     | 0.35209066E-02 | 0.35166793E+02 |   11.510
 BASOPT|        3     |       1     | 0.20980403E-01 | 0.27870999E+03 |  500.669
 BASOPT|        4     |       1     | 0.20259089E-02 | 0.26142001E+02 |    6.107
 BASOPT|        5     |       1     | 0.67905608E-02 | 0.16689562E+03 |   60.029
 BASOPT| -----------------------------------------------------------------------
 BASOPT| Total residuum value: -.45402759E+03

 BASOPT| Information at iteration number:    1500
 BASOPT| Training set | Combination | Rho difference | Condition num. | Time
 BASOPT| -----------------------------------------------------------------------
 BASOPT|        1     |       1     | 0.43800885E-02 | 0.34079292E+02 |   10.367
 BASOPT|        2     |       1     | 0.35051684E-02 | 0.35006863E+02 |   12.333
 BASOPT|        3     |       1     | 0.20969330E-01 | 0.27968293E+03 |  535.988
 BASOPT|        4     |       1     | 0.20236495E-02 | 0.26181395E+02 |    6.542
 BASOPT|        5     |       1     | 0.67726683E-02 | 0.16780560E+03 |   64.312
 BASOPT| -----------------------------------------------------------------------
 BASOPT| Total residuum value: -.45403018E+03

 BASOPT| Information at iteration number:    1600
 BASOPT| Training set | Combination | Rho difference | Condition num. | Time
 BASOPT| -----------------------------------------------------------------------
 BASOPT|        1     |       1     | 0.43998506E-02 | 0.34120097E+02 |   11.062
 BASOPT|        2     |       1     | 0.35148068E-02 | 0.35111967E+02 |   13.158
 BASOPT|        3     |       1     | 0.20923803E-01 | 0.28203446E+03 |  571.704
 BASOPT|        4     |       1     | 0.20306461E-02 | 0.26264689E+02 |    6.979
 BASOPT|        5     |       1     | 0.67820080E-02 | 0.17273363E+03 |   68.596
 BASOPT| -----------------------------------------------------------------------
 BASOPT| Total residuum value: -.45403263E+03

 BASOPT| Information at iteration number:    1700
 BASOPT| Training set | Combination | Rho difference | Condition num. | Time
 BASOPT| -----------------------------------------------------------------------
 BASOPT|        1     |       1     | 0.44088095E-02 | 0.32987784E+02 |   11.755
 BASOPT|        2     |       1     | 0.35224170E-02 | 0.34549493E+02 |   13.985
 BASOPT|        3     |       1     | 0.20843466E-01 | 0.28308499E+03 |  607.364
 BASOPT|        4     |       1     | 0.20549211E-02 | 0.26298595E+02 |    7.416
 BASOPT|        5     |       1     | 0.68471802E-02 | 0.16791843E+03 |   72.881
 BASOPT| -----------------------------------------------------------------------
 BASOPT| Total residuum value: -.45403507E+03

 BASOPT| Information at iteration number:    1800
 BASOPT| Training set | Combination | Rho difference | Condition num. | Time
 BASOPT| -----------------------------------------------------------------------
 BASOPT|        1     |       1     | 0.44232690E-02 | 0.32322993E+02 |   12.448
 BASOPT|        2     |       1     | 0.35331791E-02 | 0.34271851E+02 |   14.812
 BASOPT|        3     |       1     | 0.20854549E-01 | 0.28264918E+03 |  643.464
 BASOPT|        4     |       1     | 0.20902831E-02 | 0.26349660E+02 |    7.855
 BASOPT|        5     |       1     | 0.69013309E-02 | 0.16784326E+03 |   77.164
 BASOPT| -----------------------------------------------------------------------
 BASOPT| Total residuum value: -.45403770E+03

 BASOPT| Information at iteration number:    1900
 BASOPT| Training set | Combination | Rho difference | Condition num. | Time
 BASOPT| -----------------------------------------------------------------------
 BASOPT|        1     |       1     | 0.44646650E-02 | 0.32447255E+02 |   13.141
 BASOPT|        2     |       1     | 0.35480099E-02 | 0.34347592E+02 |   15.637
 BASOPT|        3     |       1     | 0.20811038E-01 | 0.28264883E+03 |  678.432
 BASOPT|        4     |       1     | 0.20889549E-02 | 0.26329356E+02 |    8.291
 BASOPT|        5     |       1     | 0.69278900E-02 | 0.16874313E+03 |   81.446
 BASOPT| -----------------------------------------------------------------------
 BASOPT| Total residuum value: -.45403838E+03

 BASOPT| Information at iteration number:    2000
 BASOPT| Training set | Combination | Rho difference | Condition num. | Time
 BASOPT| -----------------------------------------------------------------------
 BASOPT|        1     |       1     | 0.44569458E-02 | 0.32197934E+02 |   13.835
 BASOPT|        2     |       1     | 0.35469128E-02 | 0.34234714E+02 |   16.464
 BASOPT|        3     |       1     | 0.20773586E-01 | 0.28461849E+03 |  713.470
 BASOPT|        4     |       1     | 0.20952509E-02 | 0.26373561E+02 |    8.731
 BASOPT|        5     |       1     | 0.69435072E-02 | 0.16837060E+03 |   85.725
 BASOPT| -----------------------------------------------------------------------
 BASOPT| Total residuum value: -.45403942E+03

 BASOPT| Information at iteration number:    2100
 BASOPT| Training set | Combination | Rho difference | Condition num. | Time
 BASOPT| -----------------------------------------------------------------------
 BASOPT|        1     |       1     | 0.44652759E-02 | 0.32471977E+02 |   14.529
 BASOPT|        2     |       1     | 0.35514824E-02 | 0.34424424E+02 |   17.289
 BASOPT|        3     |       1     | 0.20765500E-01 | 0.28338189E+03 |  749.563
 BASOPT|        4     |       1     | 0.21066534E-02 | 0.26464353E+02 |    9.164
 BASOPT|        5     |       1     | 0.69429838E-02 | 0.17251083E+03 |   90.007
 BASOPT| -----------------------------------------------------------------------
 BASOPT| Total residuum value: -.45404022E+03

 BASOPT| Information at iteration number:    2200
 BASOPT| Training set | Combination | Rho difference | Condition num. | Time
 BASOPT| -----------------------------------------------------------------------
 BASOPT|        1     |       1     | 0.44480404E-02 | 0.32503573E+02 |   15.223
 BASOPT|        2     |       1     | 0.35429647E-02 | 0.34467094E+02 |   18.119
 BASOPT|        3     |       1     | 0.20768947E-01 | 0.28185150E+03 |  784.305
 BASOPT|        4     |       1     | 0.21014393E-02 | 0.26483419E+02 |    9.596
 BASOPT|        5     |       1     | 0.69304080E-02 | 0.17443622E+03 |   94.283
 BASOPT| -----------------------------------------------------------------------
 BASOPT| Total residuum value: -.45404121E+03

 BASOPT| Information at iteration number:    2300
 BASOPT| Training set | Combination | Rho difference | Condition num. | Time
 BASOPT| -----------------------------------------------------------------------
 BASOPT|        1     |       1     | 0.44460167E-02 | 0.32059539E+02 |   15.919
 BASOPT|        2     |       1     | 0.35402448E-02 | 0.34254610E+02 |   18.946
 BASOPT|        3     |       1     | 0.20761288E-01 | 0.28126279E+03 |  820.647
 BASOPT|        4     |       1     | 0.20899261E-02 | 0.26429243E+02 |   10.030
 BASOPT|        5     |       1     | 0.69279535E-02 | 0.17349455E+03 |   98.564
 BASOPT| -----------------------------------------------------------------------
 BASOPT| Total residuum value: -.45404228E+03

 BASOPT| Information at iteration number:    2400
 BASOPT| Training set | Combination | Rho difference | Condition num. | Time
 BASOPT| -----------------------------------------------------------------------
 BASOPT|        1     |       1     | 0.44301929E-02 | 0.31508828E+02 |   20.038
 BASOPT|        2     |       1     | 0.35349272E-02 | 0.33969046E+02 |   24.895
 BASOPT|        3     |       1     | 0.20798708E-01 | 0.27908787E+03 |  887.104
 BASOPT|        4     |       1     | 0.20915516E-02 | 0.26392831E+02 |   13.762
 BASOPT|        5     |       1     | 0.69189340E-02 | 0.17109524E+03 |  108.009
 BASOPT| -----------------------------------------------------------------------
 BASOPT| Total residuum value: -.45404331E+03

 BASOPT| Information at iteration number:    2500
 BASOPT| Training set | Combination | Rho difference | Condition num. | Time
 BASOPT| -----------------------------------------------------------------------
 BASOPT|        1     |       1     | 0.44299747E-02 | 0.31612320E+02 |   20.807
 BASOPT|        2     |       1     | 0.35373113E-02 | 0.34051586E+02 |   25.839
 BASOPT|        3     |       1     | 0.20777676E-01 | 0.28023049E+03 |  922.270
 BASOPT|        4     |       1     | 0.20983085E-02 | 0.26446086E+02 |   14.180
 BASOPT|        5     |       1     | 0.69221934E-02 | 0.17278289E+03 |  112.494
 BASOPT| -----------------------------------------------------------------------
 BASOPT| Total residuum value: -.45404382E+03

 BASOPT| Information at iteration number:    2600
 BASOPT| Training set | Combination | Rho difference | Condition num. | Time
 BASOPT| -----------------------------------------------------------------------
 BASOPT|        1     |       1     | 0.44231571E-02 | 0.31628835E+02 |   21.586
 BASOPT|        2     |       1     | 0.35340196E-02 | 0.34078736E+02 |   26.776
 BASOPT|        3     |       1     | 0.20739182E-01 | 0.27913322E+03 |  957.418
 BASOPT|        4     |       1     | 0.21060247E-02 | 0.26492611E+02 |   14.596
 BASOPT|        5     |       1     | 0.69348729E-02 | 0.17354619E+03 |  117.042
 BASOPT| -----------------------------------------------------------------------
 BASOPT| Total residuum value: -.45404462E+03

 BASOPT| Information at iteration number:    2700
 BASOPT| Training set | Combination | Rho difference | Condition num. | Time
 BASOPT| -----------------------------------------------------------------------
 BASOPT|        1     |       1     | 0.44101282E-02 | 0.31179391E+02 |   22.368
 BASOPT|        2     |       1     | 0.35287949E-02 | 0.33850892E+02 |   27.700
 BASOPT|        3     |       1     | 0.20786127E-01 | 0.27841634E+03 |  991.452
 BASOPT|        4     |       1     | 0.20946941E-02 | 0.26412275E+02 |   15.013
 BASOPT|        5     |       1     | 0.69114845E-02 | 0.17214421E+03 |  121.571
 BASOPT| -----------------------------------------------------------------------
 BASOPT| Total residuum value: -.45404557E+03

 BASOPT| Information at iteration number:    2800
 BASOPT| Training set | Combination | Rho difference | Condition num. | Time
 BASOPT| -----------------------------------------------------------------------
 BASOPT|        1     |       1     | 0.44141134E-02 | 0.31329514E+02 |   23.015
 BASOPT|        2     |       1     | 0.35301169E-02 | 0.33938897E+02 |   28.489
 BASOPT|        3     |       1     | 0.20789835E-01 | 0.27685976E+03 | 1027.636
 BASOPT|        4     |       1     | 0.21080271E-02 | 0.26444900E+02 |   15.415
 BASOPT|        5     |       1     | 0.69296969E-02 | 0.17349869E+03 |  125.850
 BASOPT| -----------------------------------------------------------------------
 BASOPT| Total residuum value: -.45404582E+03

 BASOPT| Information at iteration number:    2900
 BASOPT| Training set | Combination | Rho difference | Condition num. | Time
 BASOPT| -----------------------------------------------------------------------
 BASOPT|        1     |       1     | 0.44127623E-02 | 0.30984689E+02 |   23.658
 BASOPT|        2     |       1     | 0.35298635E-02 | 0.33750874E+02 |   29.274
 BASOPT|        3     |       1     | 0.20756706E-01 | 0.27552048E+03 | 1063.098
 BASOPT|        4     |       1     | 0.21092966E-02 | 0.26444715E+02 |   15.814
 BASOPT|        5     |       1     | 0.69372650E-02 | 0.17198035E+03 |  130.111
 BASOPT| -----------------------------------------------------------------------
 BASOPT| Total residuum value: -.45404646E+03

 BASOPT| Information at iteration number:    3000
 BASOPT| Training set | Combination | Rho difference | Condition num. | Time
 BASOPT| -----------------------------------------------------------------------
 BASOPT|        1     |       1     | 0.43899018E-02 | 0.30929849E+02 |   24.300
 BASOPT|        2     |       1     | 0.35188077E-02 | 0.33724210E+02 |   30.055
 BASOPT|        3     |       1     | 0.20759526E-01 | 0.27577608E+03 | 1098.215
 BASOPT|        4     |       1     | 0.20850816E-02 | 0.26419937E+02 |   16.213
 BASOPT|        5     |       1     | 0.68883436E-02 | 0.17208210E+03 |  134.371
 BASOPT| -----------------------------------------------------------------------
 BASOPT| Total residuum value: -.45404681E+03

 BASOPT| Information at iteration number:    3100
 BASOPT| Training set | Combination | Rho difference | Condition num. | Time
 BASOPT| -----------------------------------------------------------------------
 BASOPT|        1     |       1     | 0.43950421E-02 | 0.30471918E+02 |   24.945
 BASOPT|        2     |       1     | 0.35208329E-02 | 0.33470819E+02 |   30.835
 BASOPT|        3     |       1     | 0.20723675E-01 | 0.27382453E+03 | 1133.848
 BASOPT|        4     |       1     | 0.20855327E-02 | 0.26425398E+02 |   16.612
 BASOPT|        5     |       1     | 0.68956313E-02 | 0.17070940E+03 |  138.628
 BASOPT| -----------------------------------------------------------------------
 BASOPT| Total residuum value: -.45404737E+03

 BASOPT| Information at iteration number:    3200
 BASOPT| Training set | Combination | Rho difference | Condition num. | Time
 BASOPT| -----------------------------------------------------------------------
 BASOPT|        1     |       1     | 0.44031604E-02 | 0.31052538E+02 |   25.592
 BASOPT|        2     |       1     | 0.35228696E-02 | 0.33815341E+02 |   31.621
 BASOPT|        3     |       1     | 0.20721610E-01 | 0.27230468E+03 | 1169.419
 BASOPT|        4     |       1     | 0.20849252E-02 | 0.26467992E+02 |   17.022
 BASOPT|        5     |       1     | 0.68829562E-02 | 0.17552927E+03 |  142.896
 BASOPT| -----------------------------------------------------------------------
 BASOPT| Total residuum value: -.45404764E+03

 BASOPT| Information at iteration number:    3300
 BASOPT| Training set | Combination | Rho difference | Condition num. | Time
 BASOPT| -----------------------------------------------------------------------
 BASOPT|        1     |       1     | 0.43906988E-02 | 0.30674583E+02 |   26.273
 BASOPT|        2     |       1     | 0.35166530E-02 | 0.33602837E+02 |   32.400
 BASOPT|        3     |       1     | 0.20716890E-01 | 0.27156409E+03 | 1205.476
 BASOPT|        4     |       1     | 0.20674160E-02 | 0.26417337E+02 |   17.435
 BASOPT|        5     |       1     | 0.68577178E-02 | 0.17352380E+03 |  147.167
 BASOPT| -----------------------------------------------------------------------
 BASOPT| Total residuum value: -.45404804E+03

 BASOPT| Information at iteration number:    3400
 BASOPT| Training set | Combination | Rho difference | Condition num. | Time
 BASOPT| -----------------------------------------------------------------------
 BASOPT|        1     |       1     | 0.43712128E-02 | 0.30461943E+02 |   26.962
 BASOPT|        2     |       1     | 0.35081713E-02 | 0.33478203E+02 |   33.182
 BASOPT|        3     |       1     | 0.20755036E-01 | 0.26812275E+03 | 1240.802
 BASOPT|        4     |       1     | 0.20582235E-02 | 0.26379456E+02 |   17.847
 BASOPT|        5     |       1     | 0.68355866E-02 | 0.17189784E+03 |  151.437
 BASOPT| -----------------------------------------------------------------------
 BASOPT| Total residuum value: -.45404871E+03

 BASOPT| Information at iteration number:    3500
 BASOPT| Training set | Combination | Rho difference | Condition num. | Time
 BASOPT| -----------------------------------------------------------------------
 BASOPT|        1     |       1     | 0.44035917E-02 | 0.30882105E+02 |   27.653
 BASOPT|        2     |       1     | 0.35234896E-02 | 0.33742206E+02 |   33.967
 BASOPT|        3     |       1     | 0.20713981E-01 | 0.26771981E+03 | 1276.857
 BASOPT|        4     |       1     | 0.20838112E-02 | 0.26479721E+02 |   18.261
 BASOPT|        5     |       1     | 0.68900908E-02 | 0.17483210E+03 |  155.713
 BASOPT| -----------------------------------------------------------------------
 BASOPT| Total residuum value: -.45404947E+03

 BASOPT| Information at iteration number:    3600
 BASOPT| Training set | Combination | Rho difference | Condition num. | Time
 BASOPT| -----------------------------------------------------------------------
 BASOPT|        1     |       1     | 0.43741514E-02 | 0.30918441E+02 |   28.346
 BASOPT|        2     |       1     | 0.35122335E-02 | 0.33753799E+02 |   34.751
 BASOPT|        3     |       1     | 0.20713775E-01 | 0.26817547E+03 | 1311.590
 BASOPT|        4     |       1     | 0.20706810E-02 | 0.26546876E+02 |   18.674
 BASOPT|        5     |       1     | 0.68642311E-02 | 0.17376606E+03 |  159.983
 BASOPT| -----------------------------------------------------------------------
 BASOPT| Total residuum value: -.45405013E+03

 BASOPT| Information at iteration number:    3700
 BASOPT| Training set | Combination | Rho difference | Condition num. | Time
 BASOPT| -----------------------------------------------------------------------
 BASOPT|        1     |       1     | 0.43956838E-02 | 0.31102616E+02 |   29.046
 BASOPT|        2     |       1     | 0.35191805E-02 | 0.33873739E+02 |   35.538
 BASOPT|        3     |       1     | 0.20720739E-01 | 0.26557591E+03 | 1346.762
 BASOPT|        4     |       1     | 0.20718839E-02 | 0.26573134E+02 |   19.087
 BASOPT|        5     |       1     | 0.68776333E-02 | 0.17528667E+03 |  164.246
 BASOPT| -----------------------------------------------------------------------
 BASOPT| Total residuum value: -.45405044E+03

 BASOPT| Information at iteration number:    3800
 BASOPT| Training set | Combination | Rho difference | Condition num. | Time
 BASOPT| -----------------------------------------------------------------------
 BASOPT|        1     |       1     | 0.43902588E-02 | 0.31114689E+02 |   29.747
 BASOPT|        2     |       1     | 0.35192761E-02 | 0.33890464E+02 |   36.327
 BASOPT|        3     |       1     | 0.20697297E-01 | 0.26598007E+03 | 1382.253
 BASOPT|        4     |       1     | 0.20810870E-02 | 0.26669853E+02 |   19.500
 BASOPT|        5     |       1     | 0.68902431E-02 | 0.17569905E+03 |  168.513
 BASOPT| -----------------------------------------------------------------------
 BASOPT| Total residuum value: -.45405088E+03

 BASOPT| Information at iteration number:    3900
 BASOPT| Training set | Combination | Rho difference | Condition num. | Time
 BASOPT| -----------------------------------------------------------------------
 BASOPT|        1     |       1     | 0.44105468E-02 | 0.31098421E+02 |   30.447
 BASOPT|        2     |       1     | 0.35269623E-02 | 0.33893607E+02 |   37.118
 BASOPT|        3     |       1     | 0.20655080E-01 | 0.26523305E+03 | 1417.074
 BASOPT|        4     |       1     | 0.20913247E-02 | 0.26697685E+02 |   19.913
 BASOPT|        5     |       1     | 0.69229189E-02 | 0.17612882E+03 |  172.781
 BASOPT| -----------------------------------------------------------------------
 BASOPT| Total residuum value: -.45405085E+03

 BASOPT| Information at iteration number:    4000
 BASOPT| Training set | Combination | Rho difference | Condition num. | Time
 BASOPT| -----------------------------------------------------------------------
 BASOPT|        1     |       1     | 0.44011679E-02 | 0.31142888E+02 |   31.147
 BASOPT|        2     |       1     | 0.35238118E-02 | 0.33925310E+02 |   37.908
 BASOPT|        3     |       1     | 0.20679450E-01 | 0.26472765E+03 | 1451.881
 BASOPT|        4     |       1     | 0.20850223E-02 | 0.26707829E+02 |   20.325
 BASOPT|        5     |       1     | 0.68984534E-02 | 0.17681408E+03 |  177.045
 BASOPT| -----------------------------------------------------------------------
 BASOPT| Total residuum value: -.45405110E+03

 BASOPT| Information at iteration number:    4100
 BASOPT| Training set | Combination | Rho difference | Condition num. | Time
 BASOPT| -----------------------------------------------------------------------
 BASOPT|        1     |       1     | 0.44055914E-02 | 0.30992675E+02 |   31.849
 BASOPT|        2     |       1     | 0.35253066E-02 | 0.33865189E+02 |   38.696
 BASOPT|        3     |       1     | 0.20676756E-01 | 0.26268574E+03 | 1486.669
 BASOPT|        4     |       1     | 0.20841933E-02 | 0.26722375E+02 |   20.737
 BASOPT|        5     |       1     | 0.68972942E-02 | 0.17722548E+03 |  181.315
 BASOPT| -----------------------------------------------------------------------
 BASOPT| Total residuum value: -.45405141E+03

 BASOPT| Information at iteration number:    4200
 BASOPT| Training set | Combination | Rho difference | Condition num. | Time
 BASOPT| -----------------------------------------------------------------------
 BASOPT|        1     |       1     | 0.43855838E-02 | 0.30379534E+02 |   32.552
 BASOPT|        2     |       1     | 0.35162998E-02 | 0.33538408E+02 |   39.481
 BASOPT|        3     |       1     | 0.20677648E-01 | 0.26019400E+03 | 1523.124
 BASOPT|        4     |       1     | 0.20713106E-02 | 0.26695728E+02 |   21.152
 BASOPT|        5     |       1     | 0.68784854E-02 | 0.17421943E+03 |  185.582
 BASOPT| -----------------------------------------------------------------------
 BASOPT| Total residuum value: -.45405180E+03

 BASOPT| Information at iteration number:    4300
 BASOPT| Training set | Combination | Rho difference | Condition num. | Time
 BASOPT| -----------------------------------------------------------------------
 BASOPT|        1     |       1     | 0.43870823E-02 | 0.30695917E+02 |   33.253
 BASOPT|        2     |       1     | 0.35162487E-02 | 0.33744315E+02 |   40.263
 BASOPT|        3     |       1     | 0.20661208E-01 | 0.25897297E+03 | 1558.912
 BASOPT|        4     |       1     | 0.20745995E-02 | 0.26729257E+02 |   21.566
 BASOPT|        5     |       1     | 0.68756997E-02 | 0.17706315E+03 |  189.845
 BASOPT| -----------------------------------------------------------------------
 BASOPT| Total residuum value: -.45405200E+03

 BASOPT| Information at iteration number:    4400
 BASOPT| Training set | Combination | Rho difference | Condition num. | Time
 BASOPT| -----------------------------------------------------------------------
 BASOPT|        1     |       1     | 0.43659433E-02 | 0.30456448E+02 |   33.953
 BASOPT|        2     |       1     | 0.35073320E-02 | 0.33644173E+02 |   41.044
 BASOPT|        3     |       1     | 0.20676164E-01 | 0.25812854E+03 | 1593.425
 BASOPT|        4     |       1     | 0.20629069E-02 | 0.26670264E+02 |   21.982
 BASOPT|        5     |       1     | 0.68467717E-02 | 0.17637942E+03 |  194.107
 BASOPT| -----------------------------------------------------------------------
 BASOPT| Total residuum value: -.45405234E+03

 BASOPT| Information at iteration number:    4500
 BASOPT| Training set | Combination | Rho difference | Condition num. | Time
 BASOPT| -----------------------------------------------------------------------
 BASOPT|        1     |       1     | 0.43596038E-02 | 0.30674690E+02 |   34.655
 BASOPT|        2     |       1     | 0.35043433E-02 | 0.33797226E+02 |   41.825
 BASOPT|        3     |       1     | 0.20680535E-01 | 0.25652428E+03 | 1629.686
 BASOPT|        4     |       1     | 0.20640518E-02 | 0.26655027E+02 |   22.400
 BASOPT|        5     |       1     | 0.68424300E-02 | 0.17756432E+03 |  198.371
 BASOPT| -----------------------------------------------------------------------
 BASOPT| Total residuum value: -.45405262E+03

 BASOPT| Information at iteration number:    4600
 BASOPT| Training set | Combination | Rho difference | Condition num. | Time
 BASOPT| -----------------------------------------------------------------------
 BASOPT|        1     |       1     | 0.43581038E-02 | 0.30811514E+02 |   35.356
 BASOPT|        2     |       1     | 0.35037865E-02 | 0.33918142E+02 |   42.606
 BASOPT|        3     |       1     | 0.20694403E-01 | 0.25373350E+03 | 1666.042
 BASOPT|        4     |       1     | 0.20667069E-02 | 0.26601950E+02 |   22.817
 BASOPT|        5     |       1     | 0.68459835E-02 | 0.17758618E+03 |  202.627
 BASOPT| -----------------------------------------------------------------------
 BASOPT| Total residuum value: -.45405292E+03

 BASOPT| Information at iteration number:    4700
 BASOPT| Training set | Combination | Rho difference | Condition num. | Time
 BASOPT| -----------------------------------------------------------------------
 BASOPT|        1     |       1     | 0.43510704E-02 | 0.30893303E+02 |   36.056
 BASOPT|        2     |       1     | 0.35009651E-02 | 0.33965547E+02 |   43.386
 BASOPT|        3     |       1     | 0.20685529E-01 | 0.25341028E+03 | 1701.959
 BASOPT|        4     |       1     | 0.20678020E-02 | 0.26641920E+02 |   23.236
 BASOPT|        5     |       1     | 0.68461430E-02 | 0.17778827E+03 |  206.883
 BASOPT| -----------------------------------------------------------------------
 BASOPT| Total residuum value: -.45405300E+03

 BASOPT| Information at iteration number:    4800
 BASOPT| Training set | Combination | Rho difference | Condition num. | Time
 BASOPT| -----------------------------------------------------------------------
 BASOPT|        1     |       1     | 0.43525223E-02 | 0.30880256E+02 |   36.756
 BASOPT|        2     |       1     | 0.35015239E-02 | 0.33964088E+02 |   44.185
 BASOPT|        3     |       1     | 0.20690578E-01 | 0.25240651E+03 | 1738.190
 BASOPT|        4     |       1     | 0.20673785E-02 | 0.26643642E+02 |   23.652
 BASOPT|        5     |       1     | 0.68490061E-02 | 0.17722789E+03 |  211.144
 BASOPT| -----------------------------------------------------------------------
 BASOPT| Total residuum value: -.45405312E+03

 BASOPT| Information at iteration number:    4900
 BASOPT| Training set | Combination | Rho difference | Condition num. | Time
 BASOPT| -----------------------------------------------------------------------
 BASOPT|        1     |       1     | 0.43547718E-02 | 0.31030407E+02 |   37.457
 BASOPT|        2     |       1     | 0.35029204E-02 | 0.34055152E+02 |   44.987
 BASOPT|        3     |       1     | 0.20686785E-01 | 0.25198334E+03 | 1773.829
 BASOPT|        4     |       1     | 0.20691346E-02 | 0.26678377E+02 |   24.068
 BASOPT|        5     |       1     | 0.68499569E-02 | 0.17791582E+03 |  215.402
 BASOPT| -----------------------------------------------------------------------
 BASOPT| Total residuum value: -.45405324E+03

 BASOPT| Information at iteration number:    5000
 BASOPT| Training set | Combination | Rho difference | Condition num. | Time
 BASOPT| -----------------------------------------------------------------------
 BASOPT|        1     |       1     | 0.43561052E-02 | 0.31283350E+02 |   38.158
 BASOPT|        2     |       1     | 0.35030298E-02 | 0.34204316E+02 |   45.790
 BASOPT|        3     |       1     | 0.20684038E-01 | 0.24992188E+03 | 1809.712
 BASOPT|        4     |       1     | 0.20656393E-02 | 0.26741720E+02 |   24.479
 BASOPT|        5     |       1     | 0.68447401E-02 | 0.17838944E+03 |  219.659
 BASOPT| -----------------------------------------------------------------------
 BASOPT| Total residuum value: -.45405347E+03

 BASOPT| Information at iteration number:    5100
 BASOPT| Training set | Combination | Rho difference | Condition num. | Time
 BASOPT| -----------------------------------------------------------------------
 BASOPT|        1     |       1     | 0.43513776E-02 | 0.31468915E+02 |   38.859
 BASOPT|        2     |       1     | 0.35006961E-02 | 0.34314631E+02 |   46.594
 BASOPT|        3     |       1     | 0.20694612E-01 | 0.24720395E+03 | 1844.561
 BASOPT|        4     |       1     | 0.20657512E-02 | 0.26827969E+02 |   24.889
 BASOPT|        5     |       1     | 0.68450490E-02 | 0.17818588E+03 |  223.921
 BASOPT| -----------------------------------------------------------------------
 BASOPT| Total residuum value: -.45405368E+03

 BASOPT| Information at iteration number:    5200
 BASOPT| Training set | Combination | Rho difference | Condition num. | Time
 BASOPT| -----------------------------------------------------------------------
 BASOPT|        1     |       1     | 0.43473785E-02 | 0.31463461E+02 |   39.559
 BASOPT|        2     |       1     | 0.34993327E-02 | 0.34301194E+02 |   47.402
 BASOPT|        3     |       1     | 0.20675514E-01 | 0.24819411E+03 | 1879.945
 BASOPT|        4     |       1     | 0.20632611E-02 | 0.26858156E+02 |   25.298
 BASOPT|        5     |       1     | 0.68406935E-02 | 0.17821830E+03 |  228.196
 BASOPT| -----------------------------------------------------------------------
 BASOPT| Total residuum value: -.45405376E+03

 BASOPT| Information at iteration number:    5300
 BASOPT| Training set | Combination | Rho difference | Condition num. | Time
 BASOPT| -----------------------------------------------------------------------
 BASOPT|        1     |       1     | 0.43476724E-02 | 0.31459043E+02 |   40.260
 BASOPT|        2     |       1     | 0.34995814E-02 | 0.34260105E+02 |   48.210
 BASOPT|        3     |       1     | 0.20666849E-01 | 0.24933130E+03 | 1914.589
 BASOPT|        4     |       1     | 0.20635236E-02 | 0.26940131E+02 |   25.707
 BASOPT|        5     |       1     | 0.68411871E-02 | 0.17789321E+03 |  232.464
 BASOPT| -----------------------------------------------------------------------
 BASOPT| Total residuum value: -.45405398E+03

 BASOPT| Information at iteration number:    5400
 BASOPT| Training set | Combination | Rho difference | Condition num. | Time
 BASOPT| -----------------------------------------------------------------------
 BASOPT|        1     |       1     | 0.43441352E-02 | 0.31673546E+02 |   40.962
 BASOPT|        2     |       1     | 0.34977372E-02 | 0.34351776E+02 |   49.018
 BASOPT|        3     |       1     | 0.20664718E-01 | 0.24913902E+03 | 1949.646
 BASOPT|        4     |       1     | 0.20574146E-02 | 0.27082280E+02 |   26.117
 BASOPT|        5     |       1     | 0.68308416E-02 | 0.17841422E+03 |  236.734
 BASOPT| -----------------------------------------------------------------------
 BASOPT| Total residuum value: -.45405423E+03

 BASOPT| Information at iteration number:    5500
 BASOPT| Training set | Combination | Rho difference | Condition num. | Time
 BASOPT| -----------------------------------------------------------------------
 BASOPT|        1     |       1     | 0.43352730E-02 | 0.31743893E+02 |   41.664
 BASOPT|        2     |       1     | 0.34938234E-02 | 0.34381802E+02 |   49.822
 BASOPT|        3     |       1     | 0.20665057E-01 | 0.24900800E+03 | 1985.381
 BASOPT|        4     |       1     | 0.20556573E-02 | 0.27132708E+02 |   26.532
 BASOPT|        5     |       1     | 0.68226117E-02 | 0.17871534E+03 |  241.007
 BASOPT| -----------------------------------------------------------------------
 BASOPT| Total residuum value: -.45405430E+03

 BASOPT| Information at iteration number:    5600
 BASOPT| Training set | Combination | Rho difference | Condition num. | Time
 BASOPT| -----------------------------------------------------------------------
 BASOPT|        1     |       1     | 0.43383912E-02 | 0.31705210E+02 |   42.364
 BASOPT|        2     |       1     | 0.34950153E-02 | 0.34355702E+02 |   50.626
 BASOPT|        3     |       1     | 0.20665986E-01 | 0.24923978E+03 | 2020.330
 BASOPT|        4     |       1     | 0.20567760E-02 | 0.27155634E+02 |   26.947
 BASOPT|        5     |       1     | 0.68257632E-02 | 0.17872233E+03 |  245.277
 BASOPT| -----------------------------------------------------------------------
 BASOPT| Total residuum value: -.45405438E+03

 BASOPT| Information at iteration number:    5700
 BASOPT| Training set | Combination | Rho difference | Condition num. | Time
 BASOPT| -----------------------------------------------------------------------
 BASOPT|        1     |       1     | 0.43286122E-02 | 0.31719035E+02 |   43.063
 BASOPT|        2     |       1     | 0.34900958E-02 | 0.34349810E+02 |   51.428
 BASOPT|        3     |       1     | 0.20688726E-01 | 0.25008069E+03 | 2055.228
 BASOPT|        4     |       1     | 0.20477695E-02 | 0.27190951E+02 |   27.360
 BASOPT|        5     |       1     | 0.68054542E-02 | 0.17911908E+03 |  249.543
 BASOPT| -----------------------------------------------------------------------
 BASOPT| Total residuum value: -.45405456E+03

 BASOPT| Information at iteration number:    5800
 BASOPT| Training set | Combination | Rho difference | Condition num. | Time
 BASOPT| -----------------------------------------------------------------------
 BASOPT|        1     |       1     | 0.43279047E-02 | 0.31592972E+02 |   43.764
 BASOPT|        2     |       1     | 0.34903657E-02 | 0.34276378E+02 |   52.226
 BASOPT|        3     |       1     | 0.20687988E-01 | 0.25069176E+03 | 2090.043
 BASOPT|        4     |       1     | 0.20509379E-02 | 0.27192799E+02 |   27.776
 BASOPT|        5     |       1     | 0.68098238E-02 | 0.17854283E+03 |  253.807
 BASOPT| -----------------------------------------------------------------------
 BASOPT| Total residuum value: -.45405461E+03

 BASOPT| Information at iteration number:    5900
 BASOPT| Training set | Combination | Rho difference | Condition num. | Time
 BASOPT| -----------------------------------------------------------------------
 BASOPT|        1     |       1     | 0.43314940E-02 | 0.31515480E+02 |   44.465
 BASOPT|        2     |       1     | 0.34920919E-02 | 0.34231044E+02 |   53.014
 BASOPT|        3     |       1     | 0.20688132E-01 | 0.25141272E+03 | 2125.114
 BASOPT|        4     |       1     | 0.20527671E-02 | 0.27218415E+02 |   28.191
 BASOPT|        5     |       1     | 0.68138061E-02 | 0.17846390E+03 |  258.076
 BASOPT| -----------------------------------------------------------------------
 BASOPT| Total residuum value: -.45405468E+03

 BASOPT| Information at iteration number:    6000
 BASOPT| Training set | Combination | Rho difference | Condition num. | Time
 BASOPT| -----------------------------------------------------------------------
 BASOPT|        1     |       1     | 0.43293544E-02 | 0.31514681E+02 |   45.165
 BASOPT|        2     |       1     | 0.34911452E-02 | 0.34227959E+02 |   53.804
 BASOPT|        3     |       1     | 0.20683465E-01 | 0.25168350E+03 | 2160.687
 BASOPT|        4     |       1     | 0.20527745E-02 | 0.27231260E+02 |   28.606
 BASOPT|        5     |       1     | 0.68139799E-02 | 0.17853221E+03 |  262.340
 BASOPT| -----------------------------------------------------------------------
 BASOPT| Total residuum value: -.45405471E+03

 BASOPT| Information at iteration number:    6100
 BASOPT| Training set | Combination | Rho difference | Condition num. | Time
 BASOPT| -----------------------------------------------------------------------
 BASOPT|        1     |       1     | 0.43311305E-02 | 0.31578377E+02 |   45.866
 BASOPT|        2     |       1     | 0.34918521E-02 | 0.34260634E+02 |   54.593
 BASOPT|        3     |       1     | 0.20689223E-01 | 0.25157828E+03 | 2195.842
 BASOPT|        4     |       1     | 0.20530787E-02 | 0.27243853E+02 |   29.021
 BASOPT|        5     |       1     | 0.68113472E-02 | 0.17899062E+03 |  266.603
 BASOPT| -----------------------------------------------------------------------
 BASOPT| Total residuum value: -.45405473E+03

 BASOPT| Information at iteration number:    6200
 BASOPT| Training set | Combination | Rho difference | Condition num. | Time
 BASOPT| -----------------------------------------------------------------------
 BASOPT|        1     |       1     | 0.43363317E-02 | 0.31515599E+02 |   46.572
 BASOPT|        2     |       1     | 0.34937841E-02 | 0.34220416E+02 |   55.381
 BASOPT|        3     |       1     | 0.20688670E-01 | 0.25182499E+03 | 2231.572
 BASOPT|        4     |       1     | 0.20543859E-02 | 0.27243909E+02 |   29.436
 BASOPT|        5     |       1     | 0.68159052E-02 | 0.17896339E+03 |  270.868
 BASOPT| -----------------------------------------------------------------------
 BASOPT| Total residuum value: -.45405477E+03

 BASOPT| Information at iteration number:    6300
 BASOPT| Training set | Combination | Rho difference | Condition num. | Time
 BASOPT| -----------------------------------------------------------------------
 BASOPT|        1     |       1     | 0.43271939E-02 | 0.31135731E+02 |   47.276
 BASOPT|        2     |       1     | 0.34899109E-02 | 0.33988657E+02 |   56.167
 BASOPT|        3     |       1     | 0.20683381E-01 | 0.25299789E+03 | 2267.631
 BASOPT|        4     |       1     | 0.20499729E-02 | 0.27233064E+02 |   29.851
 BASOPT|        5     |       1     | 0.68108718E-02 | 0.17696610E+03 |  275.133
 BASOPT| -----------------------------------------------------------------------
 BASOPT| Total residuum value: -.45405486E+03

 BASOPT| Information at iteration number:    6400
 BASOPT| Training set | Combination | Rho difference | Condition num. | Time
 BASOPT| -----------------------------------------------------------------------
 BASOPT|        1     |       1     | 0.43266055E-02 | 0.31221164E+02 |   47.978
 BASOPT|        2     |       1     | 0.34894901E-02 | 0.34037321E+02 |   56.951
 BASOPT|        3     |       1     | 0.20686373E-01 | 0.25307349E+03 | 2303.218
 BASOPT|        4     |       1     | 0.20484230E-02 | 0.27245422E+02 |   30.267
 BASOPT|        5     |       1     | 0.68042470E-02 | 0.17768394E+03 |  279.402
 BASOPT| -----------------------------------------------------------------------
 BASOPT| Total residuum value: -.45405490E+03

 BASOPT| Information at iteration number:    6500
 BASOPT| Training set | Combination | Rho difference | Condition num. | Time
 BASOPT| -----------------------------------------------------------------------
 BASOPT|        1     |       1     | 0.43223789E-02 | 0.31097752E+02 |   48.682
 BASOPT|        2     |       1     | 0.34878549E-02 | 0.33964370E+02 |   57.737
 BASOPT|        3     |       1     | 0.20692364E-01 | 0.25274709E+03 | 2339.451
 BASOPT|        4     |       1     | 0.20514084E-02 | 0.27257090E+02 |   30.678
 BASOPT|        5     |       1     | 0.68079929E-02 | 0.17698654E+03 |  283.669
 BASOPT| -----------------------------------------------------------------------
 BASOPT| Total residuum value: -.45405495E+03

 BASOPT| Information at iteration number:    6600
 BASOPT| Training set | Combination | Rho difference | Condition num. | Time
 BASOPT| -----------------------------------------------------------------------
 BASOPT|        1     |       1     | 0.43260068E-02 | 0.31182936E+02 |   49.383
 BASOPT|        2     |       1     | 0.34892903E-02 | 0.34014257E+02 |   58.526
 BASOPT|        3     |       1     | 0.20693778E-01 | 0.25281859E+03 | 2374.566
 BASOPT|        4     |       1     | 0.20522765E-02 | 0.27266088E+02 |   31.090
 BASOPT|        5     |       1     | 0.68068295E-02 | 0.17769182E+03 |  287.939
 BASOPT| -----------------------------------------------------------------------
 BASOPT| Total residuum value: -.45405499E+03

 BASOPT| Information at iteration number:    6700
 BASOPT| Training set | Combination | Rho difference | Condition num. | Time
 BASOPT| -----------------------------------------------------------------------
 BASOPT|        1     |       1     | 0.43241360E-02 | 0.31017286E+02 |   50.086
 BASOPT|        2     |       1     | 0.34886351E-02 | 0.33915114E+02 |   59.331
 BASOPT|        3     |       1     | 0.20694184E-01 | 0.25359330E+03 | 2409.270
 BASOPT|        4     |       1     | 0.20517002E-02 | 0.27274208E+02 |   31.501
 BASOPT|        5     |       1     | 0.68079448E-02 | 0.17682554E+03 |  292.206
 BASOPT| -----------------------------------------------------------------------
 BASOPT| Total residuum value: -.45405509E+03

 BASOPT| Information at iteration number:    6800
 BASOPT| Training set | Combination | Rho difference | Condition num. | Time
 BASOPT| -----------------------------------------------------------------------
 BASOPT|        1     |       1     | 0.43262730E-02 | 0.31129628E+02 |   50.791
 BASOPT|        2     |       1     | 0.34895143E-02 | 0.33979198E+02 |   60.139
 BASOPT|        3     |       1     | 0.20691239E-01 | 0.25372172E+03 | 2443.891
 BASOPT|        4     |       1     | 0.20535956E-02 | 0.27300883E+02 |   31.912
 BASOPT|        5     |       1     | 0.68089158E-02 | 0.17762078E+03 |  296.473
 BASOPT| -----------------------------------------------------------------------
 BASOPT| Total residuum value: -.45405512E+03

 BASOPT| Information at iteration number:    6900
 BASOPT| Training set | Combination | Rho difference | Condition num. | Time
 BASOPT| -----------------------------------------------------------------------
 BASOPT|        1     |       1     | 0.43330415E-02 | 0.31111418E+02 |   51.490
 BASOPT|        2     |       1     | 0.34929179E-02 | 0.33939048E+02 |   60.944
 BASOPT|        3     |       1     | 0.20676714E-01 | 0.25478044E+03 | 2480.093
 BASOPT|        4     |       1     | 0.20578681E-02 | 0.27441121E+02 |   32.321
 BASOPT|        5     |       1     | 0.68210960E-02 | 0.17723786E+03 |  300.735
 BASOPT| -----------------------------------------------------------------------
 BASOPT| Total residuum value: -.45405526E+03

 BASOPT| Information at iteration number:    7000
 BASOPT| Training set | Combination | Rho difference | Condition num. | Time
 BASOPT| -----------------------------------------------------------------------
 BASOPT|        1     |       1     | 0.43329943E-02 | 0.31151736E+02 |   52.193
 BASOPT|        2     |       1     | 0.34926176E-02 | 0.33954639E+02 |   61.750
 BASOPT|        3     |       1     | 0.20686934E-01 | 0.25457264E+03 | 2516.043
 BASOPT|        4     |       1     | 0.20580393E-02 | 0.27487606E+02 |   32.731
 BASOPT|        5     |       1     | 0.68197441E-02 | 0.17747516E+03 |  305.003
 BASOPT| -----------------------------------------------------------------------
 BASOPT| Total residuum value: -.45405536E+03

 BASOPT| Information at iteration number:    7100
 BASOPT| Training set | Combination | Rho difference | Condition num. | Time
 BASOPT| -----------------------------------------------------------------------
 BASOPT|        1     |       1     | 0.43359921E-02 | 0.31071489E+02 |   52.897
 BASOPT|        2     |       1     | 0.34940864E-02 | 0.33907653E+02 |   62.557
 BASOPT|        3     |       1     | 0.20682915E-01 | 0.25502510E+03 | 2551.817
 BASOPT|        4     |       1     | 0.20590720E-02 | 0.27492795E+02 |   33.140
 BASOPT|        5     |       1     | 0.68247659E-02 | 0.17706366E+03 |  309.273
 BASOPT| -----------------------------------------------------------------------
 BASOPT| Total residuum value: -.45405540E+03

 BASOPT| Information at iteration number:    7200
 BASOPT| Training set | Combination | Rho difference | Condition num. | Time
 BASOPT| -----------------------------------------------------------------------
 BASOPT|        1     |       1     | 0.43337002E-02 | 0.31078067E+02 |   53.600
 BASOPT|        2     |       1     | 0.34928427E-02 | 0.33902816E+02 |   63.364
 BASOPT|        3     |       1     | 0.20689404E-01 | 0.25512652E+03 | 2586.632
 BASOPT|        4     |       1     | 0.20558346E-02 | 0.27512945E+02 |   33.552
 BASOPT|        5     |       1     | 0.68183824E-02 | 0.17703208E+03 |  313.544
 BASOPT| -----------------------------------------------------------------------
 BASOPT| Total residuum value: -.45405545E+03

 BASOPT| Information at iteration number:    7300
 BASOPT| Training set | Combination | Rho difference | Condition num. | Time
 BASOPT| -----------------------------------------------------------------------
 BASOPT|        1     |       1     | 0.43324133E-02 | 0.31092039E+02 |   54.299
 BASOPT|        2     |       1     | 0.34922852E-02 | 0.33908416E+02 |   64.171
 BASOPT|        3     |       1     | 0.20693817E-01 | 0.25506274E+03 | 2621.717
 BASOPT|        4     |       1     | 0.20553188E-02 | 0.27526877E+02 |   33.962
 BASOPT|        5     |       1     | 0.68158767E-02 | 0.17710479E+03 |  317.808
 BASOPT| -----------------------------------------------------------------------
 BASOPT| Total residuum value: -.45405546E+03

 BASOPT| Information at iteration number:    7400
 BASOPT| Training set | Combination | Rho difference | Condition num. | Time
 BASOPT| -----------------------------------------------------------------------
 BASOPT|        1     |       1     | 0.43361981E-02 | 0.31114870E+02 |   55.000
 BASOPT|        2     |       1     | 0.34937737E-02 | 0.33921047E+02 |   64.980
 BASOPT|        3     |       1     | 0.20687905E-01 | 0.25516472E+03 | 2657.267
 BASOPT|        4     |       1     | 0.20562540E-02 | 0.27540828E+02 |   34.371
 BASOPT|        5     |       1     | 0.68188831E-02 | 0.17740994E+03 |  322.067
 BASOPT| -----------------------------------------------------------------------
 BASOPT| Total residuum value: -.45405547E+03

 BASOPT| Information at iteration number:    7500
 BASOPT| Training set | Combination | Rho difference | Condition num. | Time
 BASOPT| -----------------------------------------------------------------------
 BASOPT|        1     |       1     | 0.43350660E-02 | 0.31027111E+02 |   55.702
 BASOPT|        2     |       1     | 0.34933554E-02 | 0.33867721E+02 |   65.785
 BASOPT|        3     |       1     | 0.20683210E-01 | 0.25538601E+03 | 2691.979
 BASOPT|        4     |       1     | 0.20557953E-02 | 0.27563661E+02 |   34.780
 BASOPT|        5     |       1     | 0.68190032E-02 | 0.17704850E+03 |  326.329
 BASOPT| -----------------------------------------------------------------------
 BASOPT| Total residuum value: -.45405550E+03

 BASOPT| Information at iteration number:    7600
 BASOPT| Training set | Combination | Rho difference | Condition num. | Time
 BASOPT| -----------------------------------------------------------------------
 BASOPT|        1     |       1     | 0.43364035E-02 | 0.31056210E+02 |   56.379
 BASOPT|        2     |       1     | 0.34939185E-02 | 0.33877389E+02 |   66.591
 BASOPT|        3     |       1     | 0.20689129E-01 | 0.25559798E+03 | 2727.082
 BASOPT|        4     |       1     | 0.20567861E-02 | 0.27602745E+02 |   35.193
 BASOPT|        5     |       1     | 0.68193939E-02 | 0.17729986E+03 |  330.589
 BASOPT| -----------------------------------------------------------------------
 BASOPT| Total residuum value: -.45405553E+03

 BASOPT| Information at iteration number:    7700
 BASOPT| Training set | Combination | Rho difference | Condition num. | Time
 BASOPT| -----------------------------------------------------------------------
 BASOPT|        1     |       1     | 0.43348267E-02 | 0.31041766E+02 |   57.057
 BASOPT|        2     |       1     | 0.34929144E-02 | 0.33862764E+02 |   67.402
 BASOPT|        3     |       1     | 0.20687642E-01 | 0.25601090E+03 | 2763.310
 BASOPT|        4     |       1     | 0.20532723E-02 | 0.27626091E+02 |   35.607
 BASOPT|        5     |       1     | 0.68139820E-02 | 0.17721268E+03 |  334.851
 BASOPT| -----------------------------------------------------------------------
 BASOPT| Total residuum value: -.45405556E+03

 BASOPT| Information at iteration number:    7800
 BASOPT| Training set | Combination | Rho difference | Condition num. | Time
 BASOPT| -----------------------------------------------------------------------
 BASOPT|        1     |       1     | 0.43357469E-02 | 0.30957907E+02 |   57.736
 BASOPT|        2     |       1     | 0.34936580E-02 | 0.33810855E+02 |   68.208
 BASOPT|        3     |       1     | 0.20689251E-01 | 0.25597859E+03 | 2798.166
 BASOPT|        4     |       1     | 0.20568207E-02 | 0.27638382E+02 |   36.021
 BASOPT|        5     |       1     | 0.68206601E-02 | 0.17661881E+03 |  339.115
 BASOPT| -----------------------------------------------------------------------
 BASOPT| Total residuum value: -.45405559E+03

 BASOPT| Information at iteration number:    7900
 BASOPT| Training set | Combination | Rho difference | Condition num. | Time
 BASOPT| -----------------------------------------------------------------------
 BASOPT|        1     |       1     | 0.43333564E-02 | 0.31014990E+02 |   58.432
 BASOPT|        2     |       1     | 0.34925018E-02 | 0.33838756E+02 |   69.012
 BASOPT|        3     |       1     | 0.20690378E-01 | 0.25648287E+03 | 2833.509
 BASOPT|        4     |       1     | 0.20543205E-02 | 0.27661384E+02 |   36.435
 BASOPT|        5     |       1     | 0.68153261E-02 | 0.17687457E+03 |  343.376
 BASOPT| -----------------------------------------------------------------------
 BASOPT| Total residuum value: -.45405562E+03

 BASOPT| Information at iteration number:    8000
 BASOPT| Training set | Combination | Rho difference | Condition num. | Time
 BASOPT| -----------------------------------------------------------------------
 BASOPT|        1     |       1     | 0.43324023E-02 | 0.31003242E+02 |   59.133
 BASOPT|        2     |       1     | 0.34921592E-02 | 0.33832924E+02 |   69.818
 BASOPT|        3     |       1     | 0.20687789E-01 | 0.25648499E+03 | 2868.789
 BASOPT|        4     |       1     | 0.20547006E-02 | 0.27670774E+02 |   36.848
 BASOPT|        5     |       1     | 0.68159831E-02 | 0.17679730E+03 |  347.632
 BASOPT| -----------------------------------------------------------------------
 BASOPT| Total residuum value: -.45405564E+03

 BASOPT| Information at iteration number:    8100
 BASOPT| Training set | Combination | Rho difference | Condition num. | Time
 BASOPT| -----------------------------------------------------------------------
 BASOPT|        1     |       1     | 0.43312167E-02 | 0.31028503E+02 |   59.831
 BASOPT|        2     |       1     | 0.34916367E-02 | 0.33848632E+02 |   70.623
 BASOPT|        3     |       1     | 0.20688477E-01 | 0.25660652E+03 | 2903.957
 BASOPT|        4     |       1     | 0.20521340E-02 | 0.27678543E+02 |   37.262
 BASOPT|        5     |       1     | 0.68104831E-02 | 0.17697817E+03 |  351.892
 BASOPT| -----------------------------------------------------------------------
 BASOPT| Total residuum value: -.45405565E+03

 BASOPT| Information at iteration number:    8200
 BASOPT| Training set | Combination | Rho difference | Condition num. | Time
 BASOPT| -----------------------------------------------------------------------
 BASOPT|        1     |       1     | 0.43319477E-02 | 0.31015534E+02 |   60.531
 BASOPT|        2     |       1     | 0.34920280E-02 | 0.33845548E+02 |   71.428
 BASOPT|        3     |       1     | 0.20683590E-01 | 0.25643892E+03 | 2939.868
 BASOPT|        4     |       1     | 0.20549721E-02 | 0.27695866E+02 |   37.671
 BASOPT|        5     |       1     | 0.68153576E-02 | 0.17708836E+03 |  356.151
 BASOPT| -----------------------------------------------------------------------
 BASOPT| Total residuum value: -.45405568E+03

 BASOPT| Information at iteration number:    8300
 BASOPT| Training set | Combination | Rho difference | Condition num. | Time
 BASOPT| -----------------------------------------------------------------------
 BASOPT|        1     |       1     | 0.43319044E-02 | 0.30924590E+02 |   61.230
 BASOPT|        2     |       1     | 0.34921857E-02 | 0.33798187E+02 |   72.223
 BASOPT|        3     |       1     | 0.20680255E-01 | 0.25655381E+03 | 2975.976
 BASOPT|        4     |       1     | 0.20552883E-02 | 0.27700875E+02 |   38.081
 BASOPT|        5     |       1     | 0.68177923E-02 | 0.17661942E+03 |  360.409
 BASOPT| -----------------------------------------------------------------------
 BASOPT| Total residuum value: -.45405569E+03

 BASOPT| Information at iteration number:    8400
 BASOPT| Training set | Combination | Rho difference | Condition num. | Time
 BASOPT| -----------------------------------------------------------------------
 BASOPT|        1     |       1     | 0.43337011E-02 | 0.30905411E+02 |   61.929
 BASOPT|        2     |       1     | 0.34928378E-02 | 0.33790424E+02 |   73.011
 BASOPT|        3     |       1     | 0.20684461E-01 | 0.25613488E+03 | 3011.409
 BASOPT|        4     |       1     | 0.20555607E-02 | 0.27713454E+02 |   38.490
 BASOPT|        5     |       1     | 0.68190547E-02 | 0.17662616E+03 |  364.664
 BASOPT| -----------------------------------------------------------------------
 BASOPT| Total residuum value: -.45405572E+03

 BASOPT| Information at iteration number:    8500
 BASOPT| Training set | Combination | Rho difference | Condition num. | Time
 BASOPT| -----------------------------------------------------------------------
 BASOPT|        1     |       1     | 0.43349772E-02 | 0.30904454E+02 |   62.627
 BASOPT|        2     |       1     | 0.34931863E-02 | 0.33791801E+02 |   73.793
 BASOPT|        3     |       1     | 0.20696095E-01 | 0.25561161E+03 | 3046.945
 BASOPT|        4     |       1     | 0.20547655E-02 | 0.27749735E+02 |   38.901
 BASOPT|        5     |       1     | 0.68163139E-02 | 0.17682835E+03 |  368.929
 BASOPT| -----------------------------------------------------------------------
 BASOPT| Total residuum value: -.45405574E+03

 BASOPT| Information at iteration number:    8600
 BASOPT| Training set | Combination | Rho difference | Condition num. | Time
 BASOPT| -----------------------------------------------------------------------
 BASOPT|        1     |       1     | 0.43379154E-02 | 0.30866372E+02 |   63.327
 BASOPT|        2     |       1     | 0.34946902E-02 | 0.33772128E+02 |   74.579
 BASOPT|        3     |       1     | 0.20679960E-01 | 0.25576271E+03 | 3082.012
 BASOPT|        4     |       1     | 0.20573930E-02 | 0.27785665E+02 |   39.314
 BASOPT|        5     |       1     | 0.68238030E-02 | 0.17677820E+03 |  373.187
 BASOPT| -----------------------------------------------------------------------
 BASOPT| Total residuum value: -.45405577E+03

 BASOPT| Information at iteration number:    8700
 BASOPT| Training set | Combination | Rho difference | Condition num. | Time
 BASOPT| -----------------------------------------------------------------------
 BASOPT|        1     |       1     | 0.43379817E-02 | 0.30928947E+02 |   64.026
 BASOPT|        2     |       1     | 0.34944659E-02 | 0.33807354E+02 |   75.379
 BASOPT|        3     |       1     | 0.20674669E-01 | 0.25583794E+03 | 3116.852
 BASOPT|        4     |       1     | 0.20558054E-02 | 0.27826185E+02 |   39.723
 BASOPT|        5     |       1     | 0.68210004E-02 | 0.17726659E+03 |  377.447
 BASOPT| -----------------------------------------------------------------------
 BASOPT| Total residuum value: -.45405579E+03

 BASOPT| Information at iteration number:    8800
 BASOPT| Training set | Combination | Rho difference | Condition num. | Time
 BASOPT| -----------------------------------------------------------------------
 BASOPT|        1     |       1     | 0.43389144E-02 | 0.30851400E+02 |   64.719
 BASOPT|        2     |       1     | 0.34951764E-02 | 0.33766358E+02 |   76.184
 BASOPT|        3     |       1     | 0.20681938E-01 | 0.25563320E+03 | 3151.825
 BASOPT|        4     |       1     | 0.20579933E-02 | 0.27850508E+02 |   40.131
 BASOPT|        5     |       1     | 0.68251602E-02 | 0.17692700E+03 |  381.713
 BASOPT| -----------------------------------------------------------------------
 BASOPT| Total residuum value: -.45405581E+03

 BASOPT| Information at iteration number:    8900
 BASOPT| Training set | Combination | Rho difference | Condition num. | Time
 BASOPT| -----------------------------------------------------------------------
 BASOPT|        1     |       1     | 0.43377427E-02 | 0.30893097E+02 |   65.412
 BASOPT|        2     |       1     | 0.34949014E-02 | 0.33790573E+02 |   76.995
 BASOPT|        3     |       1     | 0.20686250E-01 | 0.25557258E+03 | 3187.625
 BASOPT|        4     |       1     | 0.20586259E-02 | 0.27877408E+02 |   40.542
 BASOPT|        5     |       1     | 0.68232875E-02 | 0.17723750E+03 |  385.977
 BASOPT| -----------------------------------------------------------------------
 BASOPT| Total residuum value: -.45405582E+03

 BASOPT| Information at iteration number:    9000
 BASOPT| Training set | Combination | Rho difference | Condition num. | Time
 BASOPT| -----------------------------------------------------------------------
 BASOPT|        1     |       1     | 0.43360270E-02 | 0.30859575E+02 |   66.110
 BASOPT|        2     |       1     | 0.34942027E-02 | 0.33775173E+02 |   77.809
 BASOPT|        3     |       1     | 0.20681772E-01 | 0.25615893E+03 | 3222.463
 BASOPT|        4     |       1     | 0.20577112E-02 | 0.27891578E+02 |   40.951
 BASOPT|        5     |       1     | 0.68224857E-02 | 0.17718904E+03 |  390.246
 BASOPT| -----------------------------------------------------------------------
 BASOPT| Total residuum value: -.45405584E+03

 BASOPT| Information at iteration number:    9100
 BASOPT| Training set | Combination | Rho difference | Condition num. | Time
 BASOPT| -----------------------------------------------------------------------
 BASOPT|        1     |       1     | 0.43346105E-02 | 0.30842524E+02 |   66.807
 BASOPT|        2     |       1     | 0.34934143E-02 | 0.33768454E+02 |   78.617
 BASOPT|        3     |       1     | 0.20683939E-01 | 0.25628678E+03 | 3256.646
 BASOPT|        4     |       1     | 0.20574038E-02 | 0.27914801E+02 |   41.363
 BASOPT|        5     |       1     | 0.68218677E-02 | 0.17724353E+03 |  394.514
 BASOPT| -----------------------------------------------------------------------
 BASOPT| Total residuum value: -.45405587E+03

 BASOPT| Information at iteration number:    9200
 BASOPT| Training set | Combination | Rho difference | Condition num. | Time
 BASOPT| -----------------------------------------------------------------------
 BASOPT|        1     |       1     | 0.43277955E-02 | 0.30859076E+02 |   67.506
 BASOPT|        2     |       1     | 0.34904569E-02 | 0.33774986E+02 |   79.424
 BASOPT|        3     |       1     | 0.20687861E-01 | 0.25659538E+03 | 3292.488
 BASOPT|        4     |       1     | 0.20531738E-02 | 0.27932413E+02 |   41.774
 BASOPT|        5     |       1     | 0.68120876E-02 | 0.17726893E+03 |  398.772
 BASOPT| -----------------------------------------------------------------------
 BASOPT| Total residuum value: -.45405588E+03

 BASOPT| Information at iteration number:    9300
 BASOPT| Training set | Combination | Rho difference | Condition num. | Time
 BASOPT| -----------------------------------------------------------------------
 BASOPT|        1     |       1     | 0.43342211E-02 | 0.30819963E+02 |   68.204
 BASOPT|        2     |       1     | 0.34934292E-02 | 0.33754431E+02 |   80.229
 BASOPT|        3     |       1     | 0.20682637E-01 | 0.25674081E+03 | 3327.243
 BASOPT|        4     |       1     | 0.20579902E-02 | 0.27954078E+02 |   42.183
 BASOPT|        5     |       1     | 0.68232235E-02 | 0.17718213E+03 |  403.034
 BASOPT| -----------------------------------------------------------------------
 BASOPT| Total residuum value: -.45405590E+03

 BASOPT| Information at iteration number:    9400
 BASOPT| Training set | Combination | Rho difference | Condition num. | Time
 BASOPT| -----------------------------------------------------------------------
 BASOPT|        1     |       1     | 0.43312765E-02 | 0.30839512E+02 |   68.903
 BASOPT|        2     |       1     | 0.34920287E-02 | 0.33768496E+02 |   81.036
 BASOPT|        3     |       1     | 0.20686514E-01 | 0.25640574E+03 | 3361.985
 BASOPT|        4     |       1     | 0.20557096E-02 | 0.27991687E+02 |   42.592
 BASOPT|        5     |       1     | 0.68180051E-02 | 0.17732063E+03 |  407.293
 BASOPT| -----------------------------------------------------------------------
 BASOPT| Total residuum value: -.45405592E+03

 BASOPT| Information at iteration number:    9500
 BASOPT| Training set | Combination | Rho difference | Condition num. | Time
 BASOPT| -----------------------------------------------------------------------
 BASOPT|        1     |       1     | 0.43295691E-02 | 0.30835604E+02 |   69.605
 BASOPT|        2     |       1     | 0.34913047E-02 | 0.33771167E+02 |   81.842
 BASOPT|        3     |       1     | 0.20682761E-01 | 0.25648000E+03 | 3396.977
 BASOPT|        4     |       1     | 0.20546198E-02 | 0.28007805E+02 |   43.001
 BASOPT|        5     |       1     | 0.68161556E-02 | 0.17742557E+03 |  411.557
 BASOPT| -----------------------------------------------------------------------
 BASOPT| Total residuum value: -.45405593E+03

 BASOPT| Information at iteration number:    9600
 BASOPT| Training set | Combination | Rho difference | Condition num. | Time
 BASOPT| -----------------------------------------------------------------------
 BASOPT|        1     |       1     | 0.43343196E-02 | 0.30855870E+02 |   70.307
 BASOPT|        2     |       1     | 0.34931803E-02 | 0.33788219E+02 |   82.653
 BASOPT|        3     |       1     | 0.20680340E-01 | 0.25632551E+03 | 3432.252
 BASOPT|        4     |       1     | 0.20550669E-02 | 0.28019367E+02 |   43.410
 BASOPT|        5     |       1     | 0.68174871E-02 | 0.17777889E+03 |  415.821
 BASOPT| -----------------------------------------------------------------------
 BASOPT| Total residuum value: -.45405594E+03

 BASOPT| Information at iteration number:    9700
 BASOPT| Training set | Combination | Rho difference | Condition num. | Time
[...]
 BASOPT|        5     |       1     | 0.68171539E-02 | 0.17775159E+03 |  496.773
 BASOPT| -----------------------------------------------------------------------
 BASOPT| Total residuum value: -.45405622E+03

 BASOPT| Information at iteration number:   11600
 BASOPT| Training set | Combination | Rho difference | Condition num. | Time
 BASOPT| -----------------------------------------------------------------------
 BASOPT|        1     |       1     | 0.43316009E-02 | 0.30363972E+02 |   84.353
 BASOPT|        2     |       1     | 0.34920109E-02 | 0.33566200E+02 |   98.651
 BASOPT|        3     |       1     | 0.20683387E-01 | 0.25682506E+03 | 4136.153
 BASOPT|        4     |       1     | 0.20582589E-02 | 0.28210312E+02 |   51.626
 BASOPT|        5     |       1     | 0.68213361E-02 | 0.17732487E+03 |  501.039
 BASOPT| -----------------------------------------------------------------------
 BASOPT| Total residuum value: -.45405625E+03

 BASOPT| Information at iteration number:   11700
 BASOPT| Training set | Combination | Rho difference | Condition num. | Time
 BASOPT| -----------------------------------------------------------------------
 BASOPT|        1     |       1     | 0.43306098E-02 | 0.30338099E+02 |   85.056
 BASOPT|        2     |       1     | 0.34914738E-02 | 0.33546615E+02 |   99.442
 BASOPT|        3     |       1     | 0.20685737E-01 | 0.25672479E+03 | 4170.955
 BASOPT|        4     |       1     | 0.20571078E-02 | 0.28217402E+02 |   52.034
 BASOPT|        5     |       1     | 0.68192170E-02 | 0.17711010E+03 |  505.300
 BASOPT| -----------------------------------------------------------------------
 BASOPT| Total residuum value: -.45405626E+03

 BASOPT| Information at iteration number:   11800
 BASOPT| Training set | Combination | Rho difference | Condition num. | Time
 BASOPT| -----------------------------------------------------------------------
 BASOPT|        1     |       1     | 0.43353190E-02 | 0.30344918E+02 |   85.757
 BASOPT|        2     |       1     | 0.34935570E-02 | 0.33547698E+02 |  100.236
 BASOPT|        3     |       1     | 0.20682626E-01 | 0.25664961E+03 | 4206.664
 BASOPT|        4     |       1     | 0.20594713E-02 | 0.28231485E+02 |   52.444
 BASOPT|        5     |       1     | 0.68244398E-02 | 0.17717551E+03 |  509.573
 BASOPT| -----------------------------------------------------------------------
 BASOPT| Total residuum value: -.45405626E+03

 BASOPT| Information at iteration number:   11900
 BASOPT| Training set | Combination | Rho difference | Condition num. | Time
 BASOPT| -----------------------------------------------------------------------
 BASOPT|        1     |       1     | 0.43338796E-02 | 0.30376301E+02 |   86.461
 BASOPT|        2     |       1     | 0.34927894E-02 | 0.33554658E+02 |  101.031
 BASOPT|        3     |       1     | 0.20678587E-01 | 0.25710258E+03 | 4242.441
 BASOPT|        4     |       1     | 0.20563178E-02 | 0.28272148E+02 |   52.853
 BASOPT|        5     |       1     | 0.68199059E-02 | 0.17724619E+03 |  513.835
 BASOPT| -----------------------------------------------------------------------
 BASOPT| Total residuum value: -.45405628E+03

 BASOPT| Information at iteration number:   12000
 BASOPT| Training set | Combination | Rho difference | Condition num. | Time
 BASOPT| -----------------------------------------------------------------------
 BASOPT|        1     |       1     | 0.43345743E-02 | 0.30379176E+02 |   87.162
 BASOPT|        2     |       1     | 0.34932241E-02 | 0.33550222E+02 |  101.824
 BASOPT|        3     |       1     | 0.20677188E-01 | 0.25717279E+03 | 4278.158
 BASOPT|        4     |       1     | 0.20578259E-02 | 0.28298296E+02 |   53.262
 BASOPT|        5     |       1     | 0.68218834E-02 | 0.17719019E+03 |  518.094
 BASOPT| -----------------------------------------------------------------------
 BASOPT| Total residuum value: -.45405629E+03


 -------------------------------------------------------------------------------
 -                                                                             -
 -                                DBCSR STATISTICS                             -
 -                                                                             -
 -------------------------------------------------------------------------------
 COUNTER                                    TOTAL       BLAS       SMM       ACC
 flops    68 x    68 x     4                36992       0.0%    100.0%      0.0%
 flops    80 x    68 x     4                43520       0.0%    100.0%      0.0%
 flops    80 x    80 x     4                51200       0.0%    100.0%      0.0%
 flops    68 x    68 x    13               120224       0.0%    100.0%      0.0%
 flops   116 x    80 x     7               129920       0.0%    100.0%      0.0%
 flops    68 x    80 x    13               141440       0.0%    100.0%      0.0%
 flops   116 x   116 x     7               188384       0.0%    100.0%      0.0%
 flops    80 x    80 x    15               192000       0.0%    100.0%      0.0%
 flops    80 x    80 x    16               204800       0.0%    100.0%      0.0%
 flops    68 x   116 x    13               205088       0.0%    100.0%      0.0%
 flops    80 x   116 x    13               241280       0.0%    100.0%      0.0%
 flops    52 x    80 x    15               249600       0.0%    100.0%      0.0%
 flops    80 x    52 x    15               249600       0.0%    100.0%      0.0%
 flops    52 x    80 x    16               266240       0.0%    100.0%      0.0%
 flops    80 x    52 x    16               266240       0.0%    100.0%      0.0%
 flops    80 x    68 x    13               282880       0.0%    100.0%      0.0%
 flops   116 x   116 x    13               349856       0.0%    100.0%      0.0%
 flops    80 x    80 x     7               358400       0.0%    100.0%      0.0%
 flops   116 x    80 x    13               482560       0.0%    100.0%      0.0%
 flops    52 x    52 x    15               811200       0.0%    100.0%      0.0%
 flops    52 x    52 x    16               865280       0.0%    100.0%      0.0%
 flops    80 x    80 x    13               998400       0.0%    100.0%      0.0%
 flops inhomo. stacks                           0       0.0%      0.0%      0.0%
 flops total                         6.735104E+06       0.0%    100.0%      0.0%
 flops max/rank                      2.821728E+06       0.0%    100.0%      0.0%
 matmuls inhomo. stacks                         0       0.0%      0.0%      0.0%
 matmuls total                                 54       0.0%    100.0%      0.0%
 number of processed stacks                    26       0.0%    100.0%      0.0%
 average stack size                                     0.0       2.1       0.0
 marketing flops                    10.888160E+06
 -------------------------------------------------------------------------------
 # multiplications                              1
 max memory usage/rank             557.580288E+06
 # max total images/rank                        2
 # max 3D layers                                1
 # MPI messages exchanged                       8
 MPI messages size (bytes):
  total size                        91.360000E+03
  min size                           0.000000E+00
  max size                          36.864000E+03
  average size                      11.420000E+03
 MPI breakdown and total messages size (bytes):
             size <=      128                   4                        0
       128 < size <=     8192                   0                        0
      8192 < size <=    32768                   2                    19936
     32768 < size <=   131072                   2                    71424
    131072 < size <=  4194304                   0                        0
   4194304 < size <= 16777216                   0                        0
  16777216 < size                               0                        0
 -------------------------------------------------------------------------------

 *** WARNING in dbcsr_mm.F:294 :: Using a non-square number of MPI ranks ***
 *** might lead to poor performance. Used ranks: 2 Suggested: 1 4        ***

 -------------------------------------------------------------------------------
 -                                                                             -
 -                      DBCSR MESSAGE PASSING PERFORMANCE                      -
 -                                                                             -
 -------------------------------------------------------------------------------
 ROUTINE             CALLS      AVE VOLUME [Bytes]
 MP_Bcast               23                     12.
 MP_Allreduce           70                     23.
 MP_Alltoall        722361                  17458.
 MP_ISend                6                   1531.
 MP_IRecv                8                    588.
 -------------------------------------------------------------------------------

 -------------------------------------------------------------------------------
 -                                                                             -
 -                                GRID STATISTICS                              -
 -                                                                             -
 -------------------------------------------------------------------------------
 LP    KERNEL    OPERATION                                     COUNT     PERCENT
 0     general   collocate                                        16       0.14%
 0     ortho     integrate                                       128       1.13%
 0     ortho     collocate                                       128       1.13%
 1     ortho     integrate                                       176       1.56%
 1     ortho     collocate                                       176       1.56%
 2     ortho     integrate                                      1760      15.58%
 2     ortho     collocate                                      1760      15.58%
 3     ortho     integrate                                      1592      14.10%
 3     ortho     collocate                                      1592      14.10%
 4     ortho     integrate                                      1248      11.05%
 4     ortho     collocate                                      1248      11.05%
 5     ortho     integrate                                       319       2.82%
 5     ortho     collocate                                       319       2.82%
 6     ortho     integrate                                       304       2.69%
 6     ortho     collocate                                       304       2.69%
 7     ortho     integrate                                        80       0.71%
 7     ortho     collocate                                        80       0.71%
 8     ortho     integrate                                        32       0.28%
 8     ortho     collocate                                        32       0.28%
 -------------------------------------------------------------------------------

 MEMORY| Estimated peak process memory [MiB]                                 910

 -------------------------------------------------------------------------------
 -                                                                             -
 -                         MESSAGE PASSING PERFORMANCE                         -
 -                                                                             -
 -------------------------------------------------------------------------------

 ROUTINE             CALLS      AVE VOLUME [Bytes]
 MP_Bcast            12081                   1485.
 MP_Allreduce        84398                     53.
 MP_Sync             12039
 MP_Alltoall            19               51069736.
 MP_ISendRecv            9                3051864.
 MP_Wait                 9
 MP_comm_split           1
 -------------------------------------------------------------------------------


 -------------------------------------------------------------------------------
 -                                                                             -
 -                           R E F E R E N C E S                               -
 -                                                                             -
 -------------------------------------------------------------------------------
 
 CP2K version 8.0 (Development Version), the CP2K developers group (2020).
 CP2K is freely available from https://www.cp2k.org/ .

 Kuehne,Thomas D.; Iannuzzi,Marcella; Del Ben,Mauro;
 Rybkin,Vladimir V.; Seewald,Patrick; Stein,Frederick; Laino,Teodoro;
 Khaliullin,Rustam Z.; Schuett,Ole; Schiffmann,Florian; Golze,Dorothea;
 Wilhelm,Jan; Chulkov,Sergey; Bani-Hashemian,Mohammad Hossein;
 Weber,Valery; Borstnik,Urban; Taillefumier,Mathieu;
 Jakobovits,Alice Shoshana; Lazzaro,Alfio; Pabst,Hans; Mueller,Tiziano;
 Schade,Robert; Guidon,Manuel; Andermatt,Samuel; Holmberg,Nico;
 Schenter,Gregory K.; Hehn,Anna; Bussy,Augustin; Belleflamme,Fabian;
 Tabacchi,Gloria; Gloess,Andreas; Lass,Michael; Bethune,Iain;
 Mundy,Christopher J.; Plessl,Christian; Watkins,Matt;
 VandeVondele,Joost; Krack,Matthias; Hutter,Juerg. 
 The Journal of Chemical Physics, 152 (19), (2020). 
 CP2K: An electronic structure and molecular dynamics software package -
 Quickstep: Efficient and accurate electronic structure calculations.
 https://doi.org/10.1063/5.0007045

 Schuett, Ole; Messmer, Peter; Hutter, Juerg; VandeVondele, Joost. 
 Electronic Structure Calculations on Graphics Processing Units, John
 Wiley & Sons, Ltd, 173-190 (2016). 
 GPU-Accelerated Sparse Matrix-Matrix Multiplication for
 Linear Scaling Density Functional Theory.
 https://doi.org/10.1002/9781118670712.ch8

 Borstnik, U; VandeVondele, J; Weber, V; Hutter, J. 
 PARALLEL COMPUTING, 40 (5-6), 47-58 (2014). 
 Sparse matrix multiplication: The distributed block-compressed sparse
 row library.
 https://doi.org/10.1016/j.parco.2014.03.012

 Hutter, J; Iannuzzi, M; Schiffmann, F; VandeVondele, J. 
 WIREs Comput Mol Sci., 4 (1), 15-25 (2014). 
 CP2K: atomistic simulations of condensed matter systems.
 https://doi.org/10.1002/wcms.1159

 Marek, A; Blum, V; Johanni, R; Havu, V; Lang, B; Auckenthaler, T;
 Heinecke, A; Bungartz, H; Lederer, H. 
 Journal of Physics: Condensed Matter, 26 (21), (2014). 
 The ELPA library: scalable parallel eigenvalue solutions for
 electronic structure
 theory and computational science.
 https://doi.org/10.1088/0953-8984/26/21/213201

 Guidon, M; Hutter, J; VandeVondele, J. 
 JOURNAL OF CHEMICAL THEORY AND COMPUTATION, 6 (8), 2348-2364 (2010). 
 Auxiliary Density Matrix Methods for Hartree-Fock Exchange Calculations.
 https://doi.org/10.1021/ct1002225

 VandeVondele, J; Hutter, J. 
 JOURNAL OF CHEMICAL PHYSICS, 127 (11), 114105 (2007). 
 Gaussian basis sets for accurate calculations on molecular systems in
 gas and condensed phases.
 https://doi.org/10.1063/1.2770708

 Krack, M. 
 THEORETICAL CHEMISTRY ACCOUNTS, 114 (1-3), 145-152 (2005). 
 Pseudopotentials for H to Kr optimized for gradient-corrected
 exchange-correlation functionals.
 https://doi.org/10.1007/s00214-005-0655-y

 VandeVondele, J; Krack, M; Mohamed, F; Parrinello, M; Chassaing, T;
 Hutter, J. COMPUTER PHYSICS COMMUNICATIONS, 167 (2), 103-128 (2005). 
 QUICKSTEP: Fast and accurate density functional calculations using a
 mixed Gaussian and plane waves approach.
 https://doi.org/10.1016/j.cpc.2004.12.014

 Frigo, M; Johnson, SG. 
 PROCEEDINGS OF THE IEEE, 93 (2), 216-231 (2005). 
 The design and implementation of FFTW3.
 https://doi.org/10.1109/JPROC.2004.840301

 Martyna, GJ; Tuckerman, ME. 
 JOURNAL OF CHEMICAL PHYSICS, 110 (6), 2810-2821 (1999). 
 A reciprocal space based method for treating long range interactions in
 ab initio and force-field-based calculations in clusters.
 https://doi.org/10.1063/1.477923

 Hartwigsen, C; Goedecker, S; Hutter, J. 
 PHYSICAL REVIEW B, 58 (7), 3641-3662 (1998). 
 Relativistic separable dual-space Gaussian pseudopotentials from H to Rn.
 https://doi.org/10.1103/PhysRevB.58.3641

 Lippert, G; Hutter, J; Parrinello, M. 
 MOLECULAR PHYSICS, 92 (3), 477-487 (1997). 
 A hybrid Gaussian and plane wave density functional scheme.
 https://doi.org/10.1080/002689797170220

 Perdew, JP; Burke, K; Ernzerhof, M. 
 PHYSICAL REVIEW LETTERS, 77 (18), 3865-3868 (1996). 
 Generalized gradient approximation made simple.
 https://doi.org/10.1103/PhysRevLett.77.3865

 Goedecker, S; Teter, M; Hutter, J. 
 PHYSICAL REVIEW B, 54 (3), 1703-1710 (1996). 
 Separable dual-space Gaussian pseudopotentials.
 https://doi.org/10.1103/PhysRevB.54.1703


 -------------------------------------------------------------------------------
 -                                                                             -
 -                                T I M I N G                                  -
 -                                                                             -
 -------------------------------------------------------------------------------
 SUBROUTINE                       CALLS  ASD         SELF TIME        TOTAL TIME
                                MAXIMUM       AVERAGE  MAXIMUM  AVERAGE  MAXIMUM
 CP2K                                 1  1.0    0.003    0.007 4311.849 4311.861
 run_optimize_basis                   1  2.0    0.001    0.002 4311.493 4311.852
 driver_para_opt_basis                1  3.0    0.000    0.000 4311.483 4311.841
 driver_optimization_para_low         1  4.0    0.317    0.716 4311.483 4311.841
 compute_residuum_vectors         12039  5.0    4.775   26.789 4305.799 4306.783
 mp_sum_dv                        60196  5.8 3113.849 4250.768 3113.849 4250.768
 cp_gemm                         252819  7.2    0.245    0.376 1101.232 4123.721
 cp_gemm_fm_gemm                 252819  8.2    0.159    0.266 1100.986 4123.345
 cp_fm_gemm                      252819  9.2 1100.827 4123.079 1100.827 4123.079
 admm_fit_mo_coeffs               12039  6.0    0.029    0.035  397.816 1446.674
 fit_mo_coeffs                    12039  7.0    0.109    0.124  259.219  945.438
 purify_mo_diag                   12039  7.0    0.199    0.300  138.567  501.202
 -------------------------------------------------------------------------------

 The number of warnings for this run is : 1
 
 -------------------------------------------------------------------------------
  **** **** ******  **  PROGRAM ENDED AT                 2020-12-18 16:05:21.351
 ***** ** ***  *** **   PROGRAM RAN ON                                   tcopt10
 **    ****   ******    PROGRAM RAN BY                                    hutter
 ***** **    ** ** **   PROGRAM PROCESS ID                                 11436
  **** **  *******  **  PROGRAM STOPPED IN /data/hutter/GITHUB/BASIS/MOLOPT/PBE0
                                           /Br
[1608303921.721579] [tcopt10:11440:0]          mpool.c:38   UCX  WARN  object 0x767e300 was not returned to mpool ucp_requests
[1608303921.721605] [tcopt10:11440:0]          mpool.c:38   UCX  WARN  object 0x767e4c0 was not returned to mpool ucp_requests
[1608303921.721613] [tcopt10:11440:0]          mpool.c:38   UCX  WARN  object 0x767e680 was not returned to mpool ucp_requests
[1608303921.721618] [tcopt10:11440:0]          mpool.c:38   UCX  WARN  object 0x767e840 was not returned to mpool ucp_requests
[1608303921.721913] [tcopt10:11438:0]          mpool.c:38   UCX  WARN  object 0x728a480 was not returned to mpool ucp_requests
[1608303921.721940] [tcopt10:11438:0]          mpool.c:38   UCX  WARN  object 0x728a640 was not returned to mpool ucp_requests
[1608303921.721946] [tcopt10:11438:0]          mpool.c:38   UCX  WARN  object 0x728a800 was not returned to mpool ucp_requests
[1608303921.739591] [tcopt10:11436:0]          mpool.c:38   UCX  WARN  object 0x8254700 was not returned to mpool ucp_requests
[1608303921.739613] [tcopt10:11436:0]          mpool.c:38   UCX  WARN  object 0x82548c0 was not returned to mpool ucp_requests
