 DBCSR| CPU Multiplication driver                                           XSMM
 DBCSR| Multrec recursion limit                                              512
 DBCSR| Multiplication stack size                                           1000
 DBCSR| Maximum elements for images                                    UNLIMITED
 DBCSR| Multiplicative factor virtual images                                   1
 DBCSR| Use multiplication densification                                       T
 DBCSR| Multiplication size stacks                                             3
 DBCSR| Use memory pool for CPU allocation                                     F
 DBCSR| Number of 3D layers                                               SINGLE
 DBCSR| Use MPI memory allocation                                              F
 DBCSR| Use RMA algorithm                                                      F
 DBCSR| Use Communication thread                                               T
 DBCSR| Communication thread load                                             87
 DBCSR| MPI: My node id                                                        0
 DBCSR| MPI: Number of nodes                                                  48
 DBCSR| OMP: Current number of threads                                         1
 DBCSR| OMP: Max number of threads                                             1
 DBCSR| Split modifier for TAS multiplication algorithm                  1.0E+00


  **** **** ******  **  PROGRAM STARTED AT               2022-05-13 22:31:42.111
 ***** ** ***  *** **   PROGRAM STARTED ON                               tcopt10
 **    ****   ******    PROGRAM STARTED BY                                hutter
 ***** **    ** ** **   PROGRAM PROCESS ID                                 42865
  **** **  *******  **  PROGRAM STARTED IN /data/hutter/GITHUB/BASIS/scMOLOPT/PB
                                           E/Ga

 CP2K| version string:                   CP2K version 10.0 (Development Version)
 CP2K| source code revision number:                                  git:13fcfd8
 CP2K| cp2kflags: omp libint fftw3 libxc elpa parallel mpi3 scalapack cosma xsmm
 CP2K|             spglib sirius libvori libbqb
 CP2K| is freely available from                            https://www.cp2k.org/
 CP2K| Program compiled at                      Tue 10 May 2022 02:27:21 PM CEST
 CP2K| Program compiled on                                               tcopt10
 CP2K| Program compiled for                                                local
 CP2K| Data directory path                   /data/hutter/GITHUB/TDLRI/cp2k/data
 CP2K| Input file name                                              GaCl-ref.inp

 GLOBAL| Force Environment number                                              1
 GLOBAL| Basis set file name                                        ../def2QZVPP
 GLOBAL| Potential file name                                        ../POTENTIAL
 GLOBAL| MM Potential file name                                     MM_POTENTIAL
 GLOBAL| Coordinate file name                                      __STD_INPUT__
 GLOBAL| Method name                                                        CP2K
 GLOBAL| Project name                                                    refGaCl
 GLOBAL| Run type                                                         ENERGY
 GLOBAL| FFT library                                                       FFTW3
 GLOBAL| Diagonalization library                                       ScaLAPACK
 GLOBAL| Orthonormality check for eigenvectors                          DISABLED
 GLOBAL| Matrix multiplication library                                     COSMA
 GLOBAL| All-to-all communication in single precision                          F
 GLOBAL| FFTs using library dependent lengths                                  F
 GLOBAL| Grid backend                                                       AUTO
 GLOBAL| Global print level                                                  LOW
 GLOBAL| MPI I/O enabled                                                       T
 GLOBAL| Total number of message passing processes                            48
 GLOBAL| Number of threads for this process                                    1
 GLOBAL| This output is from process                                           0
 GLOBAL| Stack size for threads created by OpenMP (OMP_STACKSIZE)        default
 GLOBAL| CPU model name                          AMD EPYC 7401 24-Core Processor
 GLOBAL| CPUID                                                              1002

 MEMORY| system memory details [Kb]
 MEMORY|                        rank 0           min           max       average
 MEMORY| MemTotal            263969136     263969136     263969136     263969136
 MEMORY| MemFree             237817860     237817860     237817860     237817860
 MEMORY| Buffers                   136           136           136           136
 MEMORY| Cached               18983516      18983512      18983516      18983512
 MEMORY| Slab                  1429016       1429016       1429016       1429016
 MEMORY| SReclaimable           872328        872328        872328        872328
 MEMORY| MemLikelyFree       257673840     257673836     257673840     257673836


 GENERATE|  Preliminary Number of Bonds generated:                             0
 GENERATE|  Achieved consistency in connectivity generation.

 *******************************************************************************
 *******************************************************************************
 **                                                                           **
 **     #####                         ##              ##                      **
 **    ##   ##            ##          ##              ##                      **
 **   ##     ##                       ##            ######                    **
 **   ##     ##  ##   ##  ##   #####  ##  ##   ####   ##    #####    #####    **
 **   ##     ##  ##   ##  ##  ##      ## ##   ##      ##   ##   ##  ##   ##   **
 **   ##  ## ##  ##   ##  ##  ##      ####     ###    ##   ######   ######    **
 **    ##  ###   ##   ##  ##  ##      ## ##      ##   ##   ##       ##        **
 **     #######   #####   ##   #####  ##  ##  ####    ##    #####   ##        **
 **           ##                                                    ##        **
 **                                                                           **
 **                                                ... make the atoms dance   **
 **                                                                           **
 **            Copyright (C) by CP2K developers group (2000-2022)             **
 **                      J. Chem. Phys. 152, 194103 (2020)                    **
 **                                                                           **
 *******************************************************************************


 TOTAL NUMBERS AND MAXIMUM NUMBERS

  Total number of            - Atomic kinds:                                   2
                             - Atoms:                                          2
                             - Shell sets:                                    49
                             - Shells:                                        49
                             - Primitive Cartesian functions:                 99
                             - Cartesian basis functions:                    197
                             - Spherical basis functions:                    159

  Maximum angular momentum of the orbital basis functions:                     4


 SCF PARAMETERS         Density guess:                                    ATOMIC
                        --------------------------------------------------------
                        max_scf:                                              20
                        max_scf_history:                                       0
                        max_diis:                                              4
                        --------------------------------------------------------
                        eps_scf:                                        5.00E-07
                        eps_scf_history:                                0.00E+00
                        eps_diis:                                       1.00E-01
                        eps_eigval:                                     1.00E-05
                        --------------------------------------------------------
                        level_shift [a.u.]:                             0.000000
                        --------------------------------------------------------
                        Outer loop SCF in use 
                        No variables optimised in outer loop
                        eps_scf                                         5.00E-07
                        max_scf                                               10
                        No outer loop optimization
                        step_size                                       5.00E-01

 Number of electrons:                                                         48
 Number of occupied orbitals:                                                 24
 Number of molecular orbitals:                                                24

 Number of orbital functions:                                                159
 Number of independent orbital functions:                                    159

 Extrapolation method: initial_guess


 SCF WAVEFUNCTION OPTIMIZATION

  ----------------------------------- OT ---------------------------------------
  Minimizer      : DIIS                : direct inversion
                                         in the iterative subspace
                                         using   7 DIIS vectors
                                         safer DIIS on
  Preconditioner : FULL_ALL            : diagonalization, state selective
  Precond_solver : DEFAULT
  stepsize       :    0.10000000                  energy_gap     :    0.08000000
  eps_taylor     :   0.10000E-15                  max_taylor     :             4
  ----------------------------------- OT ---------------------------------------

  Step     Update method      Time    Convergence         Total energy    Change
  ------------------------------------------------------------------------------
     1 OT DIIS     0.10E+00    2.0     0.45067668     -2299.8695081754 -2.30E+03
     2 OT DIIS     0.10E+00    2.2     0.23952756     -2360.0522567381 -6.02E+01
     3 OT DIIS     0.10E+00    2.2     0.08378619     -2379.6594341801 -1.96E+01
     4 OT DIIS     0.10E+00    2.2     0.04591649     -2381.1118631760 -1.45E+00
     5 OT DIIS     0.10E+00    2.1     0.03460543     -2382.3644517228 -1.25E+00
     6 OT DIIS     0.10E+00    2.1     0.01522553     -2383.7450381902 -1.38E+00
     7 OT DIIS     0.10E+00    2.2     0.02360292     -2383.9506666347 -2.06E-01
     8 OT DIIS     0.10E+00    2.2     0.01992382     -2384.0331779644 -8.25E-02
     9 OT DIIS     0.10E+00    2.1     0.00804732     -2384.2182289939 -1.85E-01
    10 OT DIIS     0.10E+00    2.2     0.00619846     -2384.2511889735 -3.30E-02
    11 OT DIIS     0.10E+00    2.1     0.00415727     -2384.3652700793 -1.14E-01
    12 OT DIIS     0.10E+00    2.2     0.00374545     -2384.3803043100 -1.50E-02
    13 OT DIIS     0.10E+00    2.1     0.00330980     -2384.4145018711 -3.42E-02
    14 OT DIIS     0.10E+00    2.2     0.00310384     -2384.4401693558 -2.57E-02
    15 OT DIIS     0.10E+00    2.1     0.00287523     -2384.4641361151 -2.40E-02
    16 OT DIIS     0.10E+00    2.1     0.00275297     -2384.4808595418 -1.67E-02
    17 OT DIIS     0.10E+00    2.1     0.00258582     -2384.5043866990 -2.35E-02
    18 OT DIIS     0.10E+00    2.1     0.00223407     -2384.5625348785 -5.81E-02
    19 OT DIIS     0.10E+00    2.1     0.00202885     -2384.5684952595 -5.96E-03
    20 OT DIIS     0.10E+00    2.2     0.00200936     -2384.5977400925 -2.92E-02

  Leaving inner SCF loop after reaching    20 steps.


  Electronic density on regular grids:        -25.1273288862       22.8726711138
  Core density on regular grids:               48.0000000000        0.0000000000
  Hard and soft densities (Lebedev):          -50.3533040600      -27.4806331899
  Total Rho_soft + Rho1_hard - Rho1_soft      -47.9999997563
  Total charge density (r-space):               0.0000002437
  Total Rho_soft + Rho0_soft (g-space):        -0.0000001585

  Overlap energy of the core charge distribution:               0.00000000475374
  Self energy of the core charge distribution:               -752.09364046751932
  Core Hamiltonian energy:                                  -1752.74353257202961
  Hartree energy:                                             104.14206933561248
  Exchange-correlation energy:                                -18.91630912855480

  GAPW| Exc from hard and soft atomic rho1:                   -83.83117159218503
  GAPW| local Eh = 1 center integrals:                        118.84484432738103

  Total energy:                                             -2384.59774009254170

  outer SCF iter =    1 RMS gradient =   0.20E-02 energy =      -2384.5977400925

  ----------------------------------- OT ---------------------------------------
  Minimizer      : DIIS                : direct inversion
                                         in the iterative subspace
                                         using   7 DIIS vectors
                                         safer DIIS on
  Preconditioner : FULL_ALL            : diagonalization, state selective
  Precond_solver : DEFAULT
  stepsize       :    0.10000000                  energy_gap     :    0.08000000
  eps_taylor     :   0.10000E-15                  max_taylor     :             4
  ----------------------------------- OT ---------------------------------------

  Step     Update method      Time    Convergence         Total energy    Change
  ------------------------------------------------------------------------------
     1 OT DIIS     0.10E+00    4.3     0.01934144     -2384.6141323113 -1.64E-02
     2 OT DIIS     0.10E+00    2.2     0.00692366     -2384.7002491819 -8.61E-02
     3 OT DIIS     0.10E+00    2.2     0.00330381     -2384.7126395869 -1.24E-02
     4 OT DIIS     0.10E+00    2.2     0.00100438     -2384.7165621677 -3.92E-03
     5 OT DIIS     0.10E+00    2.2     0.00050999     -2384.7168137759 -2.52E-04
     6 OT DIIS     0.10E+00    2.2     0.00032161     -2384.7168663938 -5.26E-05
     7 OT DIIS     0.10E+00    2.2     0.00006173     -2384.7168860333 -1.96E-05
     8 OT DIIS     0.10E+00    2.1     0.00001555     -2384.7168870180 -9.85E-07
     9 OT DIIS     0.10E+00    2.1     0.00000424     -2384.7168870876 -6.96E-08
    10 OT DIIS     0.10E+00    2.1     0.00000124     -2384.7168870976 -9.94E-09
    11 OT DIIS     0.10E+00    2.2     0.00000038     -2384.7168870990 -1.40E-09

  *** SCF run converged in    11 steps ***


  Electronic density on regular grids:        -25.1327561462       22.8672438538
  Core density on regular grids:               48.0000000000        0.0000000000
  Hard and soft densities (Lebedev):          -50.3945178343      -27.5272741400
  Total Rho_soft + Rho1_hard - Rho1_soft      -47.9999998405
  Total charge density (r-space):               0.0000001595
  Total Rho_soft + Rho0_soft (g-space):        -0.0000002428

  Overlap energy of the core charge distribution:               0.00000000475374
  Self energy of the core charge distribution:               -752.09364046751932
  Core Hamiltonian energy:                                  -1752.90856837454567
  Hartree energy:                                             103.92966894171248
  Exchange-correlation energy:                                -18.94976398462038

  GAPW| Exc from hard and soft atomic rho1:                   -83.83145677132094
  GAPW| local Eh = 1 center integrals:                        119.13687355256550

  Total energy:                                             -2384.71688709897444

  outer SCF iter =    2 RMS gradient =   0.38E-06 energy =      -2384.7168870990
  outer SCF loop converged in   2 iterations or   31 steps


 ENERGY| Total FORCE_EVAL ( QS ) energy [a.u.]:            -2384.716887098974439

 -------------------------------------------------------------------------------
 -                                                                             -
 -                                DBCSR STATISTICS                             -
 -                                                                             -
 -------------------------------------------------------------------------------
 COUNTER                                    TOTAL       BLAS       SMM       ACC
 flops    24 x    24 x    24              7382016       0.0%    100.0%      0.0%
 flops    70 x    70 x    24              7526400       0.0%    100.0%      0.0%
 flops    70 x    89 x    24              9569280       0.0%    100.0%      0.0%
 flops    24 x    24 x    70             10160640       0.0%    100.0%      0.0%
 flops    89 x    89 x    24             12166656       0.0%    100.0%      0.0%
 flops    24 x    24 x    89             12918528       0.0%    100.0%      0.0%
 flops    70 x    24 x    70             17875200       0.0%    100.0%      0.0%
 flops    70 x    24 x    89             22727040       0.0%    100.0%      0.0%
 flops    89 x    24 x    70             22727040       0.0%    100.0%      0.0%
 flops   159 x    24 x    24             28757376       0.0%    100.0%      0.0%
 flops    89 x    24 x    89             28895808       0.0%    100.0%      0.0%
 flops   159 x    24 x    70             35259840       0.0%    100.0%      0.0%
 flops   159 x    24 x    89             44830368       0.0%    100.0%      0.0%
 flops inhomo. stacks                           0       0.0%      0.0%      0.0%
 flops total                       260.796192E+06       0.0%    100.0%      0.0%
 flops max/rank                    253.269792E+06       0.0%    100.0%      0.0%
 matmuls inhomo. stacks                         0       0.0%      0.0%      0.0%
 matmuls total                               1208       0.0%    100.0%      0.0%
 number of processed stacks                  1208       0.0%    100.0%      0.0%
 average stack size                                     0.0       1.0       0.0
 marketing flops                   270.731808E+06
 -------------------------------------------------------------------------------
 # multiplications                            726
 max memory usage/rank             610.713600E+06
 # max total images/rank                        3
 # max 3D layers                                1
 # MPI messages exchanged                  696960
 MPI messages size (bytes):
  total size                       468.561152E+06
  min size                           0.000000E+00
  max size                         113.208000E+03
  average size                     672.292725E+00
 MPI breakdown and total messages size (bytes):
             size <=      128              682976                        0
       128 < size <=     8192                4209                 19395072
      8192 < size <=    32768                6651                133254720
     32768 < size <=   131072                3124                315911376
    131072 < size <=  4194304                   0                        0
   4194304 < size <= 16777216                   0                        0
  16777216 < size                               0                        0
 -------------------------------------------------------------------------------

 *** WARNING in dbcsr_mm.F:290 :: Using a non-square number of MPI ranks ***
 *** might lead to poor performance. Used ranks: 48 Suggested: 49 100    ***

 -------------------------------------------------------------------------------
 -                                                                             -
 -                      DBCSR MESSAGE PASSING PERFORMANCE                      -
 -                                                                             -
 -------------------------------------------------------------------------------
 ROUTINE             CALLS      AVE VOLUME [Bytes]
 MP_Bcast               14                     12.
 MP_Allreduce         3883                      8.
 MP_Alltoall          2729                   6289.
 MP_ISend            32470                   1839.
 MP_IRecv            32002                    559.
 -------------------------------------------------------------------------------

 -------------------------------------------------------------------------------
 -                                                                             -
 -                                GRID STATISTICS                              -
 -                                                                             -
 -------------------------------------------------------------------------------
 LP    KERNEL             BACKEND                              COUNT     PERCENT
 2     collocate ortho    REF                                  12160      11.62%
 2     integrate ortho    REF                                  11780      11.25%
 3     collocate ortho    REF                                  10912      10.42%
 3     integrate ortho    REF                                  10571      10.10%
 1     collocate ortho    REF                                  10048       9.60%
 1     integrate ortho    REF                                   9734       9.30%
 4     collocate ortho    REF                                   7360       7.03%
 4     integrate ortho    REF                                   7130       6.81%
 5     collocate ortho    REF                                   4128       3.94%
 5     integrate ortho    REF                                   3999       3.82%
 0     collocate ortho    REF                                   3584       3.42%
 0     integrate ortho    REF                                   3472       3.32%
 2     collocate general  REF                                   2976       2.84%
 2     integrate general  REF                                   2976       2.84%
 6     collocate ortho    REF                                   1376       1.31%
 6     integrate ortho    REF                                   1333       1.27%
 7     collocate ortho    REF                                    480       0.46%
 7     integrate ortho    REF                                    465       0.44%
 8     collocate ortho    REF                                     96       0.09%
 8     integrate ortho    REF                                     93       0.09%
 -------------------------------------------------------------------------------

 MEMORY| Estimated peak process memory [MiB]                                 583

 -------------------------------------------------------------------------------
 -                                                                             -
 -                         MESSAGE PASSING PERFORMANCE                         -
 -                                                                             -
 -------------------------------------------------------------------------------

 ROUTINE             CALLS      AVE VOLUME [Bytes]
 MP_Group                4
 MP_Bcast              551                 417493.
 MP_Allreduce         1806                 476875.
 MP_Sync                78
 MP_Alltoall           702                4507659.
 MP_ISendRecv         8883                 115392.
 MP_Wait             16508
 MP_comm_split          37
 MP_ISend             7000                 242076.
 MP_IRecv             7000                 242124.
 MP_Recv                22                   2544.
 -------------------------------------------------------------------------------


 -------------------------------------------------------------------------------
 -                                                                             -
 -                           R E F E R E N C E S                               -
 -                                                                             -
 -------------------------------------------------------------------------------
 
 CP2K version 10.0 (Development Version), the CP2K developers group (2022).
 CP2K is freely available from https://www.cp2k.org/ .

 Kuehne,Thomas D.; Iannuzzi,Marcella; Del Ben,Mauro;
 Rybkin,Vladimir V.; Seewald,Patrick; Stein,Frederick; Laino,Teodoro;
 Khaliullin,Rustam Z.; Schuett,Ole; Schiffmann,Florian; Golze,Dorothea;
 Wilhelm,Jan; Chulkov,Sergey; Bani-Hashemian,Mohammad Hossein;
 Weber,Valery; Borstnik,Urban; Taillefumier,Mathieu;
 Jakobovits,Alice Shoshana; Lazzaro,Alfio; Pabst,Hans; Mueller,Tiziano;
 Schade,Robert; Guidon,Manuel; Andermatt,Samuel; Holmberg,Nico;
 Schenter,Gregory K.; Hehn,Anna; Bussy,Augustin; Belleflamme,Fabian;
 Tabacchi,Gloria; Gloess,Andreas; Lass,Michael; Bethune,Iain;
 Mundy,Christopher J.; Plessl,Christian; Watkins,Matt;
 VandeVondele,Joost; Krack,Matthias; Hutter,Juerg. 
 The Journal of Chemical Physics, 152 (19), (2020). 
 CP2K: An electronic structure and molecular dynamics software package -
 Quickstep: Efficient and accurate electronic structure calculations.
 https://doi.org/10.1063/5.0007045

 Schuett, Ole; Messmer, Peter; Hutter, Juerg; VandeVondele, Joost. 
 Electronic Structure Calculations on Graphics Processing Units, John
 Wiley & Sons, Ltd, 173-190 (2016). 
 GPU-Accelerated Sparse Matrix-Matrix Multiplication for
 Linear Scaling Density Functional Theory.
 https://doi.org/10.1002/9781118670712.ch8

 Heinecke, A; Henry, G; Hutchinson, M; Pabst, H. 
 Proceedings of Intl. Supercomputing Conference, 981-991 (2016). 
 LIBXSMM: Accelerating Small Matrix Multiplications
 by Runtime Code Generation.
 https://doi.org/10.1109/SC.2016.83

 Borstnik, U; VandeVondele, J; Weber, V; Hutter, J. 
 PARALLEL COMPUTING, 40 (5-6), 47-58 (2014). 
 Sparse matrix multiplication: The distributed block-compressed sparse
 row library.
 https://doi.org/10.1016/j.parco.2014.03.012

 Hutter, J; Iannuzzi, M; Schiffmann, F; VandeVondele, J. 
 WIREs Comput Mol Sci., 4 (1), 15-25 (2014). 
 CP2K: atomistic simulations of condensed matter systems.
 https://doi.org/10.1002/wcms.1159

 Frigo, M; Johnson, SG. 
 PROCEEDINGS OF THE IEEE, 93 (2), 216-231 (2005). 
 The design and implementation of FFTW3.
 https://doi.org/10.1109/JPROC.2004.840301

 VandeVondele, J; Hutter, J. 
 JOURNAL OF CHEMICAL PHYSICS, 118 (10), 4365-4369 (2003). 
 An efficient orbital transformation method for electronic structure
 calculations.
 https://doi.org/10.1063/1.1543154

 Lippert, G; Hutter, J; Parrinello, M. 
 THEORETICAL CHEMISTRY ACCOUNTS, 103 (2), 124-140 (1999). 
 The Gaussian and augmented-plane-wave density functional method for ab
 initio molecular dynamics simulations.
 https://doi.org/10.1007/s002140050523

 Krack, M; Parrinello, M. 
 PHYSICAL CHEMISTRY CHEMICAL PHYSICS, 2 (10), 2105-2112 (2000). 
 All-electron ab-initio molecular dynamics.
 https://doi.org/10.1039/b001167n

 Perdew, JP; Burke, K; Ernzerhof, M. 
 PHYSICAL REVIEW LETTERS, 77 (18), 3865-3868 (1996). 
 Generalized gradient approximation made simple.
 https://doi.org/10.1103/PhysRevLett.77.3865


 -------------------------------------------------------------------------------
 -                                                                             -
 -                                T I M I N G                                  -
 -                                                                             -
 -------------------------------------------------------------------------------
 SUBROUTINE                       CALLS  ASD         SELF TIME        TOTAL TIME
                                MAXIMUM       AVERAGE  MAXIMUM  AVERAGE  MAXIMUM
 CP2K                                 1  1.0    0.013    0.039   67.597   67.598
 qs_energies                          1  2.0    0.000    0.000   67.217   67.218
 scf_env_do_scf                       1  3.0    0.000    0.000   66.741   66.742
 scf_env_do_scf_inner_loop           31  4.0    0.001    0.002   62.730   62.731
 qs_ks_update_qs_env                 33  5.0    0.000    0.000   61.351   61.362
 rebuild_ks_matrix                   31  6.0    0.000    0.000   61.345   61.353
 qs_ks_build_kohn_sham_matrix        31  7.0    0.007    0.009   61.345   61.352
 mp_sum_d                          1278  7.1   29.145   29.912   29.145   29.912
 calculate_vxc_atom                  31  8.0    0.082    1.424   27.526   27.527
 gaVxcgb_GC                          62  9.0    0.530   25.425    0.530   25.425
 prepare_gapw_den                    31  8.0    0.001    0.002   16.624   16.645
 calculate_rho_atom                  62  9.0    4.438   13.000    4.438   13.001
 rs_pw_transfer                     314  9.5    0.008    0.009    7.023    7.226
 pw_transfer                        656 10.1    0.071    0.083    6.714    7.226
 fft_wrap_pw1pw2                    563 11.3    0.008    0.009    6.573    7.080
 fft_wrap_pw1pw2_300                374 12.7    0.448    0.520    6.182    6.703
 calculate_rho0_atom                 62  9.0    6.195    6.697    6.195    6.697
 mp_sum_dv                          562 12.8    4.013    5.741    4.013    5.741
 fft3d_ps                           563 13.3    2.451    2.764    5.141    5.703
 qs_vxc_create                       31  8.0    0.001    0.001    5.530    5.530
 xc_vxc_pw_create                    31  9.0    0.035    0.040    5.529    5.529
 integrate_vhg0_rspace               31  8.0    0.561    1.152    4.976    5.078
 qs_rho_update_rho                   32  5.0    0.001    0.001    4.558    4.562
 calculate_rho_elec                  32  6.0    0.017    0.019    4.237    4.237
 xc_pw_derive                       186 11.0    0.002    0.002    3.552    4.124
 init_scf_loop                        2  4.0    0.000    0.000    4.009    4.010
 density_rs2pw                       32  7.0    0.002    0.002    3.310    3.484
 sum_up_and_integrate                31  8.0    0.018    0.021    3.315    3.331
 integrate_v_rspace                  31  9.0    0.001    0.001    3.297    3.312
 xc_rho_set_and_dset_create          31 10.0    0.044    0.052    3.003    3.280
 mp_sum_dm                          190  7.7    3.169    3.257    3.169    3.257
 mp_alltoall_z22v                   563 15.3    2.100    3.147    2.100    3.147
 potential_pw2rs                     31 10.0    0.002    0.003    3.085    3.091
 xc_pw_divergence                    31 10.0    0.001    0.001    2.399    2.959
 rs_pw_transfer_PW2RS_300            62 11.0    1.732    1.788    2.720    2.805
 rs_pw_transfer_RS2PW_300            63 10.0    1.750    1.840    2.555    2.714
 yz_to_x                            251 14.1    0.255    0.340    1.398    2.203
 Vh_1c_gg_integrals                  31  8.0    0.118    2.079    2.091    2.138
 xc_functional_eval                 155 10.9    0.000    0.001    1.205    2.054
 pbe_lda_eval                       155 11.9    1.205    2.053    1.205    2.053
 put_rho0_on_grid                    31  9.0    0.020    0.025    1.978    2.000
 mp_waitany                        7000 11.5    1.367    1.602    1.367    1.602
 mp_waitall_1                     67588 13.9    1.224    1.431    1.224    1.431
 -------------------------------------------------------------------------------

 The number of warnings for this run is : 1
 
 -------------------------------------------------------------------------------
  **** **** ******  **  PROGRAM ENDED AT                 2022-05-13 22:32:50.162
 ***** ** ***  *** **   PROGRAM RAN ON                                   tcopt10
 **    ****   ******    PROGRAM RAN BY                                    hutter
 ***** **    ** ** **   PROGRAM PROCESS ID                                 42865
  **** **  *******  **  PROGRAM STOPPED IN /data/hutter/GITHUB/BASIS/scMOLOPT/PB
                                           E/Ga
