 DBCSR| CPU Multiplication driver                                           XSMM
 DBCSR| Multrec recursion limit                                              512
 DBCSR| Multiplication stack size                                           1000
 DBCSR| Maximum elements for images                                    UNLIMITED
 DBCSR| Multiplicative factor virtual images                                   1
 DBCSR| Use multiplication densification                                       T
 DBCSR| Multiplication size stacks                                             3
 DBCSR| Use memory pool for CPU allocation                                     F
 DBCSR| Number of 3D layers                                               SINGLE
 DBCSR| Use MPI memory allocation                                              F
 DBCSR| Use RMA algorithm                                                      F
 DBCSR| Use Communication thread                                               T
 DBCSR| Communication thread load                                             87
 DBCSR| MPI: My node id                                                        0
 DBCSR| MPI: Number of nodes                                                  48
 DBCSR| OMP: Current number of threads                                         1
 DBCSR| OMP: Max number of threads                                             1
 DBCSR| Split modifier for TAS multiplication algorithm                  1.0E+00


  **** **** ******  **  PROGRAM STARTED AT               2022-05-13 22:35:57.768
 ***** ** ***  *** **   PROGRAM STARTED ON                               tcopt10
 **    ****   ******    PROGRAM STARTED BY                                hutter
 ***** **    ** ** **   PROGRAM PROCESS ID                                 43518
  **** **  *******  **  PROGRAM STARTED IN /data/hutter/GITHUB/BASIS/scMOLOPT/PB
                                           E/Ga

 CP2K| version string:                   CP2K version 10.0 (Development Version)
 CP2K| source code revision number:                                  git:13fcfd8
 CP2K| cp2kflags: omp libint fftw3 libxc elpa parallel mpi3 scalapack cosma xsmm
 CP2K|             spglib sirius libvori libbqb
 CP2K| is freely available from                            https://www.cp2k.org/
 CP2K| Program compiled at                      Tue 10 May 2022 02:27:21 PM CEST
 CP2K| Program compiled on                                               tcopt10
 CP2K| Program compiled for                                                local
 CP2K| Data directory path                   /data/hutter/GITHUB/TDLRI/cp2k/data
 CP2K| Input file name                                               GaF-ref.inp

 GLOBAL| Force Environment number                                              1
 GLOBAL| Basis set file name                                        ../def2QZVPP
 GLOBAL| Potential file name                                        ../POTENTIAL
 GLOBAL| MM Potential file name                                     MM_POTENTIAL
 GLOBAL| Coordinate file name                                      __STD_INPUT__
 GLOBAL| Method name                                                        CP2K
 GLOBAL| Project name                                                     refGaF
 GLOBAL| Run type                                                         ENERGY
 GLOBAL| FFT library                                                       FFTW3
 GLOBAL| Diagonalization library                                       ScaLAPACK
 GLOBAL| Orthonormality check for eigenvectors                          DISABLED
 GLOBAL| Matrix multiplication library                                     COSMA
 GLOBAL| All-to-all communication in single precision                          F
 GLOBAL| FFTs using library dependent lengths                                  F
 GLOBAL| Grid backend                                                       AUTO
 GLOBAL| Global print level                                                  LOW
 GLOBAL| MPI I/O enabled                                                       T
 GLOBAL| Total number of message passing processes                            48
 GLOBAL| Number of threads for this process                                    1
 GLOBAL| This output is from process                                           0
 GLOBAL| Stack size for threads created by OpenMP (OMP_STACKSIZE)        default
 GLOBAL| CPU model name                          AMD EPYC 7401 24-Core Processor
 GLOBAL| CPUID                                                              1002

 MEMORY| system memory details [Kb]
 MEMORY|                        rank 0           min           max       average
 MEMORY| MemTotal            263969136     263969136     263969136     263969136
 MEMORY| MemFree             237817492     237817492     237817492     237817492
 MEMORY| Buffers                   136           136           136           136
 MEMORY| Cached               18981012      18981012      18981012      18981012
 MEMORY| Slab                  1428300       1428300       1428300       1428300
 MEMORY| SReclaimable           872512        872512        872512        872512
 MEMORY| MemLikelyFree       257671152     257671152     257671152     257671152


 GENERATE|  Preliminary Number of Bonds generated:                             0
 GENERATE|  Achieved consistency in connectivity generation.

 *******************************************************************************
 *******************************************************************************
 **                                                                           **
 **     #####                         ##              ##                      **
 **    ##   ##            ##          ##              ##                      **
 **   ##     ##                       ##            ######                    **
 **   ##     ##  ##   ##  ##   #####  ##  ##   ####   ##    #####    #####    **
 **   ##     ##  ##   ##  ##  ##      ## ##   ##      ##   ##   ##  ##   ##   **
 **   ##  ## ##  ##   ##  ##  ##      ####     ###    ##   ######   ######    **
 **    ##  ###   ##   ##  ##  ##      ## ##      ##   ##   ##       ##        **
 **     #######   #####   ##   #####  ##  ##  ####    ##    #####   ##        **
 **           ##                                                    ##        **
 **                                                                           **
 **                                                ... make the atoms dance   **
 **                                                                           **
 **            Copyright (C) by CP2K developers group (2000-2022)             **
 **                      J. Chem. Phys. 152, 194103 (2020)                    **
 **                                                                           **
 *******************************************************************************


 TOTAL NUMBERS AND MAXIMUM NUMBERS

  Total number of            - Atomic kinds:                                   2
                             - Atoms:                                          2
                             - Shell sets:                                    44
                             - Shells:                                        44
                             - Primitive Cartesian functions:                 87
                             - Cartesian basis functions:                    183
                             - Spherical basis functions:                    146

  Maximum angular momentum of the orbital basis functions:                     4


 SCF PARAMETERS         Density guess:                                    ATOMIC
                        --------------------------------------------------------
                        max_scf:                                              20
                        max_scf_history:                                       0
                        max_diis:                                              4
                        --------------------------------------------------------
                        eps_scf:                                        5.00E-07
                        eps_scf_history:                                0.00E+00
                        eps_diis:                                       1.00E-01
                        eps_eigval:                                     1.00E-05
                        --------------------------------------------------------
                        level_shift [a.u.]:                             0.000000
                        --------------------------------------------------------
                        Outer loop SCF in use 
                        No variables optimised in outer loop
                        eps_scf                                         5.00E-07
                        max_scf                                               10
                        No outer loop optimization
                        step_size                                       5.00E-01

 Number of electrons:                                                         40
 Number of occupied orbitals:                                                 20
 Number of molecular orbitals:                                                20

 Number of orbital functions:                                                146
 Number of independent orbital functions:                                    146

 Extrapolation method: initial_guess


 SCF WAVEFUNCTION OPTIMIZATION

  ----------------------------------- OT ---------------------------------------
  Minimizer      : DIIS                : direct inversion
                                         in the iterative subspace
                                         using   7 DIIS vectors
                                         safer DIIS on
  Preconditioner : FULL_ALL            : diagonalization, state selective
  Precond_solver : DEFAULT
  stepsize       :    0.10000000                  energy_gap     :    0.08000000
  eps_taylor     :   0.10000E-15                  max_taylor     :             4
  ----------------------------------- OT ---------------------------------------

  Step     Update method      Time    Convergence         Total energy    Change
  ------------------------------------------------------------------------------
     1 OT DIIS     0.10E+00    2.0     0.47651961     -1943.7912162005 -1.94E+03
     2 OT DIIS     0.10E+00    2.1     0.27356422     -1996.5063150900 -5.27E+01
     3 OT DIIS     0.10E+00    2.1     0.09438858     -2017.7303644586 -2.12E+01
     4 OT DIIS     0.10E+00    2.1     0.05575061     -2019.0821933338 -1.35E+00
     5 OT DIIS     0.10E+00    2.1     0.03818463     -2020.4979407894 -1.42E+00
     6 OT DIIS     0.10E+00    2.1     0.02366402     -2022.1047082542 -1.61E+00
     7 OT DIIS     0.10E+00    2.1     0.02222355     -2022.7564252346 -6.52E-01
     8 OT DIIS     0.10E+00    2.1     0.01187667     -2023.2067839271 -4.50E-01
     9 OT DIIS     0.10E+00    2.1     0.01122173     -2023.2744829048 -6.77E-02
    10 OT DIIS     0.10E+00    2.1     0.00949833     -2023.3365210312 -6.20E-02
    11 OT DIIS     0.10E+00    2.1     0.00860532     -2023.5172548737 -1.81E-01
    12 OT DIIS     0.10E+00    2.1     0.00727994     -2023.5997761322 -8.25E-02
    13 OT DIIS     0.10E+00    2.1     0.00634191     -2023.7494934937 -1.50E-01
    14 OT DIIS     0.10E+00    2.1     0.00590930     -2023.8559355459 -1.06E-01
    15 OT DIIS     0.10E+00    2.1     0.00538839     -2023.9281325348 -7.22E-02
    16 OT DIIS     0.10E+00    2.1     0.00492400     -2023.9763096030 -4.82E-02
    17 OT DIIS     0.10E+00    2.1     0.00423177     -2024.0764744056 -1.00E-01
    18 OT DIIS     0.10E+00    2.1     0.00429606     -2024.1454108940 -6.89E-02
    19 OT DIIS     0.10E+00    2.1     0.00784358     -2024.1415241145  3.89E-03
    20 OT DIIS     0.10E+00    2.1     0.00318630     -2024.2119073265 -7.04E-02

  Leaving inner SCF loop after reaching    20 steps.


  Electronic density on regular grids:        -23.5467883471       16.4532116529
  Core density on regular grids:               40.0000000000        0.0000000000
  Hard and soft densities (Lebedev):          -43.4535490267      -27.0003366414
  Total Rho_soft + Rho1_hard - Rho1_soft      -40.0000007324
  Total charge density (r-space):              -0.0000007324
  Total Rho_soft + Rho0_soft (g-space):        -0.0000009743

  Overlap energy of the core charge distribution:               0.00000002052452
  Self energy of the core charge distribution:               -657.81460375560823
  Core Hamiltonian energy:                                  -1491.69894971751523
  Hartree energy:                                              85.06897285388814
  Exchange-correlation energy:                                -19.27326933303746

  GAPW| Exc from hard and soft atomic rho1:                   -65.77265135707397
  GAPW| local Eh = 1 center integrals:                        125.27859396227984

  Total energy:                                             -2024.21190732654213

  outer SCF iter =    1 RMS gradient =   0.32E-02 energy =      -2024.2119073265

  ----------------------------------- OT ---------------------------------------
  Minimizer      : DIIS                : direct inversion
                                         in the iterative subspace
                                         using   7 DIIS vectors
                                         safer DIIS on
  Preconditioner : FULL_ALL            : diagonalization, state selective
  Precond_solver : DEFAULT
  stepsize       :    0.10000000                  energy_gap     :    0.08000000
  eps_taylor     :   0.10000E-15                  max_taylor     :             4
  ----------------------------------- OT ---------------------------------------

  Step     Update method      Time    Convergence         Total energy    Change
  ------------------------------------------------------------------------------
     1 OT DIIS     0.10E+00    4.2     0.02864744     -2024.2400425087 -2.81E-02
     2 OT DIIS     0.10E+00    2.1     0.01327688     -2024.4261814342 -1.86E-01
     3 OT DIIS     0.10E+00    2.1     0.00700995     -2024.4608820468 -3.47E-02
     4 OT DIIS     0.10E+00    2.1     0.00632769     -2024.4627349368 -1.85E-03
     5 OT DIIS     0.10E+00    2.1     0.00401620     -2024.4671452434 -4.41E-03
     6 OT DIIS     0.10E+00    2.1     0.00051156     -2024.4687257526 -1.58E-03
     7 OT DIIS     0.10E+00    2.1     0.00032529     -2024.4687574535 -3.17E-05
     8 OT DIIS     0.10E+00    2.1     0.00011129     -2024.4687730061 -1.56E-05
     9 OT DIIS     0.10E+00    2.1     0.00002802     -2024.4687743102 -1.30E-06
    10 OT DIIS     0.10E+00    2.1     0.00000815     -2024.4687744606 -1.50E-07
    11 OT DIIS     0.10E+00    2.1     0.00000316     -2024.4687744747 -1.41E-08
    12 OT DIIS     0.10E+00    2.1     0.00000134     -2024.4687744734  1.36E-09
    13 OT DIIS     0.10E+00    2.1     0.00000041     -2024.4687744713  2.09E-09

  *** SCF run converged in    13 steps ***


  Electronic density on regular grids:        -23.5720178067       16.4279821933
  Core density on regular grids:               40.0000000000        0.0000000000
  Hard and soft densities (Lebedev):          -43.7128474785      -27.2848647371
  Total Rho_soft + Rho1_hard - Rho1_soft      -40.0000005481
  Total charge density (r-space):              -0.0000005481
  Total Rho_soft + Rho0_soft (g-space):        -0.0000007902

  Overlap energy of the core charge distribution:               0.00000002052452
  Self energy of the core charge distribution:               -657.81460375560823
  Core Hamiltonian energy:                                  -1491.92706417676368
  Hartree energy:                                              84.74076648599099
  Exchange-correlation energy:                                -19.36289205101185

  GAPW| Exc from hard and soft atomic rho1:                   -65.74000919629010
  GAPW| local Eh = 1 center integrals:                        125.63502820189488

  Total energy:                                             -2024.46877447126349

  outer SCF iter =    2 RMS gradient =   0.41E-06 energy =      -2024.4687744713
  outer SCF loop converged in   2 iterations or   33 steps


 ENERGY| Total FORCE_EVAL ( QS ) energy [a.u.]:            -2024.468774471263487

 -------------------------------------------------------------------------------
 -                                                                             -
 -                                DBCSR STATISTICS                             -
 -                                                                             -
 -------------------------------------------------------------------------------
 COUNTER                                    TOTAL       BLAS       SMM       ACC
 flops    57 x    57 x    20              4418640       0.0%    100.0%      0.0%
 flops    20 x    20 x    20              4560000       0.0%    100.0%      0.0%
 flops    20 x    20 x    57              6110400       0.0%    100.0%      0.0%
 flops    57 x    89 x    20              6899280       0.0%    100.0%      0.0%
 flops    20 x    20 x    89              9540800       0.0%    100.0%      0.0%
 flops    57 x    20 x    57             10396800       0.0%    100.0%      0.0%
 flops    89 x    89 x    20             10772560       0.0%    100.0%      0.0%
 flops    57 x    20 x    89             16233600       0.0%    100.0%      0.0%
 flops    89 x    20 x    57             16233600       0.0%    100.0%      0.0%
 flops   146 x    20 x    20             19505600       0.0%    100.0%      0.0%
 flops   146 x    20 x    57             23301600       0.0%    100.0%      0.0%
 flops    89 x    20 x    89             25347200       0.0%    100.0%      0.0%
 flops   146 x    20 x    89             36383200       0.0%    100.0%      0.0%
 flops inhomo. stacks                           0       0.0%      0.0%      0.0%
 flops total                       189.703280E+06       0.0%    100.0%      0.0%
 flops max/rank                    185.284640E+06       0.0%    100.0%      0.0%
 matmuls inhomo. stacks                         0       0.0%      0.0%      0.0%
 matmuls total                               1282       0.0%    100.0%      0.0%
 number of processed stacks                  1282       0.0%    100.0%      0.0%
 average stack size                                     0.0       1.0       0.0
 marketing flops                   196.834976E+06
 -------------------------------------------------------------------------------
 # multiplications                            772
 max memory usage/rank             581.140480E+06
 # max total images/rank                        3
 # max 3D layers                                1
 # MPI messages exchanged                  741120
 MPI messages size (bytes):
  total size                       404.109440E+06
  min size                           0.000000E+00
  max size                         103.952000E+03
  average size                     545.268555E+00
 MPI breakdown and total messages size (bytes):
             size <=      128              726262                        0
       128 < size <=     8192                4491                 14371200
      8192 < size <=    32768                7067                108367040
     32768 < size <=   131072                3300                281371200
    131072 < size <=  4194304                   0                        0
   4194304 < size <= 16777216                   0                        0
  16777216 < size                               0                        0
 -------------------------------------------------------------------------------

 *** WARNING in dbcsr_mm.F:290 :: Using a non-square number of MPI ranks ***
 *** might lead to poor performance. Used ranks: 48 Suggested: 49 100    ***

 -------------------------------------------------------------------------------
 -                                                                             -
 -                      DBCSR MESSAGE PASSING PERFORMANCE                      -
 -                                                                             -
 -------------------------------------------------------------------------------
 ROUTINE             CALLS      AVE VOLUME [Bytes]
 MP_Bcast               14                     12.
 MP_Allreduce         4131                      8.
 MP_Alltoall          2873                   5631.
 MP_ISend            34526                   1481.
 MP_IRecv            34030                    430.
 -------------------------------------------------------------------------------

 -------------------------------------------------------------------------------
 -                                                                             -
 -                                GRID STATISTICS                              -
 -                                                                             -
 -------------------------------------------------------------------------------
 LP    KERNEL             BACKEND                              COUNT     PERCENT
 2     collocate ortho    REF                                  10506      11.12%
 2     integrate ortho    REF                                  10197      10.80%
 3     collocate ortho    REF                                   9826      10.40%
 3     integrate ortho    REF                                   9537      10.10%
 1     collocate ortho    REF                                   8602       9.11%
 1     integrate ortho    REF                                   8349       8.84%
 4     collocate ortho    REF                                   6698       7.09%
 4     integrate ortho    REF                                   6501       6.88%
 5     collocate ortho    REF                                   3808       4.03%
 5     integrate ortho    REF                                   3696       3.91%
 0     collocate ortho    REF                                   3298       3.49%
 0     integrate ortho    REF                                   3201       3.39%
 2     collocate general  REF                                   3168       3.35%
 2     integrate general  REF                                   3168       3.35%
 6     collocate ortho    REF                                   1360       1.44%
 6     integrate ortho    REF                                   1320       1.40%
 7     collocate ortho    REF                                    510       0.54%
 7     integrate ortho    REF                                    495       0.52%
 8     collocate ortho    REF                                    102       0.11%
 8     integrate ortho    REF                                     99       0.10%
 -------------------------------------------------------------------------------

 MEMORY| Estimated peak process memory [MiB]                                 555

 -------------------------------------------------------------------------------
 -                                                                             -
 -                         MESSAGE PASSING PERFORMANCE                         -
 -                                                                             -
 -------------------------------------------------------------------------------

 ROUTINE             CALLS      AVE VOLUME [Bytes]
 MP_Group                4
 MP_Bcast              673                 339709.
 MP_Allreduce         2118                 392257.
 MP_Sync                82
 MP_Alltoall           746                3062026.
 MP_ISendRecv         9447                 115392.
 MP_Wait             17560
 MP_comm_split          39
 MP_ISend             7448                 242078.
 MP_IRecv             7448                 242122.
 MP_Recv                18                   2336.
 -------------------------------------------------------------------------------


 -------------------------------------------------------------------------------
 -                                                                             -
 -                           R E F E R E N C E S                               -
 -                                                                             -
 -------------------------------------------------------------------------------
 
 CP2K version 10.0 (Development Version), the CP2K developers group (2022).
 CP2K is freely available from https://www.cp2k.org/ .

 Kuehne,Thomas D.; Iannuzzi,Marcella; Del Ben,Mauro;
 Rybkin,Vladimir V.; Seewald,Patrick; Stein,Frederick; Laino,Teodoro;
 Khaliullin,Rustam Z.; Schuett,Ole; Schiffmann,Florian; Golze,Dorothea;
 Wilhelm,Jan; Chulkov,Sergey; Bani-Hashemian,Mohammad Hossein;
 Weber,Valery; Borstnik,Urban; Taillefumier,Mathieu;
 Jakobovits,Alice Shoshana; Lazzaro,Alfio; Pabst,Hans; Mueller,Tiziano;
 Schade,Robert; Guidon,Manuel; Andermatt,Samuel; Holmberg,Nico;
 Schenter,Gregory K.; Hehn,Anna; Bussy,Augustin; Belleflamme,Fabian;
 Tabacchi,Gloria; Gloess,Andreas; Lass,Michael; Bethune,Iain;
 Mundy,Christopher J.; Plessl,Christian; Watkins,Matt;
 VandeVondele,Joost; Krack,Matthias; Hutter,Juerg. 
 The Journal of Chemical Physics, 152 (19), (2020). 
 CP2K: An electronic structure and molecular dynamics software package -
 Quickstep: Efficient and accurate electronic structure calculations.
 https://doi.org/10.1063/5.0007045

 Schuett, Ole; Messmer, Peter; Hutter, Juerg; VandeVondele, Joost. 
 Electronic Structure Calculations on Graphics Processing Units, John
 Wiley & Sons, Ltd, 173-190 (2016). 
 GPU-Accelerated Sparse Matrix-Matrix Multiplication for
 Linear Scaling Density Functional Theory.
 https://doi.org/10.1002/9781118670712.ch8

 Heinecke, A; Henry, G; Hutchinson, M; Pabst, H. 
 Proceedings of Intl. Supercomputing Conference, 981-991 (2016). 
 LIBXSMM: Accelerating Small Matrix Multiplications
 by Runtime Code Generation.
 https://doi.org/10.1109/SC.2016.83

 Borstnik, U; VandeVondele, J; Weber, V; Hutter, J. 
 PARALLEL COMPUTING, 40 (5-6), 47-58 (2014). 
 Sparse matrix multiplication: The distributed block-compressed sparse
 row library.
 https://doi.org/10.1016/j.parco.2014.03.012

 Hutter, J; Iannuzzi, M; Schiffmann, F; VandeVondele, J. 
 WIREs Comput Mol Sci., 4 (1), 15-25 (2014). 
 CP2K: atomistic simulations of condensed matter systems.
 https://doi.org/10.1002/wcms.1159

 Frigo, M; Johnson, SG. 
 PROCEEDINGS OF THE IEEE, 93 (2), 216-231 (2005). 
 The design and implementation of FFTW3.
 https://doi.org/10.1109/JPROC.2004.840301

 VandeVondele, J; Hutter, J. 
 JOURNAL OF CHEMICAL PHYSICS, 118 (10), 4365-4369 (2003). 
 An efficient orbital transformation method for electronic structure
 calculations.
 https://doi.org/10.1063/1.1543154

 Lippert, G; Hutter, J; Parrinello, M. 
 THEORETICAL CHEMISTRY ACCOUNTS, 103 (2), 124-140 (1999). 
 The Gaussian and augmented-plane-wave density functional method for ab
 initio molecular dynamics simulations.
 https://doi.org/10.1007/s002140050523

 Krack, M; Parrinello, M. 
 PHYSICAL CHEMISTRY CHEMICAL PHYSICS, 2 (10), 2105-2112 (2000). 
 All-electron ab-initio molecular dynamics.
 https://doi.org/10.1039/b001167n

 Perdew, JP; Burke, K; Ernzerhof, M. 
 PHYSICAL REVIEW LETTERS, 77 (18), 3865-3868 (1996). 
 Generalized gradient approximation made simple.
 https://doi.org/10.1103/PhysRevLett.77.3865


 -------------------------------------------------------------------------------
 -                                                                             -
 -                                T I M I N G                                  -
 -                                                                             -
 -------------------------------------------------------------------------------
 SUBROUTINE                       CALLS  ASD         SELF TIME        TOTAL TIME
                                MAXIMUM       AVERAGE  MAXIMUM  AVERAGE  MAXIMUM
 CP2K                                 1  1.0    0.013    0.038   70.149   70.150
 qs_energies                          1  2.0    0.000    0.000   69.790   69.791
 scf_env_do_scf                       1  3.0    0.000    0.000   69.385   69.386
 scf_env_do_scf_inner_loop           33  4.0    0.001    0.002   65.477   65.478
 qs_ks_update_qs_env                 35  5.0    0.000    0.000   63.706   63.716
 rebuild_ks_matrix                   33  6.0    0.000    0.000   63.701   63.709
 qs_ks_build_kohn_sham_matrix        33  7.0    0.008    0.009   63.701   63.709
 mp_sum_d                          1378  7.4   30.591   31.414   30.591   31.414
 calculate_vxc_atom                  33  8.0    0.086    1.515   28.934   28.935
 gaVxcgb_GC                          66  9.0    0.556   26.697    0.556   26.697
 prepare_gapw_den                    33  8.0    0.001    0.002   16.905   16.921
 calculate_rho_atom                  66  9.0    4.460   13.200    4.460   13.200
 pw_transfer                        698 10.1    0.075    0.087    7.326    7.886
 fft_wrap_pw1pw2                    599 11.3    0.008    0.010    7.176    7.738
 rs_pw_transfer                     334  9.5    0.008    0.011    7.461    7.703
 fft_wrap_pw1pw2_300                398 12.7    0.469    0.550    6.767    7.327
 calculate_rho0_atom                 66  9.0    5.992    6.356    5.992    6.356
 fft3d_ps                           599 13.3    2.637    3.050    5.655    6.227
 mp_sum_dv                          778 12.9    4.345    6.117    4.345    6.117
 qs_vxc_create                       33  8.0    0.001    0.001    6.046    6.046
 xc_vxc_pw_create                    33  9.0    0.038    0.046    6.045    6.045
 integrate_vhg0_rspace               33  8.0    0.541    1.065    5.046    5.080
 qs_rho_update_rho                   34  5.0    0.001    0.001    4.841    4.844
 calculate_rho_elec                  34  6.0    0.018    0.020    4.534    4.534
 xc_pw_derive                       198 11.0    0.002    0.003    3.857    4.462
 init_scf_loop                        2  4.0    0.000    0.000    3.907    3.907
 density_rs2pw                       34  7.0    0.002    0.002    3.523    3.725
 xc_rho_set_and_dset_create          33 10.0    0.048    0.060    3.251    3.531
 sum_up_and_integrate                33  8.0    0.019    0.023    3.507    3.526
 integrate_v_rspace                  33  9.0    0.001    0.001    3.488    3.506
 mp_alltoall_z22v                   599 15.3    2.391    3.466    2.391    3.466
 potential_pw2rs                     33 10.0    0.003    0.003    3.250    3.256
 mp_sum_dm                          202  7.7    3.137    3.224    3.137    3.224
 xc_pw_divergence                    33 10.0    0.001    0.001    2.625    3.212
 rs_pw_transfer_PW2RS_300            66 11.0    1.819    1.892    2.901    3.018
 rs_pw_transfer_RS2PW_300            67 10.0    1.845    1.954    2.704    2.888
 yz_to_x                            267 14.1    0.270    0.340    1.496    2.397
 xc_functional_eval                 165 10.9    0.000    0.001    1.276    2.164
 pbe_lda_eval                       165 11.9    1.276    2.163    1.276    2.163
 put_rho0_on_grid                    33  9.0    0.021    0.026    2.110    2.126
 Vh_1c_gg_integrals                  33  8.0    0.113    2.028    2.045    2.103
 mp_waitany                        7448 11.5    1.480    1.698    1.480    1.698
 x_to_yz                            265 14.6    0.309    0.349    1.469    1.583
 mp_waitall_1                     71872 13.9    1.300    1.471    1.300    1.471
 -------------------------------------------------------------------------------

 The number of warnings for this run is : 1
 
 -------------------------------------------------------------------------------
  **** **** ******  **  PROGRAM ENDED AT                 2022-05-13 22:37:08.351
 ***** ** ***  *** **   PROGRAM RAN ON                                   tcopt10
 **    ****   ******    PROGRAM RAN BY                                    hutter
 ***** **    ** ** **   PROGRAM PROCESS ID                                 43518
  **** **  *******  **  PROGRAM STOPPED IN /data/hutter/GITHUB/BASIS/scMOLOPT/PB
                                           E/Ga
