 DBCSR| CPU Multiplication driver                                           XSMM
 DBCSR| Multrec recursion limit                                              512
 DBCSR| Multiplication stack size                                           1000
 DBCSR| Maximum elements for images                                    UNLIMITED
 DBCSR| Multiplicative factor virtual images                                   1
 DBCSR| Use multiplication densification                                       T
 DBCSR| Multiplication size stacks                                             3
 DBCSR| Use memory pool for CPU allocation                                     F
 DBCSR| Number of 3D layers                                               SINGLE
 DBCSR| Use MPI memory allocation                                              F
 DBCSR| Use RMA algorithm                                                      F
 DBCSR| Use Communication thread                                               T
 DBCSR| Communication thread load                                             87
 DBCSR| MPI: My node id                                                        0
 DBCSR| MPI: Number of nodes                                                  36
 DBCSR| OMP: Current number of threads                                         1
 DBCSR| OMP: Max number of threads                                             1
 DBCSR| Split modifier for TAS multiplication algorithm                  1.0E+00


  **** **** ******  **  PROGRAM STARTED AT               2022-07-03 18:35:49.694
 ***** ** ***  *** **   PROGRAM STARTED ON                               tcopt10
 **    ****   ******    PROGRAM STARTED BY                                hutter
 ***** **    ** ** **   PROGRAM PROCESS ID                                 24264
  **** **  *******  **  PROGRAM STARTED IN /data/hutter/GITHUB/BASIS/scMOLOPT/PB
                                           E/noble

 CP2K| version string:                   CP2K version 10.0 (Development Version)
 CP2K| source code revision number:                                  git:d19b00a
 CP2K| cp2kflags: omp libint fftw3 libxc elpa parallel mpi3 scalapack cosma xsmm
 CP2K|             spglib sirius libvori libbqb
 CP2K| is freely available from                            https://www.cp2k.org/
 CP2K| Program compiled at                      Wed 18 May 2022 12:15:59 PM CEST
 CP2K| Program compiled on                                               tcopt10
 CP2K| Program compiled for                                                local
 CP2K| Data directory path                   /data/hutter/GITHUB/TDLRI/cp2k/data
 CP2K| Input file name                                               Ar2-ref.inp

 GLOBAL| Force Environment number                                              1
 GLOBAL| Basis set file name                                        ../def2QZVPP
 GLOBAL| Potential file name                                        ../POTENTIAL
 GLOBAL| MM Potential file name                                     MM_POTENTIAL
 GLOBAL| Coordinate file name                                      __STD_INPUT__
 GLOBAL| Method name                                                        CP2K
 GLOBAL| Project name                                                     refAr2
 GLOBAL| Run type                                                         ENERGY
 GLOBAL| FFT library                                                       FFTW3
 GLOBAL| Diagonalization library                                            ELPA
 GLOBAL| Minimum number of eigenvectors for ELPA usage                        16
 GLOBAL| Orthonormality check for eigenvectors                          DISABLED
 GLOBAL| Matrix multiplication library                                     COSMA
 GLOBAL| All-to-all communication in single precision                          F
 GLOBAL| FFTs using library dependent lengths                                  F
 GLOBAL| Grid backend                                                       AUTO
 GLOBAL| Global print level                                                  LOW
 GLOBAL| MPI I/O enabled                                                       T
 GLOBAL| Total number of message passing processes                            36
 GLOBAL| Number of threads for this process                                    1
 GLOBAL| This output is from process                                           0
 GLOBAL| Stack size for threads created by OpenMP (OMP_STACKSIZE)        default
 GLOBAL| CPU model name                          AMD EPYC 7401 24-Core Processor
 GLOBAL| CPUID                                                              1002

 MEMORY| system memory details [Kb]
 MEMORY|                        rank 0           min           max       average
 MEMORY| MemTotal            263969132     263969132     263969132     263969132
 MEMORY| MemFree             204672568     204672568     204672568     204672568
 MEMORY| Buffers                   156           156           156           156
 MEMORY| Cached               52525024      52525024      52525024      52525024
 MEMORY| Slab                  2018128       2018128       2018128       2018128
 MEMORY| SReclaimable          1142052       1142052       1142052       1142052
 MEMORY| MemLikelyFree       258339800     258339800     258339800     258339800


 GENERATE|  Preliminary Number of Bonds generated:                             0
 GENERATE|  Achieved consistency in connectivity generation.

 *******************************************************************************
 *******************************************************************************
 **                                                                           **
 **     #####                         ##              ##                      **
 **    ##   ##            ##          ##              ##                      **
 **   ##     ##                       ##            ######                    **
 **   ##     ##  ##   ##  ##   #####  ##  ##   ####   ##    #####    #####    **
 **   ##     ##  ##   ##  ##  ##      ## ##   ##      ##   ##   ##  ##   ##   **
 **   ##  ## ##  ##   ##  ##  ##      ####     ###    ##   ######   ######    **
 **    ##  ###   ##   ##  ##  ##      ## ##      ##   ##   ##       ##        **
 **     #######   #####   ##   #####  ##  ##  ####    ##    #####   ##        **
 **           ##                                                    ##        **
 **                                                                           **
 **                                                ... make the atoms dance   **
 **                                                                           **
 **            Copyright (C) by CP2K developers group (2000-2022)             **
 **                      J. Chem. Phys. 152, 194103 (2020)                    **
 **                                                                           **
 *******************************************************************************


 TOTAL NUMBERS AND MAXIMUM NUMBERS

  Total number of            - Atomic kinds:                                   1
                             - Atoms:                                          2
                             - Shell sets:                                    44
                             - Shells:                                        44
                             - Primitive Cartesian functions:                 82
                             - Cartesian basis functions:                    172
                             - Spherical basis functions:                    140

  Maximum angular momentum of the orbital basis functions:                     4


 SCF PARAMETERS         Density guess:                                    ATOMIC
                        --------------------------------------------------------
                        max_scf:                                              10
                        max_scf_history:                                       0
                        max_diis:                                              4
                        --------------------------------------------------------
                        eps_scf:                                        1.00E-07
                        eps_scf_history:                                0.00E+00
                        eps_diis:                                       1.00E-01
                        eps_eigval:                                     1.00E-05
                        --------------------------------------------------------
                        level_shift [a.u.]:                             0.000000
                        --------------------------------------------------------
                        Outer loop SCF in use 
                        No variables optimised in outer loop
                        eps_scf                                         1.00E-07
                        max_scf                                               10
                        No outer loop optimization
                        step_size                                       5.00E-01

 Number of electrons:                                                         36
 Number of occupied orbitals:                                                 18
 Number of molecular orbitals:                                                18

 Number of orbital functions:                                                140
 Number of independent orbital functions:                                    140

 Extrapolation method: initial_guess


 SCF WAVEFUNCTION OPTIMIZATION

  ----------------------------------- OT ---------------------------------------
  Minimizer      : DIIS                : direct inversion
                                         in the iterative subspace
                                         using   7 DIIS vectors
                                         safer DIIS on
  Preconditioner : FULL_ALL            : diagonalization, state selective
  Precond_solver : DEFAULT
  stepsize       :    0.15000000                  energy_gap     :    0.08000000
  eps_taylor     :   0.10000E-15                  max_taylor     :             4
  ----------------------------------- OT ---------------------------------------

  Step     Update method      Time    Convergence         Total energy    Change
  ------------------------------------------------------------------------------
     1 OT DIIS     0.15E+00    0.5     0.00480924     -1054.6818767348 -1.05E+03
     2 OT DIIS     0.15E+00    0.6     0.00185348     -1054.6879026879 -6.03E-03
     3 OT DIIS     0.15E+00    0.6     0.00013519     -1054.6889659424 -1.06E-03
     4 OT DIIS     0.15E+00    0.5     0.00003204     -1054.6889700168 -4.07E-06
     5 OT DIIS     0.15E+00    0.6     0.00000383     -1054.6889702981 -2.81E-07
     6 OT DIIS     0.15E+00    0.6     0.00000117     -1054.6889703021 -3.97E-09
     7 OT DIIS     0.15E+00    0.6     0.00000007     -1054.6889703025 -3.92E-10

  *** SCF run converged in     7 steps ***


  Electronic density on regular grids:        -18.1880088799       17.8119911201
  Core density on regular grids:               36.0000000000       -0.0000000000
  Hard and soft densities (Lebedev):          -36.0014633025      -18.1894725102
  Total Rho_soft + Rho1_hard - Rho1_soft      -35.9999996722
  Total charge density (r-space):               0.0000003278
  Total Rho_soft + Rho0_soft (g-space):        -0.0000001807

  Overlap energy of the core charge distribution:               0.00000000000000
  Self energy of the core charge distribution:               -456.99356267368262
  Core Hamiltonian energy:                                   -611.01289526012647
  Hartree energy:                                              78.23358588129695
  Exchange-correlation energy:                                 -9.07333595691096

  GAPW| Exc from hard and soft atomic rho1:                   -52.28331805371612
  GAPW| local Eh = 1 center integrals:                         -3.55944423935324

  Total energy:                                             -1054.68897030249241

  outer SCF iter =    1 RMS gradient =   0.66E-07 energy =      -1054.6889703025
  outer SCF loop converged in   1 iterations or    7 steps


 ENERGY| Total FORCE_EVAL ( QS ) energy [a.u.]:            -1054.688970302492407

 -------------------------------------------------------------------------------
 -                                                                             -
 -                                DBCSR STATISTICS                             -
 -                                                                             -
 -------------------------------------------------------------------------------
 COUNTER                                    TOTAL       BLAS       SMM       ACC
 flops    18 x    18 x    18               443232       0.0%    100.0%      0.0%
 flops    18 x    18 x    70              2630880       0.0%    100.0%      0.0%
 flops    70 x    18 x    18              3265920       0.0%    100.0%      0.0%
 flops    70 x    70 x    18              4233600       0.0%    100.0%      0.0%
 flops    70 x    18 x    70             26812800       0.0%    100.0%      0.0%
 flops inhomo. stacks                           0       0.0%      0.0%      0.0%
 flops total                        37.386432E+06       0.0%    100.0%      0.0%
 flops max/rank                     19.524672E+06       0.0%    100.0%      0.0%
 matmuls inhomo. stacks                         0       0.0%      0.0%      0.0%
 matmuls total                                344       0.0%    100.0%      0.0%
 number of processed stacks                   344       0.0%    100.0%      0.0%
 average stack size                                     0.0       1.0       0.0
 marketing flops                    38.888352E+06
 -------------------------------------------------------------------------------
 # multiplications                            150
 max memory usage/rank             333.762560E+06
 # max total images/rank                        1
 # max 3D layers                                1
 # MPI messages exchanged                   54000
 MPI messages size (bytes):
  total size                        46.161920E+06
  min size                           0.000000E+00
  max size                          39.200000E+03
  average size                     854.850342E+00
 MPI breakdown and total messages size (bytes):
             size <=      128               51200                        0
       128 < size <=     8192                 560                  1451520
      8192 < size <=    32768                1480                 14918400
     32768 < size <=   131072                 760                 29792000
    131072 < size <=  4194304                   0                        0
   4194304 < size <= 16777216                   0                        0
  16777216 < size                               0                        0
 -------------------------------------------------------------------------------
 -                                                                             -
 -                      DBCSR MESSAGE PASSING PERFORMANCE                      -
 -                                                                             -
 -------------------------------------------------------------------------------
 ROUTINE             CALLS      AVE VOLUME [Bytes]
 MP_Bcast                6                     12.
 MP_Allreduce          805                      9.
 MP_Alltoall           662                   3845.
 MP_ISend             3596                   1650.
 MP_IRecv             3596                    739.
 -------------------------------------------------------------------------------

 -------------------------------------------------------------------------------
 -                                                                             -
 -                                GRID STATISTICS                              -
 -                                                                             -
 -------------------------------------------------------------------------------
 LP    KERNEL             BACKEND                              COUNT     PERCENT
 2     collocate ortho    REF                                   1320      11.47%
 2     integrate ortho    REF                                   1155      10.04%
 3     collocate ortho    REF                                   1120       9.73%
 3     integrate ortho    REF                                    980       8.52%
 1     collocate ortho    REF                                    976       8.48%
 4     collocate ortho    REF                                    912       7.92%
 1     integrate ortho    REF                                    854       7.42%
 4     integrate ortho    REF                                    798       6.93%
 5     collocate ortho    REF                                    544       4.73%
 2     collocate general  REF                                    504       4.38%
 2     integrate general  REF                                    504       4.38%
 5     integrate ortho    REF                                    476       4.14%
 0     collocate ortho    REF                                    368       3.20%
 0     integrate ortho    REF                                    322       2.80%
 6     collocate ortho    REF                                    240       2.09%
 6     integrate ortho    REF                                    210       1.82%
 7     collocate ortho    REF                                     96       0.83%
 7     integrate ortho    REF                                     84       0.73%
 8     collocate ortho    REF                                     24       0.21%
 8     integrate ortho    REF                                     21       0.18%
 -------------------------------------------------------------------------------

 MEMORY| Estimated peak process memory [MiB]                                 319

 -------------------------------------------------------------------------------
 -                                                                             -
 -                         MESSAGE PASSING PERFORMANCE                         -
 -                                                                             -
 -------------------------------------------------------------------------------

 ROUTINE             CALLS      AVE VOLUME [Bytes]
 MP_Group                4
 MP_Bcast               81                 964449.
 MP_Allreduce          575                 102288.
 MP_Sync                10
 MP_Alltoall           174               10117722.
 MP_ISendRecv         1575                  92352.
 MP_Wait              2996
 MP_comm_split           3
 MP_ISend             1276                 213961.
 MP_IRecv             1276                 214043.
 MP_Recv                 5                   3360.
 -------------------------------------------------------------------------------


 -------------------------------------------------------------------------------
 -                                                                             -
 -                           R E F E R E N C E S                               -
 -                                                                             -
 -------------------------------------------------------------------------------
 
 CP2K version 10.0 (Development Version), the CP2K developers group (2022).
 CP2K is freely available from https://www.cp2k.org/ .

 Kuehne,Thomas D.; Iannuzzi,Marcella; Del Ben,Mauro;
 Rybkin,Vladimir V.; Seewald,Patrick; Stein,Frederick; Laino,Teodoro;
 Khaliullin,Rustam Z.; Schuett,Ole; Schiffmann,Florian; Golze,Dorothea;
 Wilhelm,Jan; Chulkov,Sergey; Bani-Hashemian,Mohammad Hossein;
 Weber,Valery; Borstnik,Urban; Taillefumier,Mathieu;
 Jakobovits,Alice Shoshana; Lazzaro,Alfio; Pabst,Hans; Mueller,Tiziano;
 Schade,Robert; Guidon,Manuel; Andermatt,Samuel; Holmberg,Nico;
 Schenter,Gregory K.; Hehn,Anna; Bussy,Augustin; Belleflamme,Fabian;
 Tabacchi,Gloria; Gloess,Andreas; Lass,Michael; Bethune,Iain;
 Mundy,Christopher J.; Plessl,Christian; Watkins,Matt;
 VandeVondele,Joost; Krack,Matthias; Hutter,Juerg. 
 The Journal of Chemical Physics, 152 (19), (2020). 
 CP2K: An electronic structure and molecular dynamics software package -
 Quickstep: Efficient and accurate electronic structure calculations.
 https://doi.org/10.1063/5.0007045

 Schuett, Ole; Messmer, Peter; Hutter, Juerg; VandeVondele, Joost. 
 Electronic Structure Calculations on Graphics Processing Units, John
 Wiley & Sons, Ltd, 173-190 (2016). 
 GPU-Accelerated Sparse Matrix-Matrix Multiplication for
 Linear Scaling Density Functional Theory.
 https://doi.org/10.1002/9781118670712.ch8

 Heinecke, A; Henry, G; Hutchinson, M; Pabst, H. 
 Proceedings of Intl. Supercomputing Conference, 981-991 (2016). 
 LIBXSMM: Accelerating Small Matrix Multiplications
 by Runtime Code Generation.
 https://doi.org/10.1109/SC.2016.83

 Borstnik, U; VandeVondele, J; Weber, V; Hutter, J. 
 PARALLEL COMPUTING, 40 (5-6), 47-58 (2014). 
 Sparse matrix multiplication: The distributed block-compressed sparse
 row library.
 https://doi.org/10.1016/j.parco.2014.03.012

 Hutter, J; Iannuzzi, M; Schiffmann, F; VandeVondele, J. 
 WIREs Comput Mol Sci., 4 (1), 15-25 (2014). 
 CP2K: atomistic simulations of condensed matter systems.
 https://doi.org/10.1002/wcms.1159

 Marek, A; Blum, V; Johanni, R; Havu, V; Lang, B; Auckenthaler, T;
 Heinecke, A; Bungartz, H; Lederer, H. 
 Journal of Physics: Condensed Matter, 26 (21), (2014). 
 The ELPA library: scalable parallel eigenvalue solutions for
 electronic structure
 theory and computational science.
 https://doi.org/10.1088/0953-8984/26/21/213201

 Frigo, M; Johnson, SG. 
 PROCEEDINGS OF THE IEEE, 93 (2), 216-231 (2005). 
 The design and implementation of FFTW3.
 https://doi.org/10.1109/JPROC.2004.840301

 VandeVondele, J; Hutter, J. 
 JOURNAL OF CHEMICAL PHYSICS, 118 (10), 4365-4369 (2003). 
 An efficient orbital transformation method for electronic structure
 calculations.
 https://doi.org/10.1063/1.1543154

 Lippert, G; Hutter, J; Parrinello, M. 
 THEORETICAL CHEMISTRY ACCOUNTS, 103 (2), 124-140 (1999). 
 The Gaussian and augmented-plane-wave density functional method for ab
 initio molecular dynamics simulations.
 https://doi.org/10.1007/s002140050523

 Krack, M; Parrinello, M. 
 PHYSICAL CHEMISTRY CHEMICAL PHYSICS, 2 (10), 2105-2112 (2000). 
 All-electron ab-initio molecular dynamics.
 https://doi.org/10.1039/b001167n

 Perdew, JP; Burke, K; Ernzerhof, M. 
 PHYSICAL REVIEW LETTERS, 77 (18), 3865-3868 (1996). 
 Generalized gradient approximation made simple.
 https://doi.org/10.1103/PhysRevLett.77.3865


 -------------------------------------------------------------------------------
 -                                                                             -
 -                                T I M I N G                                  -
 -                                                                             -
 -------------------------------------------------------------------------------
 SUBROUTINE                       CALLS  ASD         SELF TIME        TOTAL TIME
                                MAXIMUM       AVERAGE  MAXIMUM  AVERAGE  MAXIMUM
 CP2K                                 1  1.0    0.006    0.028    4.222    4.223
 qs_energies                          1  2.0    0.000    0.000    4.086    4.087
 scf_env_do_scf                       1  3.0    0.000    0.000    3.956    3.957
 scf_env_do_scf_inner_loop            7  4.0    0.000    0.000    3.512    3.512
 qs_ks_update_qs_env                  8  5.0    0.000    0.000    3.164    3.164
 rebuild_ks_matrix                    7  6.0    0.000    0.000    3.163    3.163
 qs_ks_build_kohn_sham_matrix         7  7.0    0.001    0.002    3.163    3.163
 pw_transfer                        152 10.1    0.015    0.018    1.364    1.446
 fft_wrap_pw1pw2                    131 11.2    0.002    0.002    1.339    1.420
 fft_wrap_pw1pw2_250                 86 12.6    0.069    0.086    1.250    1.336
 fft3d_ps                           131 13.2    0.493    0.630    1.087    1.178
 qs_vxc_create                        7  8.0    0.000    0.000    1.002    1.003
 xc_vxc_pw_create                     7  9.0    0.007    0.009    1.002    1.003
 rs_pw_transfer                      74  9.4    0.002    0.002    0.891    0.923
 xc_pw_derive                        42 11.0    0.000    0.000    0.701    0.773
 prepare_gapw_den                     7  8.0    0.000    0.000    0.761    0.772
 qs_rho_update_rho                    8  5.0    0.000    0.000    0.749    0.750
 calculate_rho_elec                   8  6.0    0.004    0.005    0.726    0.726
 mp_alltoall_z22v                   131 15.2    0.511    0.715    0.511    0.715
 density_rs2pw                        8  7.0    0.000    0.001    0.581    0.624
 xc_pw_divergence                     7 10.0    0.000    0.000    0.510    0.582
 mp_sum_d                           611  3.3    0.467    0.529    0.467    0.529
 sum_up_and_integrate                 7  8.0    0.003    0.004    0.499    0.503
 integrate_v_rspace                   7  9.0    0.000    0.000    0.497    0.500
 xc_rho_set_and_dset_create           7 10.0    0.007    0.009    0.440    0.493
 yz_to_x                             59 14.0    0.032    0.050    0.343    0.477
 init_scf_loop                        1  4.0    0.000    0.000    0.443    0.444
 potential_pw2rs                      7 10.0    0.000    0.000    0.410    0.411
 rs_pw_transfer_RS2PW_250            15  9.9    0.182    0.219    0.353    0.389
 calculate_rho0_atom                  7  9.0    0.298    0.370    0.298    0.370
 integrate_vhg0_rspace                7  8.0    0.038    0.067    0.334    0.352
 rs_pw_transfer_PW2RS_250            14 11.0    0.173    0.211    0.328    0.349
 mp_waitany                        1276 11.4    0.261    0.341    0.261    0.341
 calculate_vxc_atom                   7  8.0    0.002    0.022    0.314    0.315
 calculate_rho_atom                   7  9.0    0.105    0.299    0.105    0.300
 put_rho0_on_grid                     7  9.0    0.004    0.006    0.280    0.290
 x_to_yz                             57 14.6    0.040    0.053    0.238    0.287
 gaVxcgb_GC                           7  9.0    0.016    0.281    0.016    0.281
 grid_collocate_task_list             8  7.0    0.106    0.217    0.106    0.217
 mp_sum_dv                           31 11.2    0.078    0.209    0.078    0.209
 mp_waitall_1                     11320 13.7    0.152    0.194    0.152    0.194
 xc_functional_eval                  21 10.9    0.000    0.000    0.121    0.167
 pbe_lda_eval                        21 11.9    0.121    0.166    0.121    0.166
 mp_sum_dm                           46  7.6    0.129    0.157    0.129    0.157
 pw_gather_p                         67 12.8    0.088    0.124    0.088    0.124
 pw_scatter_p                        64 13.6    0.090    0.121    0.090    0.121
 dbcsr_multiply_generic             150  9.9    0.004    0.004    0.111    0.113
 qs_scf_new_mos                       7  5.0    0.000    0.000    0.102    0.103
 qs_scf_loop_do_ot                    7  6.0    0.000    0.000    0.102    0.103
 init_scf_run                         1  3.0    0.000    0.000    0.102    0.102
 scf_env_initial_rho_setup            1  4.0    0.000    0.000    0.102    0.102
 rs_pw_transfer_PW2RS_90              7 12.0    0.019    0.024    0.080    0.098
 ot_scf_mini                          7  7.0    0.000    0.000    0.097    0.097
 mp_alltoall_d11v                   183 10.7    0.080    0.091    0.080    0.091
 qs_init_subsys                       1  2.0    0.002    0.002    0.089    0.089
 rs_gather_matrices                   7 10.0    0.000    0.001    0.074    0.086
 grid_integrate_task_list             7 10.0    0.012    0.086    0.012    0.086
 -------------------------------------------------------------------------------

 The number of warnings for this run is : 0
 
 -------------------------------------------------------------------------------
  **** **** ******  **  PROGRAM ENDED AT                 2022-07-03 18:35:54.271
 ***** ** ***  *** **   PROGRAM RAN ON                                   tcopt10
 **    ****   ******    PROGRAM RAN BY                                    hutter
 ***** **    ** ** **   PROGRAM PROCESS ID                                 24264
  **** **  *******  **  PROGRAM STOPPED IN /data/hutter/GITHUB/BASIS/scMOLOPT/PB
                                           E/noble
