 DBCSR| CPU Multiplication driver                                           XSMM
 DBCSR| Multrec recursion limit                                              512
 DBCSR| Multiplication stack size                                           1000
 DBCSR| Maximum elements for images                                    UNLIMITED
 DBCSR| Multiplicative factor virtual images                                   1
 DBCSR| Use multiplication densification                                       T
 DBCSR| Multiplication size stacks                                             3
 DBCSR| Use memory pool for CPU allocation                                     F
 DBCSR| Number of 3D layers                                               SINGLE
 DBCSR| Use MPI memory allocation                                              F
 DBCSR| Use RMA algorithm                                                      F
 DBCSR| Use Communication thread                                               T
 DBCSR| Communication thread load                                             87
 DBCSR| MPI: My node id                                                        0
 DBCSR| MPI: Number of nodes                                                  36
 DBCSR| OMP: Current number of threads                                         1
 DBCSR| OMP: Max number of threads                                             1
 DBCSR| Split modifier for TAS multiplication algorithm                  1.0E+00


  **** **** ******  **  PROGRAM STARTED AT               2022-07-03 18:36:26.147
 ***** ** ***  *** **   PROGRAM STARTED ON                               tcopt10
 **    ****   ******    PROGRAM STARTED BY                                hutter
 ***** **    ** ** **   PROGRAM PROCESS ID                                 24544
  **** **  *******  **  PROGRAM STARTED IN /data/hutter/GITHUB/BASIS/scMOLOPT/PB
                                           E/noble

 CP2K| version string:                   CP2K version 10.0 (Development Version)
 CP2K| source code revision number:                                  git:d19b00a
 CP2K| cp2kflags: omp libint fftw3 libxc elpa parallel mpi3 scalapack cosma xsmm
 CP2K|             spglib sirius libvori libbqb
 CP2K| is freely available from                            https://www.cp2k.org/
 CP2K| Program compiled at                      Wed 18 May 2022 12:15:59 PM CEST
 CP2K| Program compiled on                                               tcopt10
 CP2K| Program compiled for                                                local
 CP2K| Data directory path                   /data/hutter/GITHUB/TDLRI/cp2k/data
 CP2K| Input file name                                               He2-ref.inp

 GLOBAL| Force Environment number                                              1
 GLOBAL| Basis set file name                                        ../def2QZVPP
 GLOBAL| Potential file name                                        ../POTENTIAL
 GLOBAL| MM Potential file name                                     MM_POTENTIAL
 GLOBAL| Coordinate file name                                      __STD_INPUT__
 GLOBAL| Method name                                                        CP2K
 GLOBAL| Project name                                                     refHe2
 GLOBAL| Run type                                                         ENERGY
 GLOBAL| FFT library                                                       FFTW3
 GLOBAL| Diagonalization library                                            ELPA
 GLOBAL| Minimum number of eigenvectors for ELPA usage                        16
 GLOBAL| Orthonormality check for eigenvectors                          DISABLED
 GLOBAL| Matrix multiplication library                                     COSMA
 GLOBAL| All-to-all communication in single precision                          F
 GLOBAL| FFTs using library dependent lengths                                  F
 GLOBAL| Grid backend                                                       AUTO
 GLOBAL| Global print level                                                  LOW
 GLOBAL| MPI I/O enabled                                                       T
 GLOBAL| Total number of message passing processes                            36
 GLOBAL| Number of threads for this process                                    1
 GLOBAL| This output is from process                                           0
 GLOBAL| Stack size for threads created by OpenMP (OMP_STACKSIZE)        default
 GLOBAL| CPU model name                          AMD EPYC 7401 24-Core Processor
 GLOBAL| CPUID                                                              1002

 MEMORY| system memory details [Kb]
 MEMORY|                        rank 0           min           max       average
 MEMORY| MemTotal            263969132     263969132     263969132     263969132
 MEMORY| MemFree             204635296     204635296     204635296     204635296
 MEMORY| Buffers                   156           156           156           156
 MEMORY| Cached               52527280      52527276      52527280      52527276
 MEMORY| Slab                  2021276       2021276       2021276       2021276
 MEMORY| SReclaimable          1140728       1140728       1140728       1140728
 MEMORY| MemLikelyFree       258303460     258303456     258303460     258303456


 GENERATE|  Preliminary Number of Bonds generated:                             0
 GENERATE|  Achieved consistency in connectivity generation.

 *******************************************************************************
 *******************************************************************************
 **                                                                           **
 **     #####                         ##              ##                      **
 **    ##   ##            ##          ##              ##                      **
 **   ##     ##                       ##            ######                    **
 **   ##     ##  ##   ##  ##   #####  ##  ##   ####   ##    #####    #####    **
 **   ##     ##  ##   ##  ##  ##      ## ##   ##      ##   ##   ##  ##   ##   **
 **   ##  ## ##  ##   ##  ##  ##      ####     ###    ##   ######   ######    **
 **    ##  ###   ##   ##  ##  ##      ## ##      ##   ##   ##       ##        **
 **     #######   #####   ##   #####  ##  ##  ####    ##    #####   ##        **
 **           ##                                                    ##        **
 **                                                                           **
 **                                                ... make the atoms dance   **
 **                                                                           **
 **            Copyright (C) by CP2K developers group (2000-2022)             **
 **                      J. Chem. Phys. 152, 194103 (2020)                    **
 **                                                                           **
 *******************************************************************************


 TOTAL NUMBERS AND MAXIMUM NUMBERS

  Total number of            - Atomic kinds:                                   1
                             - Atoms:                                          2
                             - Shell sets:                                    20
                             - Shells:                                        20
                             - Primitive Cartesian functions:                 28
                             - Cartesian basis functions:                     70
                             - Spherical basis functions:                     60

  Maximum angular momentum of the orbital basis functions:                     3


 SCF PARAMETERS         Density guess:                                    ATOMIC
                        --------------------------------------------------------
                        max_scf:                                              10
                        max_scf_history:                                       0
                        max_diis:                                              4
                        --------------------------------------------------------
                        eps_scf:                                        1.00E-07
                        eps_scf_history:                                0.00E+00
                        eps_diis:                                       1.00E-01
                        eps_eigval:                                     1.00E-05
                        --------------------------------------------------------
                        level_shift [a.u.]:                             0.000000
                        --------------------------------------------------------
                        Outer loop SCF in use 
                        No variables optimised in outer loop
                        eps_scf                                         1.00E-07
                        max_scf                                               10
                        No outer loop optimization
                        step_size                                       5.00E-01

 Number of electrons:                                                          4
 Number of occupied orbitals:                                                  2
 Number of molecular orbitals:                                                 2

 Number of orbital functions:                                                 60
 Number of independent orbital functions:                                     60

 Extrapolation method: initial_guess


 SCF WAVEFUNCTION OPTIMIZATION

  ----------------------------------- OT ---------------------------------------
  Minimizer      : DIIS                : direct inversion
                                         in the iterative subspace
                                         using   7 DIIS vectors
                                         safer DIIS on
  Preconditioner : FULL_ALL            : diagonalization, state selective
  Precond_solver : DEFAULT
  stepsize       :    0.15000000                  energy_gap     :    0.08000000
  eps_taylor     :   0.10000E-15                  max_taylor     :             4
  ----------------------------------- OT ---------------------------------------

  Step     Update method      Time    Convergence         Total energy    Change
  ------------------------------------------------------------------------------
     1 OT DIIS     0.15E+00    0.3     0.01148128        -5.7842845722 -5.78E+00
     2 OT DIIS     0.15E+00    0.5     0.00226556        -5.7856795833 -1.40E-03
     3 OT DIIS     0.15E+00    0.5     0.00048080        -5.7857429685 -6.34E-05
     4 OT DIIS     0.15E+00    0.4     0.00000311        -5.7857464487 -3.48E-06
     5 OT DIIS     0.15E+00    0.4     0.00000042        -5.7857464488 -1.39E-10
     6 OT DIIS     0.15E+00    0.4     0.00000003        -5.7857464488 -2.52E-12

  *** SCF run converged in     6 steps ***


  Electronic density on regular grids:         -3.7720118214        0.2279881786
  Core density on regular grids:                4.0000000000       -0.0000000000
  Hard and soft densities (Lebedev):           -4.0007193909       -3.7727312091
  Total Rho_soft + Rho1_hard - Rho1_soft       -4.0000000032
  Total charge density (r-space):              -0.0000000032
  Total Rho_soft + Rho0_soft (g-space):        -0.0000000396

  Overlap energy of the core charge distribution:               0.00000000000000
  Self energy of the core charge distribution:                -11.28379167095513
  Core Hamiltonian energy:                                      3.95040534871716
  Hartree energy:                                               1.51919609803119
  Exchange-correlation energy:                                 -1.82908209762787

  GAPW| Exc from hard and soft atomic rho1:                    -0.26456842472766
  GAPW| local Eh = 1 center integrals:                          2.12209429773238

  Total energy:                                                -5.78574644882992

  outer SCF iter =    1 RMS gradient =   0.32E-07 energy =         -5.7857464488
  outer SCF loop converged in   1 iterations or    6 steps


 ENERGY| Total FORCE_EVAL ( QS ) energy [a.u.]:               -5.785746448829919

 -------------------------------------------------------------------------------
 -                                                                             -
 -                                DBCSR STATISTICS                             -
 -                                                                             -
 -------------------------------------------------------------------------------
 COUNTER                                    TOTAL       BLAS       SMM       ACC
 flops     2 x     2 x     2                  928       0.0%    100.0%      0.0%
 flops     2 x     2 x    30                12000       0.0%    100.0%      0.0%
 flops    30 x     2 x     2                14880       0.0%    100.0%      0.0%
 flops    30 x    30 x     2                75600       0.0%    100.0%      0.0%
 flops    30 x     2 x    30               489600       0.0%    100.0%      0.0%
 flops inhomo. stacks                           0       0.0%      0.0%      0.0%
 flops total                       593.008000E+03       0.0%    100.0%      0.0%
 flops max/rank                    290.368000E+03       0.0%    100.0%      0.0%
 matmuls inhomo. stacks                         0       0.0%      0.0%      0.0%
 matmuls total                                327       0.0%    100.0%      0.0%
 number of processed stacks                   327       0.0%    100.0%      0.0%
 average stack size                                     0.0       1.0       0.0
 marketing flops                   618.687500E+03
 -------------------------------------------------------------------------------
 # multiplications                            156
 max memory usage/rank             264.417280E+06
 # max total images/rank                        1
 # max 3D layers                                1
 # MPI messages exchanged                   56160
 MPI messages size (bytes):
  total size                         5.538720E+06
  min size                           0.000000E+00
  max size                           7.200000E+03
  average size                      98.623932E+00
 MPI breakdown and total messages size (bytes):
             size <=      128               54190                    23520
       128 < size <=     8192                1970                  5515200
      8192 < size <=    32768                   0                        0
     32768 < size <=   131072                   0                        0
    131072 < size <=  4194304                   0                        0
   4194304 < size <= 16777216                   0                        0
  16777216 < size                               0                        0
 -------------------------------------------------------------------------------
 -                                                                             -
 -                      DBCSR MESSAGE PASSING PERFORMANCE                      -
 -                                                                             -
 -------------------------------------------------------------------------------
 ROUTINE             CALLS      AVE VOLUME [Bytes]
 MP_Bcast                6                     12.
 MP_Allreduce          826                      9.
 MP_Alltoall           660                   2147.
 MP_ISend             3740                    216.
 MP_IRecv             3740                    132.
 -------------------------------------------------------------------------------

 -------------------------------------------------------------------------------
 -                                                                             -
 -                                GRID STATISTICS                              -
 -                                                                             -
 -------------------------------------------------------------------------------
 LP    KERNEL             BACKEND                              COUNT     PERCENT
 2     collocate general  REF                                    432      11.02%
 2     integrate general  REF                                    432      11.02%
 2     collocate ortho    REF                                    406      10.36%
 2     integrate ortho    REF                                    348       8.88%
 1     collocate ortho    REF                                    336       8.57%
 0     collocate ortho    REF                                    329       8.39%
 3     collocate ortho    REF                                    322       8.22%
 1     integrate ortho    REF                                    288       7.35%
 0     integrate ortho    REF                                    282       7.20%
 3     integrate ortho    REF                                    276       7.04%
 4     collocate ortho    REF                                    161       4.11%
 4     integrate ortho    REF                                    138       3.52%
 5     collocate ortho    REF                                     70       1.79%
 5     integrate ortho    REF                                     60       1.53%
 6     collocate ortho    REF                                     21       0.54%
 6     integrate ortho    REF                                     18       0.46%
 -------------------------------------------------------------------------------

 MEMORY| Estimated peak process memory [MiB]                                 266

 -------------------------------------------------------------------------------
 -                                                                             -
 -                         MESSAGE PASSING PERFORMANCE                         -
 -                                                                             -
 -------------------------------------------------------------------------------

 ROUTINE             CALLS      AVE VOLUME [Bytes]
 MP_Group                4
 MP_Bcast               71                1068483.
 MP_Allreduce          554                   5774.
 MP_Sync                10
 MP_Alltoall           152               17124047.
 MP_ISendRecv         1365                  92352.
 MP_Wait              2590
 MP_comm_split           3
 MP_ISend             1100                 204058.
 MP_IRecv             1100                 204153.
 MP_Recv                 1                    480.
 -------------------------------------------------------------------------------


 -------------------------------------------------------------------------------
 -                                                                             -
 -                           R E F E R E N C E S                               -
 -                                                                             -
 -------------------------------------------------------------------------------
 
 CP2K version 10.0 (Development Version), the CP2K developers group (2022).
 CP2K is freely available from https://www.cp2k.org/ .

 Kuehne,Thomas D.; Iannuzzi,Marcella; Del Ben,Mauro;
 Rybkin,Vladimir V.; Seewald,Patrick; Stein,Frederick; Laino,Teodoro;
 Khaliullin,Rustam Z.; Schuett,Ole; Schiffmann,Florian; Golze,Dorothea;
 Wilhelm,Jan; Chulkov,Sergey; Bani-Hashemian,Mohammad Hossein;
 Weber,Valery; Borstnik,Urban; Taillefumier,Mathieu;
 Jakobovits,Alice Shoshana; Lazzaro,Alfio; Pabst,Hans; Mueller,Tiziano;
 Schade,Robert; Guidon,Manuel; Andermatt,Samuel; Holmberg,Nico;
 Schenter,Gregory K.; Hehn,Anna; Bussy,Augustin; Belleflamme,Fabian;
 Tabacchi,Gloria; Gloess,Andreas; Lass,Michael; Bethune,Iain;
 Mundy,Christopher J.; Plessl,Christian; Watkins,Matt;
 VandeVondele,Joost; Krack,Matthias; Hutter,Juerg. 
 The Journal of Chemical Physics, 152 (19), (2020). 
 CP2K: An electronic structure and molecular dynamics software package -
 Quickstep: Efficient and accurate electronic structure calculations.
 https://doi.org/10.1063/5.0007045

 Schuett, Ole; Messmer, Peter; Hutter, Juerg; VandeVondele, Joost. 
 Electronic Structure Calculations on Graphics Processing Units, John
 Wiley & Sons, Ltd, 173-190 (2016). 
 GPU-Accelerated Sparse Matrix-Matrix Multiplication for
 Linear Scaling Density Functional Theory.
 https://doi.org/10.1002/9781118670712.ch8

 Heinecke, A; Henry, G; Hutchinson, M; Pabst, H. 
 Proceedings of Intl. Supercomputing Conference, 981-991 (2016). 
 LIBXSMM: Accelerating Small Matrix Multiplications
 by Runtime Code Generation.
 https://doi.org/10.1109/SC.2016.83

 Borstnik, U; VandeVondele, J; Weber, V; Hutter, J. 
 PARALLEL COMPUTING, 40 (5-6), 47-58 (2014). 
 Sparse matrix multiplication: The distributed block-compressed sparse
 row library.
 https://doi.org/10.1016/j.parco.2014.03.012

 Hutter, J; Iannuzzi, M; Schiffmann, F; VandeVondele, J. 
 WIREs Comput Mol Sci., 4 (1), 15-25 (2014). 
 CP2K: atomistic simulations of condensed matter systems.
 https://doi.org/10.1002/wcms.1159

 Marek, A; Blum, V; Johanni, R; Havu, V; Lang, B; Auckenthaler, T;
 Heinecke, A; Bungartz, H; Lederer, H. 
 Journal of Physics: Condensed Matter, 26 (21), (2014). 
 The ELPA library: scalable parallel eigenvalue solutions for
 electronic structure
 theory and computational science.
 https://doi.org/10.1088/0953-8984/26/21/213201

 Frigo, M; Johnson, SG. 
 PROCEEDINGS OF THE IEEE, 93 (2), 216-231 (2005). 
 The design and implementation of FFTW3.
 https://doi.org/10.1109/JPROC.2004.840301

 VandeVondele, J; Hutter, J. 
 JOURNAL OF CHEMICAL PHYSICS, 118 (10), 4365-4369 (2003). 
 An efficient orbital transformation method for electronic structure
 calculations.
 https://doi.org/10.1063/1.1543154

 Lippert, G; Hutter, J; Parrinello, M. 
 THEORETICAL CHEMISTRY ACCOUNTS, 103 (2), 124-140 (1999). 
 The Gaussian and augmented-plane-wave density functional method for ab
 initio molecular dynamics simulations.
 https://doi.org/10.1007/s002140050523

 Krack, M; Parrinello, M. 
 PHYSICAL CHEMISTRY CHEMICAL PHYSICS, 2 (10), 2105-2112 (2000). 
 All-electron ab-initio molecular dynamics.
 https://doi.org/10.1039/b001167n

 Perdew, JP; Burke, K; Ernzerhof, M. 
 PHYSICAL REVIEW LETTERS, 77 (18), 3865-3868 (1996). 
 Generalized gradient approximation made simple.
 https://doi.org/10.1103/PhysRevLett.77.3865


 -------------------------------------------------------------------------------
 -                                                                             -
 -                                T I M I N G                                  -
 -                                                                             -
 -------------------------------------------------------------------------------
 SUBROUTINE                       CALLS  ASD         SELF TIME        TOTAL TIME
                                MAXIMUM       AVERAGE  MAXIMUM  AVERAGE  MAXIMUM
 CP2K                                 1  1.0    0.006    0.032    2.883    2.884
 qs_energies                          1  2.0    0.000    0.000    2.773    2.773
 scf_env_do_scf                       1  3.0    0.000    0.000    2.668    2.668
 scf_env_do_scf_inner_loop            6  4.0    0.000    0.000    2.347    2.347
 qs_ks_update_qs_env                  7  5.0    0.000    0.000    1.979    1.979
 rebuild_ks_matrix                    6  6.0    0.000    0.000    1.979    1.979
 qs_ks_build_kohn_sham_matrix         6  7.0    0.001    0.001    1.979    1.979
 pw_transfer                        131 10.1    0.012    0.015    1.223    1.296
 fft_wrap_pw1pw2                    113 11.2    0.001    0.002    1.202    1.276
 fft_wrap_pw1pw2_250                 74 12.6    0.065    0.085    1.130    1.203
 fft3d_ps                           113 13.2    0.465    0.593    0.975    1.058
 qs_vxc_create                        6  8.0    0.000    0.000    0.840    0.840
 xc_vxc_pw_create                     6  9.0    0.006    0.008    0.839    0.839
 rs_pw_transfer                      64  9.4    0.001    0.002    0.790    0.809
 xc_pw_derive                        36 11.0    0.000    0.000    0.636    0.699
 qs_rho_update_rho                    7  5.0    0.000    0.000    0.643    0.644
 calculate_rho_elec                   7  6.0    0.004    0.004    0.639    0.639
 mp_alltoall_z22v                   113 15.2    0.425    0.571    0.425    0.571
 density_rs2pw                        7  7.0    0.000    0.000    0.517    0.538
 xc_pw_divergence                     6 10.0    0.000    0.000    0.453    0.512
 sum_up_and_integrate                 6  8.0    0.002    0.004    0.446    0.447
 integrate_v_rspace                   6  9.0    0.000    0.000    0.443    0.445
 xc_rho_set_and_dset_create           6 10.0    0.006    0.008    0.353    0.408
 yz_to_x                             51 14.0    0.033    0.052    0.303    0.403
 potential_pw2rs                      6 10.0    0.000    0.000    0.375    0.375
 rs_pw_transfer_RS2PW_250            13  9.9    0.161    0.196    0.310    0.326
 init_scf_loop                        1  4.0    0.000    0.000    0.320    0.320
 rs_pw_transfer_PW2RS_250            12 11.0    0.147    0.172    0.274    0.289
 mp_waitany                        1100 11.4    0.223    0.281    0.223    0.281
 prepare_gapw_den                     6  8.0    0.000    0.000    0.271    0.279
 put_rho0_on_grid                     6  9.0    0.004    0.005    0.244    0.252
 x_to_yz                             49 14.6    0.043    0.060    0.197    0.234
 mp_sum_d                           587  3.0    0.165    0.205    0.165    0.205
 integrate_vhg0_rspace                6  8.0    0.005    0.006    0.195    0.199
 mp_waitall_1                     11474 13.9    0.146    0.188    0.146    0.188
 grid_collocate_task_list             7  7.0    0.086    0.176    0.086    0.176
 dbcsr_multiply_generic             156 10.0    0.004    0.004    0.119    0.119
 qs_scf_new_mos                       6  5.0    0.000    0.000    0.112    0.113
 qs_scf_loop_do_ot                    6  6.0    0.000    0.000    0.112    0.113
 xc_functional_eval                  18 10.9    0.000    0.000    0.059    0.111
 pbe_lda_eval                        18 11.9    0.059    0.111    0.059    0.111
 ot_scf_mini                          6  7.0    0.000    0.000    0.108    0.108
 init_scf_run                         1  3.0    0.000    0.000    0.102    0.102
 scf_env_initial_rho_setup            1  4.0    0.000    0.000    0.102    0.102
 rs_pw_transfer_PW2RS_90              6 12.0    0.018    0.022    0.083    0.097
 pw_gather_p                         58 12.8    0.077    0.097    0.077    0.097
 pw_scatter_p                        55 13.6    0.081    0.091    0.081    0.091
 ot_mini                              6  8.0    0.000    0.000    0.079    0.079
 mp_alltoall_d11v                   175 10.6    0.070    0.073    0.070    0.073
 rs_gather_matrices                   6 10.0    0.000    0.000    0.065    0.069
 grid_integrate_task_list             6 10.0    0.003    0.068    0.003    0.068
 qs_ot_get_derivative                 6  9.0    0.000    0.000    0.068    0.068
 rs_pw_transfer_RS2PW_90              7  9.0    0.020    0.024    0.064    0.067
 fft_wrap_pw1pw2_90                  13 11.4    0.002    0.003    0.053    0.066
 rs_grid_zero                        24 10.8    0.058    0.066    0.058    0.066
 qs_init_subsys                       1  2.0    0.001    0.002    0.060    0.060
 -------------------------------------------------------------------------------

 The number of warnings for this run is : 0
 
 -------------------------------------------------------------------------------
  **** **** ******  **  PROGRAM ENDED AT                 2022-07-03 18:36:29.424
 ***** ** ***  *** **   PROGRAM RAN ON                                   tcopt10
 **    ****   ******    PROGRAM RAN BY                                    hutter
 ***** **    ** ** **   PROGRAM PROCESS ID                                 24544
  **** **  *******  **  PROGRAM STOPPED IN /data/hutter/GITHUB/BASIS/scMOLOPT/PB
                                           E/noble
