 DBCSR| CPU Multiplication driver                                           XSMM
 DBCSR| Multrec recursion limit                                              512
 DBCSR| Multiplication stack size                                           1000
 DBCSR| Maximum elements for images                                    UNLIMITED
 DBCSR| Multiplicative factor virtual images                                   1
 DBCSR| Use multiplication densification                                       T
 DBCSR| Multiplication size stacks                                             3
 DBCSR| Use memory pool for CPU allocation                                     F
 DBCSR| Number of 3D layers                                               SINGLE
 DBCSR| Use MPI memory allocation                                              F
 DBCSR| Use RMA algorithm                                                      F
 DBCSR| Use Communication thread                                               T
 DBCSR| Communication thread load                                             87
 DBCSR| MPI: My node id                                                        0
 DBCSR| MPI: Number of nodes                                                  36
 DBCSR| OMP: Current number of threads                                         1
 DBCSR| OMP: Max number of threads                                             1
 DBCSR| Split modifier for TAS multiplication algorithm                  1.0E+00


  **** **** ******  **  PROGRAM STARTED AT               2022-07-03 18:37:47.005
 ***** ** ***  *** **   PROGRAM STARTED ON                               tcopt10
 **    ****   ******    PROGRAM STARTED BY                                hutter
 ***** **    ** ** **   PROGRAM PROCESS ID                                 25122
  **** **  *******  **  PROGRAM STARTED IN /data/hutter/GITHUB/BASIS/scMOLOPT/PB
                                           E/noble

 CP2K| version string:                   CP2K version 10.0 (Development Version)
 CP2K| source code revision number:                                  git:d19b00a
 CP2K| cp2kflags: omp libint fftw3 libxc elpa parallel mpi3 scalapack cosma xsmm
 CP2K|             spglib sirius libvori libbqb
 CP2K| is freely available from                            https://www.cp2k.org/
 CP2K| Program compiled at                      Wed 18 May 2022 12:15:59 PM CEST
 CP2K| Program compiled on                                               tcopt10
 CP2K| Program compiled for                                                local
 CP2K| Data directory path                   /data/hutter/GITHUB/TDLRI/cp2k/data
 CP2K| Input file name                                                Kr-ref.inp

 GLOBAL| Force Environment number                                              1
 GLOBAL| Basis set file name                                        ../def2QZVPP
 GLOBAL| Potential file name                                        ../POTENTIAL
 GLOBAL| MM Potential file name                                     MM_POTENTIAL
 GLOBAL| Coordinate file name                                      __STD_INPUT__
 GLOBAL| Method name                                                        CP2K
 GLOBAL| Project name                                                      refKr
 GLOBAL| Run type                                                         ENERGY
 GLOBAL| FFT library                                                       FFTW3
 GLOBAL| Diagonalization library                                            ELPA
 GLOBAL| Minimum number of eigenvectors for ELPA usage                        16
 GLOBAL| Orthonormality check for eigenvectors                          DISABLED
 GLOBAL| Matrix multiplication library                                     COSMA
 GLOBAL| All-to-all communication in single precision                          F
 GLOBAL| FFTs using library dependent lengths                                  F
 GLOBAL| Grid backend                                                       AUTO
 GLOBAL| Global print level                                                  LOW
 GLOBAL| MPI I/O enabled                                                       T
 GLOBAL| Total number of message passing processes                            36
 GLOBAL| Number of threads for this process                                    1
 GLOBAL| This output is from process                                           0
 GLOBAL| Stack size for threads created by OpenMP (OMP_STACKSIZE)        default
 GLOBAL| CPU model name                          AMD EPYC 7401 24-Core Processor
 GLOBAL| CPUID                                                              1002

 MEMORY| system memory details [Kb]
 MEMORY|                        rank 0           min           max       average
 MEMORY| MemTotal            263969132     263969132     263969132     263969132
 MEMORY| MemFree             204586688     204586688     204586688     204586688
 MEMORY| Buffers                   156           156           156           156
 MEMORY| Cached               52527272      52527268      52527272      52527268
 MEMORY| Slab                  2020756       2020756       2020756       2020756
 MEMORY| SReclaimable          1139604       1139604       1139604       1139604
 MEMORY| MemLikelyFree       258253720     258253716     258253720     258253716


 GENERATE|  Preliminary Number of Bonds generated:                             0
 GENERATE|  Achieved consistency in connectivity generation.

 *******************************************************************************
 *******************************************************************************
 **                                                                           **
 **     #####                         ##              ##                      **
 **    ##   ##            ##          ##              ##                      **
 **   ##     ##                       ##            ######                    **
 **   ##     ##  ##   ##  ##   #####  ##  ##   ####   ##    #####    #####    **
 **   ##     ##  ##   ##  ##  ##      ## ##   ##      ##   ##   ##  ##   ##   **
 **   ##  ## ##  ##   ##  ##  ##      ####     ###    ##   ######   ######    **
 **    ##  ###   ##   ##  ##  ##      ## ##      ##   ##   ##       ##        **
 **     #######   #####   ##   #####  ##  ##  ####    ##    #####   ##        **
 **           ##                                                    ##        **
 **                                                                           **
 **                                                ... make the atoms dance   **
 **                                                                           **
 **            Copyright (C) by CP2K developers group (2000-2022)             **
 **                      J. Chem. Phys. 152, 194103 (2020)                    **
 **                                                                           **
 *******************************************************************************


 TOTAL NUMBERS AND MAXIMUM NUMBERS

  Total number of            - Atomic kinds:                                   1
                             - Atoms:                                          1
                             - Shell sets:                                    27
                             - Shells:                                        27
                             - Primitive Cartesian functions:                 59
                             - Cartesian basis functions:                    111
                             - Spherical basis functions:                     89

  Maximum angular momentum of the orbital basis functions:                     4


 SCF PARAMETERS         Density guess:                                    ATOMIC
                        --------------------------------------------------------
                        max_scf:                                              10
                        max_scf_history:                                       0
                        max_diis:                                              4
                        --------------------------------------------------------
                        eps_scf:                                        1.00E-07
                        eps_scf_history:                                0.00E+00
                        eps_diis:                                       1.00E-01
                        eps_eigval:                                     1.00E-05
                        --------------------------------------------------------
                        level_shift [a.u.]:                             0.000000
                        --------------------------------------------------------
                        Outer loop SCF in use 
                        No variables optimised in outer loop
                        eps_scf                                         1.00E-07
                        max_scf                                               10
                        No outer loop optimization
                        step_size                                       5.00E-01

 Number of electrons:                                                         36
 Number of occupied orbitals:                                                 18
 Number of molecular orbitals:                                                18

 Number of orbital functions:                                                 89
 Number of independent orbital functions:                                     89

 Extrapolation method: initial_guess


 SCF WAVEFUNCTION OPTIMIZATION

  ----------------------------------- OT ---------------------------------------
  Minimizer      : DIIS                : direct inversion
                                         in the iterative subspace
                                         using   7 DIIS vectors
                                         safer DIIS on
  Preconditioner : FULL_ALL            : diagonalization, state selective
  Precond_solver : DEFAULT
  stepsize       :    0.15000000                  energy_gap     :    0.08000000
  eps_taylor     :   0.10000E-15                  max_taylor     :             4
  ----------------------------------- OT ---------------------------------------

  Step     Update method      Time    Convergence         Total energy    Change
  ------------------------------------------------------------------------------
     1 OT DIIS     0.15E+00    0.8     0.00436040     -2753.4044473305 -2.75E+03
     2 OT DIIS     0.15E+00    0.9     0.00160961     -2753.4075147636 -3.07E-03
     3 OT DIIS     0.15E+00    0.9     0.00023367     -2753.4080130832 -4.98E-04
     4 OT DIIS     0.15E+00    0.9     0.00003467     -2753.4080214658 -8.38E-06
     5 OT DIIS     0.15E+00    0.9     0.00000836     -2753.4080216184 -1.53E-07
     6 OT DIIS     0.15E+00    0.9     0.00000038     -2753.4080216317 -1.33E-08
     7 OT DIIS     0.15E+00    0.9     7.7941E-09     -2753.4080216317 -1.64E-11

  *** SCF run converged in     7 steps ***


  Electronic density on regular grids:        -13.3162003653       22.6837996347
  Core density on regular grids:               36.0000000000        0.0000000000
  Hard and soft densities (Lebedev):          -35.9999780549      -13.3162003657
  Total Rho_soft + Rho1_hard - Rho1_soft      -35.9999780545
  Total charge density (r-space):               0.0000219455
  Total Rho_soft + Rho0_soft (g-space):        -0.0000001292

  Overlap energy of the core charge distribution:               0.00000000000000
  Self energy of the core charge distribution:               -731.18970027789226
  Core Hamiltonian energy:                                  -2234.96045652858766
  Hartree energy:                                              71.21559060772788
  Exchange-correlation energy:                                 -8.07527586175335

  GAPW| Exc from hard and soft atomic rho1:                   -87.02674608754648
  GAPW| local Eh = 1 center integrals:                        236.62856651630221

  Total energy:                                             -2753.40802163174976

  outer SCF iter =    1 RMS gradient =   0.78E-08 energy =      -2753.4080216317
  outer SCF loop converged in   1 iterations or    7 steps


 ENERGY| Total FORCE_EVAL ( QS ) energy [a.u.]:            -2753.408021631749762

 -------------------------------------------------------------------------------
 -                                                                             -
 -                                DBCSR STATISTICS                             -
 -                                                                             -
 -------------------------------------------------------------------------------
 COUNTER                                    TOTAL       BLAS       SMM       ACC
 flops    18 x    18 x    18               443232       0.0%    100.0%      0.0%
 flops    18 x    18 x    89              1672488       0.0%    100.0%      0.0%
 flops    89 x    18 x    18              2076192       0.0%    100.0%      0.0%
 flops    89 x    89 x    18              2281248       0.0%    100.0%      0.0%
 flops    89 x    18 x    89             10835928       0.0%    100.0%      0.0%
 flops inhomo. stacks                           0       0.0%      0.0%      0.0%
 flops total                        17.309088E+06       0.0%    100.0%      0.0%
 flops max/rank                     17.309088E+06       0.0%    100.0%      0.0%
 matmuls inhomo. stacks                         0       0.0%      0.0%      0.0%
 matmuls total                                149       0.0%    100.0%      0.0%
 number of processed stacks                   149       0.0%    100.0%      0.0%
 average stack size                                     0.0       1.0       0.0
 marketing flops                    17.366760E+06
 -------------------------------------------------------------------------------
 # multiplications                            150
 max memory usage/rank             521.711616E+06
 # max total images/rank                        1
 # max 3D layers                                1
 # MPI messages exchanged                   54000
 MPI messages size (bytes):
  total size                        22.975280E+06
  min size                           0.000000E+00
  max size                          63.368000E+03
  average size                     425.468140E+00
 MPI breakdown and total messages size (bytes):
             size <=      128               52510                        0
       128 < size <=     8192                 560                  1451520
      8192 < size <=    32768                 740                  9483840
     32768 < size <=   131072                 190                 12039920
    131072 < size <=  4194304                   0                        0
   4194304 < size <= 16777216                   0                        0
  16777216 < size                               0                        0
 -------------------------------------------------------------------------------
 -                                                                             -
 -                      DBCSR MESSAGE PASSING PERFORMANCE                      -
 -                                                                             -
 -------------------------------------------------------------------------------
 ROUTINE             CALLS      AVE VOLUME [Bytes]
 MP_Bcast                6                     12.
 MP_Allreduce          805                      9.
 MP_Alltoall           662                   4501.
 MP_ISend             3596                   1334.
 MP_IRecv             3596                     55.
 -------------------------------------------------------------------------------

 -------------------------------------------------------------------------------
 -                                                                             -
 -                                GRID STATISTICS                              -
 -                                                                             -
 -------------------------------------------------------------------------------
 LP    KERNEL             BACKEND                              COUNT     PERCENT
 3     collocate ortho    REF                                    512      10.02%
 2     collocate ortho    REF                                    504       9.86%
 3     integrate ortho    REF                                    448       8.77%
 2     integrate ortho    REF                                    441       8.63%
 4     collocate ortho    REF                                    432       8.46%
 1     collocate ortho    REF                                    416       8.14%
 4     integrate ortho    REF                                    378       7.40%
 1     integrate ortho    REF                                    364       7.12%
 5     collocate ortho    REF                                    272       5.32%
 2     collocate general  REF                                    252       4.93%
 2     integrate general  REF                                    252       4.93%
 5     integrate ortho    REF                                    238       4.66%
 6     collocate ortho    REF                                    136       2.66%
 0     collocate ortho    REF                                    128       2.51%
 6     integrate ortho    REF                                    119       2.33%
 0     integrate ortho    REF                                    112       2.19%
 7     collocate ortho    REF                                     48       0.94%
 7     integrate ortho    REF                                     42       0.82%
 8     collocate ortho    REF                                      8       0.16%
 8     integrate ortho    REF                                      7       0.14%
 -------------------------------------------------------------------------------

 MEMORY| Estimated peak process memory [MiB]                                 513

 -------------------------------------------------------------------------------
 -                                                                             -
 -                         MESSAGE PASSING PERFORMANCE                         -
 -                                                                             -
 -------------------------------------------------------------------------------

 ROUTINE             CALLS      AVE VOLUME [Bytes]
 MP_Group                4
 MP_Bcast               81                1703955.
 MP_Allreduce          552                 301191.
 MP_Sync                10
 MP_Alltoall           174                5583162.
 MP_ISendRecv         1575                  92352.
 MP_Wait              2996
 MP_comm_split           3
 MP_ISend             1276                 255904.
 MP_IRecv             1276                 255986.
 MP_Recv                 5                   2136.
 -------------------------------------------------------------------------------


 -------------------------------------------------------------------------------
 -                                                                             -
 -                           R E F E R E N C E S                               -
 -                                                                             -
 -------------------------------------------------------------------------------
 
 CP2K version 10.0 (Development Version), the CP2K developers group (2022).
 CP2K is freely available from https://www.cp2k.org/ .

 Kuehne,Thomas D.; Iannuzzi,Marcella; Del Ben,Mauro;
 Rybkin,Vladimir V.; Seewald,Patrick; Stein,Frederick; Laino,Teodoro;
 Khaliullin,Rustam Z.; Schuett,Ole; Schiffmann,Florian; Golze,Dorothea;
 Wilhelm,Jan; Chulkov,Sergey; Bani-Hashemian,Mohammad Hossein;
 Weber,Valery; Borstnik,Urban; Taillefumier,Mathieu;
 Jakobovits,Alice Shoshana; Lazzaro,Alfio; Pabst,Hans; Mueller,Tiziano;
 Schade,Robert; Guidon,Manuel; Andermatt,Samuel; Holmberg,Nico;
 Schenter,Gregory K.; Hehn,Anna; Bussy,Augustin; Belleflamme,Fabian;
 Tabacchi,Gloria; Gloess,Andreas; Lass,Michael; Bethune,Iain;
 Mundy,Christopher J.; Plessl,Christian; Watkins,Matt;
 VandeVondele,Joost; Krack,Matthias; Hutter,Juerg. 
 The Journal of Chemical Physics, 152 (19), (2020). 
 CP2K: An electronic structure and molecular dynamics software package -
 Quickstep: Efficient and accurate electronic structure calculations.
 https://doi.org/10.1063/5.0007045

 Schuett, Ole; Messmer, Peter; Hutter, Juerg; VandeVondele, Joost. 
 Electronic Structure Calculations on Graphics Processing Units, John
 Wiley & Sons, Ltd, 173-190 (2016). 
 GPU-Accelerated Sparse Matrix-Matrix Multiplication for
 Linear Scaling Density Functional Theory.
 https://doi.org/10.1002/9781118670712.ch8

 Heinecke, A; Henry, G; Hutchinson, M; Pabst, H. 
 Proceedings of Intl. Supercomputing Conference, 981-991 (2016). 
 LIBXSMM: Accelerating Small Matrix Multiplications
 by Runtime Code Generation.
 https://doi.org/10.1109/SC.2016.83

 Borstnik, U; VandeVondele, J; Weber, V; Hutter, J. 
 PARALLEL COMPUTING, 40 (5-6), 47-58 (2014). 
 Sparse matrix multiplication: The distributed block-compressed sparse
 row library.
 https://doi.org/10.1016/j.parco.2014.03.012

 Hutter, J; Iannuzzi, M; Schiffmann, F; VandeVondele, J. 
 WIREs Comput Mol Sci., 4 (1), 15-25 (2014). 
 CP2K: atomistic simulations of condensed matter systems.
 https://doi.org/10.1002/wcms.1159

 Marek, A; Blum, V; Johanni, R; Havu, V; Lang, B; Auckenthaler, T;
 Heinecke, A; Bungartz, H; Lederer, H. 
 Journal of Physics: Condensed Matter, 26 (21), (2014). 
 The ELPA library: scalable parallel eigenvalue solutions for
 electronic structure
 theory and computational science.
 https://doi.org/10.1088/0953-8984/26/21/213201

 Frigo, M; Johnson, SG. 
 PROCEEDINGS OF THE IEEE, 93 (2), 216-231 (2005). 
 The design and implementation of FFTW3.
 https://doi.org/10.1109/JPROC.2004.840301

 VandeVondele, J; Hutter, J. 
 JOURNAL OF CHEMICAL PHYSICS, 118 (10), 4365-4369 (2003). 
 An efficient orbital transformation method for electronic structure
 calculations.
 https://doi.org/10.1063/1.1543154

 Lippert, G; Hutter, J; Parrinello, M. 
 THEORETICAL CHEMISTRY ACCOUNTS, 103 (2), 124-140 (1999). 
 The Gaussian and augmented-plane-wave density functional method for ab
 initio molecular dynamics simulations.
 https://doi.org/10.1007/s002140050523

 Krack, M; Parrinello, M. 
 PHYSICAL CHEMISTRY CHEMICAL PHYSICS, 2 (10), 2105-2112 (2000). 
 All-electron ab-initio molecular dynamics.
 https://doi.org/10.1039/b001167n

 Perdew, JP; Burke, K; Ernzerhof, M. 
 PHYSICAL REVIEW LETTERS, 77 (18), 3865-3868 (1996). 
 Generalized gradient approximation made simple.
 https://doi.org/10.1103/PhysRevLett.77.3865


 -------------------------------------------------------------------------------
 -                                                                             -
 -                                T I M I N G                                  -
 -                                                                             -
 -------------------------------------------------------------------------------
 SUBROUTINE                       CALLS  ASD         SELF TIME        TOTAL TIME
                                MAXIMUM       AVERAGE  MAXIMUM  AVERAGE  MAXIMUM
 CP2K                                 1  1.0    0.010    0.035    6.689    6.690
 qs_energies                          1  2.0    0.000    0.000    6.436    6.436
 scf_env_do_scf                       1  3.0    0.000    0.000    6.253    6.253
 scf_env_do_scf_inner_loop            7  4.0    0.000    0.000    5.475    5.475
 qs_ks_update_qs_env                  8  5.0    0.000    0.000    5.387    5.388
 rebuild_ks_matrix                    7  6.0    0.000    0.000    5.385    5.385
 qs_ks_build_kohn_sham_matrix         7  7.0    0.001    0.002    5.385    5.385
 prepare_gapw_den                     7  8.0    0.000    0.000    1.723    1.733
 pw_transfer                        152 10.1    0.014    0.017    1.431    1.573
 fft_wrap_pw1pw2                    131 11.2    0.002    0.002    1.407    1.546
 fft_wrap_pw1pw2_250                 86 12.6    0.075    0.094    1.327    1.486
 fft3d_ps                           131 13.2    0.526    0.708    1.142    1.277
 mp_sum_d                           611  3.3    1.120    1.190    1.120    1.190
 rs_pw_transfer                      74  9.4    0.002    0.002    1.083    1.123
 calculate_rho0_atom                  7  9.0    0.913    1.095    0.913    1.095
 qs_vxc_create                        7  8.0    0.000    0.000    1.064    1.064
 xc_vxc_pw_create                     7  9.0    0.007    0.008    1.064    1.064
 xc_pw_derive                        42 11.0    0.000    0.000    0.775    0.893
 calculate_rho_atom                   7  9.0    0.258    0.850    0.258    0.850
 qs_rho_update_rho                    8  5.0    0.000    0.000    0.826    0.829
 calculate_vxc_atom                   7  8.0    0.002    0.027    0.808    0.808
 init_scf_loop                        1  4.0    0.000    0.000    0.777    0.777
 gaVxcgb_GC                           7  9.0    0.021    0.767    0.021    0.767
 calculate_rho_elec                   8  6.0    0.004    0.005    0.767    0.767
 integrate_vhg0_rspace                7  8.0    0.080    0.192    0.649    0.761
 mp_alltoall_z22v                   131 15.2    0.517    0.712    0.517    0.712
 xc_pw_divergence                     7 10.0    0.000    0.000    0.550    0.663
 density_rs2pw                        8  7.0    0.000    0.000    0.613    0.644
 xc_rho_set_and_dset_create           7 10.0    0.008    0.009    0.478    0.588
 sum_up_and_integrate                 7  8.0    0.003    0.004    0.571    0.577
 integrate_v_rspace                   7  9.0    0.000    0.000    0.568    0.574
 yz_to_x                             59 14.0    0.038    0.062    0.370    0.529
 potential_pw2rs                      7 10.0    0.000    0.001    0.479    0.480
 rs_pw_transfer_RS2PW_250            15  9.9    0.235    0.284    0.437    0.469
 mp_sum_dm                           23  7.6    0.395    0.463    0.395    0.463
 rs_pw_transfer_PW2RS_250            14 11.0    0.227    0.268    0.406    0.435
 mp_waitany                        1276 11.4    0.300    0.402    0.300    0.402
 put_rho0_on_grid                     7  9.0    0.004    0.005    0.332    0.342
 mp_sum_dv                           31 11.2    0.220    0.303    0.220    0.303
 x_to_yz                             57 14.6    0.050    0.070    0.234    0.268
 Vh_1c_gg_integrals                   7  8.0    0.015    0.259    0.255    0.265
 mp_waitall_1                     11320 13.7    0.172    0.222    0.172    0.222
 xc_functional_eval                  21 10.9    0.000    0.000    0.120    0.219
 pbe_lda_eval                        21 11.9    0.120    0.219    0.120    0.219
 grid_collocate_task_list             8  7.0    0.111    0.201    0.111    0.201
 qs_init_subsys                       1  2.0    0.005    0.005    0.189    0.189
 update_ks_atom                       7  8.0    0.013    0.024    0.140    0.173
 mp_bcast_im                         23  9.9    0.127    0.151    0.127    0.151
 dbcsr_multiply_generic             150  9.9    0.004    0.004    0.132    0.144
 -------------------------------------------------------------------------------

 The number of warnings for this run is : 0
 
 -------------------------------------------------------------------------------
  **** **** ******  **  PROGRAM ENDED AT                 2022-07-03 18:37:54.088
 ***** ** ***  *** **   PROGRAM RAN ON                                   tcopt10
 **    ****   ******    PROGRAM RAN BY                                    hutter
 ***** **    ** ** **   PROGRAM PROCESS ID                                 25122
  **** **  *******  **  PROGRAM STOPPED IN /data/hutter/GITHUB/BASIS/scMOLOPT/PB
                                           E/noble
