 DBCSR| CPU Multiplication driver                                           XSMM
 DBCSR| Multrec recursion limit                                              512
 DBCSR| Multiplication stack size                                           1000
 DBCSR| Maximum elements for images                                    UNLIMITED
 DBCSR| Multiplicative factor virtual images                                   1
 DBCSR| Use multiplication densification                                       T
 DBCSR| Multiplication size stacks                                             3
 DBCSR| Use memory pool for CPU allocation                                     F
 DBCSR| Number of 3D layers                                               SINGLE
 DBCSR| Use MPI memory allocation                                              F
 DBCSR| Use RMA algorithm                                                      F
 DBCSR| Use Communication thread                                               T
 DBCSR| Communication thread load                                             87
 DBCSR| MPI: My node id                                                        0
 DBCSR| MPI: Number of nodes                                                  36
 DBCSR| OMP: Current number of threads                                         1
 DBCSR| OMP: Max number of threads                                             1
 DBCSR| Split modifier for TAS multiplication algorithm                  1.0E+00


  **** **** ******  **  PROGRAM STARTED AT               2022-07-03 18:37:29.907
 ***** ** ***  *** **   PROGRAM STARTED ON                               tcopt10
 **    ****   ******    PROGRAM STARTED BY                                hutter
 ***** **    ** ** **   PROGRAM PROCESS ID                                 24984
  **** **  *******  **  PROGRAM STARTED IN /data/hutter/GITHUB/BASIS/scMOLOPT/PB
                                           E/noble

 CP2K| version string:                   CP2K version 10.0 (Development Version)
 CP2K| source code revision number:                                  git:d19b00a
 CP2K| cp2kflags: omp libint fftw3 libxc elpa parallel mpi3 scalapack cosma xsmm
 CP2K|             spglib sirius libvori libbqb
 CP2K| is freely available from                            https://www.cp2k.org/
 CP2K| Program compiled at                      Wed 18 May 2022 12:15:59 PM CEST
 CP2K| Program compiled on                                               tcopt10
 CP2K| Program compiled for                                                local
 CP2K| Data directory path                   /data/hutter/GITHUB/TDLRI/cp2k/data
 CP2K| Input file name                                               Kr2-ref.inp

 GLOBAL| Force Environment number                                              1
 GLOBAL| Basis set file name                                        ../def2QZVPP
 GLOBAL| Potential file name                                        ../POTENTIAL
 GLOBAL| MM Potential file name                                     MM_POTENTIAL
 GLOBAL| Coordinate file name                                      __STD_INPUT__
 GLOBAL| Method name                                                        CP2K
 GLOBAL| Project name                                                     refKr2
 GLOBAL| Run type                                                         ENERGY
 GLOBAL| FFT library                                                       FFTW3
 GLOBAL| Diagonalization library                                            ELPA
 GLOBAL| Minimum number of eigenvectors for ELPA usage                        16
 GLOBAL| Orthonormality check for eigenvectors                          DISABLED
 GLOBAL| Matrix multiplication library                                     COSMA
 GLOBAL| All-to-all communication in single precision                          F
 GLOBAL| FFTs using library dependent lengths                                  F
 GLOBAL| Grid backend                                                       AUTO
 GLOBAL| Global print level                                                  LOW
 GLOBAL| MPI I/O enabled                                                       T
 GLOBAL| Total number of message passing processes                            36
 GLOBAL| Number of threads for this process                                    1
 GLOBAL| This output is from process                                           0
 GLOBAL| Stack size for threads created by OpenMP (OMP_STACKSIZE)        default
 GLOBAL| CPU model name                          AMD EPYC 7401 24-Core Processor
 GLOBAL| CPUID                                                              1002

 MEMORY| system memory details [Kb]
 MEMORY|                        rank 0           min           max       average
 MEMORY| MemTotal            263969132     263969132     263969132     263969132
 MEMORY| MemFree             204589396     204589396     204589396     204589396
 MEMORY| Buffers                   156           156           156           156
 MEMORY| Cached               52526040      52526040      52526040      52526040
 MEMORY| Slab                  2018772       2018772       2018772       2018772
 MEMORY| SReclaimable          1139668       1139668       1139668       1139668
 MEMORY| MemLikelyFree       258255260     258255260     258255260     258255260


 GENERATE|  Preliminary Number of Bonds generated:                             0
 GENERATE|  Achieved consistency in connectivity generation.

 *******************************************************************************
 *******************************************************************************
 **                                                                           **
 **     #####                         ##              ##                      **
 **    ##   ##            ##          ##              ##                      **
 **   ##     ##                       ##            ######                    **
 **   ##     ##  ##   ##  ##   #####  ##  ##   ####   ##    #####    #####    **
 **   ##     ##  ##   ##  ##  ##      ## ##   ##      ##   ##   ##  ##   ##   **
 **   ##  ## ##  ##   ##  ##  ##      ####     ###    ##   ######   ######    **
 **    ##  ###   ##   ##  ##  ##      ## ##      ##   ##   ##       ##        **
 **     #######   #####   ##   #####  ##  ##  ####    ##    #####   ##        **
 **           ##                                                    ##        **
 **                                                                           **
 **                                                ... make the atoms dance   **
 **                                                                           **
 **            Copyright (C) by CP2K developers group (2000-2022)             **
 **                      J. Chem. Phys. 152, 194103 (2020)                    **
 **                                                                           **
 *******************************************************************************


 TOTAL NUMBERS AND MAXIMUM NUMBERS

  Total number of            - Atomic kinds:                                   1
                             - Atoms:                                          2
                             - Shell sets:                                    54
                             - Shells:                                        54
                             - Primitive Cartesian functions:                118
                             - Cartesian basis functions:                    222
                             - Spherical basis functions:                    178

  Maximum angular momentum of the orbital basis functions:                     4


 SCF PARAMETERS         Density guess:                                    ATOMIC
                        --------------------------------------------------------
                        max_scf:                                              10
                        max_scf_history:                                       0
                        max_diis:                                              4
                        --------------------------------------------------------
                        eps_scf:                                        1.00E-07
                        eps_scf_history:                                0.00E+00
                        eps_diis:                                       1.00E-01
                        eps_eigval:                                     1.00E-05
                        --------------------------------------------------------
                        level_shift [a.u.]:                             0.000000
                        --------------------------------------------------------
                        Outer loop SCF in use 
                        No variables optimised in outer loop
                        eps_scf                                         1.00E-07
                        max_scf                                               10
                        No outer loop optimization
                        step_size                                       5.00E-01

 Number of electrons:                                                         72
 Number of occupied orbitals:                                                 36
 Number of molecular orbitals:                                                36

 Number of orbital functions:                                                178
 Number of independent orbital functions:                                    178

 Extrapolation method: initial_guess


 SCF WAVEFUNCTION OPTIMIZATION

  ----------------------------------- OT ---------------------------------------
  Minimizer      : DIIS                : direct inversion
                                         in the iterative subspace
                                         using   7 DIIS vectors
                                         safer DIIS on
  Preconditioner : FULL_ALL            : diagonalization, state selective
  Precond_solver : DEFAULT
  stepsize       :    0.15000000                  energy_gap     :    0.08000000
  eps_taylor     :   0.10000E-15                  max_taylor     :             4
  ----------------------------------- OT ---------------------------------------

  Step     Update method      Time    Convergence         Total energy    Change
  ------------------------------------------------------------------------------
     1 OT DIIS     0.15E+00    1.0     0.00314566     -5506.8083783261 -5.51E+03
     2 OT DIIS     0.15E+00    1.1     0.00115967     -5506.8147739365 -6.40E-03
     3 OT DIIS     0.15E+00    1.1     0.00015472     -5506.8158134878 -1.04E-03
     4 OT DIIS     0.15E+00    1.1     0.00002521     -5506.8158286269 -1.51E-05
     5 OT DIIS     0.15E+00    1.1     0.00000595     -5506.8158289379 -3.11E-07
     6 OT DIIS     0.15E+00    1.1     0.00000049     -5506.8158289641 -2.61E-08
     7 OT DIIS     0.15E+00    1.1     0.00000014     -5506.8158289637  3.28E-10
     8 OT DIIS     0.15E+00    1.1     0.00000001     -5506.8158289640 -2.47E-10

  *** SCF run converged in     8 steps ***


  Electronic density on regular grids:        -26.6321186125       45.3678813875
  Core density on regular grids:               72.0000000000        0.0000000000
  Hard and soft densities (Lebedev):          -72.0040164985      -26.6361789963
  Total Rho_soft + Rho1_hard - Rho1_soft      -71.9999561147
  Total charge density (r-space):               0.0000438853
  Total Rho_soft + Rho0_soft (g-space):        -0.0000002672

  Overlap energy of the core charge distribution:               0.00000000000000
  Self energy of the core charge distribution:              -1462.37940055578451
  Core Hamiltonian energy:                                  -4469.91706905560932
  Hartree energy:                                             142.42897304560515
  Exchange-correlation energy:                                -16.15289522330117

  GAPW| Exc from hard and soft atomic rho1:                  -174.05395686428156
  GAPW| local Eh = 1 center integrals:                        473.25851968939958

  Total energy:                                             -5506.81582896397231

  outer SCF iter =    1 RMS gradient =   0.12E-07 energy =      -5506.8158289640
  outer SCF loop converged in   1 iterations or    8 steps


 ENERGY| Total FORCE_EVAL ( QS ) energy [a.u.]:            -5506.815828963972308

 -------------------------------------------------------------------------------
 -                                                                             -
 -                                DBCSR STATISTICS                             -
 -                                                                             -
 -------------------------------------------------------------------------------
 COUNTER                                    TOTAL       BLAS       SMM       ACC
 flops     4 x     4 x     4                 5632       0.0%    100.0%      0.0%
 flops     4 x     4 x    32                45056       0.0%    100.0%      0.0%
 flops     4 x    32 x     4                45056       0.0%    100.0%      0.0%
 flops    32 x     4 x     4                45056       0.0%    100.0%      0.0%
 flops     4 x     4 x    89               187968       0.0%    100.0%      0.0%
 flops    89 x     4 x     4               233536       0.0%    100.0%      0.0%
 flops    32 x    32 x     4               360448       0.0%    100.0%      0.0%
 flops     4 x    32 x    32               360448       0.0%    100.0%      0.0%
 flops    32 x     4 x    32               360448       0.0%    100.0%      0.0%
 flops     4 x    32 x    89              1503744       0.0%    100.0%      0.0%
 flops    32 x     4 x    89              1503744       0.0%    100.0%      0.0%
 flops    89 x    89 x     4              1710936       0.0%    100.0%      0.0%
 flops    89 x    32 x     4              1822720       0.0%    100.0%      0.0%
 flops    89 x     4 x    32              1822720       0.0%    100.0%      0.0%
 flops    32 x    32 x    32              2883584       0.0%    100.0%      0.0%
 flops    89 x     4 x    89             10645824       0.0%    100.0%      0.0%
 flops    32 x    32 x    89             12029952       0.0%    100.0%      0.0%
 flops    89 x    89 x    32             13687488       0.0%    100.0%      0.0%
 flops    89 x    32 x    32             14946304       0.0%    100.0%      0.0%
 flops    89 x    32 x    89             85166592       0.0%    100.0%      0.0%
 flops inhomo. stacks                           0       0.0%      0.0%      0.0%
 flops total                       149.367256E+06       0.0%    100.0%      0.0%
 flops max/rank                     71.374600E+06       0.0%    100.0%      0.0%
 matmuls inhomo. stacks                         0       0.0%      0.0%      0.0%
 matmuls total                               1330       0.0%    100.0%      0.0%
 number of processed stacks                  1330       0.0%    100.0%      0.0%
 average stack size                                     0.0       1.0       0.0
 marketing flops                   155.052576E+06
 -------------------------------------------------------------------------------
 # multiplications                            170
 max memory usage/rank             527.904768E+06
 # max total images/rank                        1
 # max 3D layers                                1
 # MPI messages exchanged                   61200
 MPI messages size (bytes):
  total size                       102.711680E+06
  min size                           0.000000E+00
  max size                          63.368000E+03
  average size                       1.678295E+03
 MPI breakdown and total messages size (bytes):
             size <=      128               55095                    82560
       128 < size <=     8192                3595                 11350720
      8192 < size <=    32768                1670                 38049280
     32768 < size <=   131072                 840                 53229120
    131072 < size <=  4194304                   0                        0
   4194304 < size <= 16777216                   0                        0
  16777216 < size                               0                        0
 -------------------------------------------------------------------------------
 -                                                                             -
 -                      DBCSR MESSAGE PASSING PERFORMANCE                      -
 -                                                                             -
 -------------------------------------------------------------------------------
 ROUTINE             CALLS      AVE VOLUME [Bytes]
 MP_Bcast               21                     12.
 MP_Allreduce          944                      9.
 MP_Alltoall           716                   5669.
 MP_ISend             4076                   3233.
 MP_IRecv             4076                   1386.
 -------------------------------------------------------------------------------

 -------------------------------------------------------------------------------
 -                                                                             -
 -                                GRID STATISTICS                              -
 -                                                                             -
 -------------------------------------------------------------------------------
 LP    KERNEL             BACKEND                              COUNT     PERCENT
 2     collocate ortho    REF                                   1710      10.25%
 3     collocate ortho    REF                                   1710      10.25%
 2     integrate ortho    REF                                   1520       9.11%
 3     integrate ortho    REF                                   1520       9.11%
 4     collocate ortho    REF                                   1467       8.79%
 1     collocate ortho    REF                                   1368       8.20%
 4     integrate ortho    REF                                   1304       7.81%
 1     integrate ortho    REF                                   1216       7.29%
 5     collocate ortho    REF                                    900       5.39%
 5     integrate ortho    REF                                    800       4.79%
 2     collocate general  REF                                    576       3.45%
 2     integrate general  REF                                    576       3.45%
 0     collocate ortho    REF                                    450       2.70%
 6     collocate ortho    REF                                    432       2.59%
 0     integrate ortho    REF                                    400       2.40%
 6     integrate ortho    REF                                    384       2.30%
 7     collocate ortho    REF                                    162       0.97%
 7     integrate ortho    REF                                    144       0.86%
 8     collocate ortho    REF                                     27       0.16%
 8     integrate ortho    REF                                     24       0.14%
 -------------------------------------------------------------------------------

 MEMORY| Estimated peak process memory [MiB]                                 519

 -------------------------------------------------------------------------------
 -                                                                             -
 -                         MESSAGE PASSING PERFORMANCE                         -
 -                                                                             -
 -------------------------------------------------------------------------------

 ROUTINE             CALLS      AVE VOLUME [Bytes]
 MP_Group                4
 MP_Bcast              103                1380987.
 MP_Allreduce          596                 636348.
 MP_Sync                10
 MP_Alltoall           196                3252079.
 MP_ISendRecv         1785                  92352.
 MP_Wait              3402
 MP_comm_split           3
 MP_ISend             1452                 255909.
 MP_IRecv             1452                 255981.
 MP_Recv                 5                   8544.
 -------------------------------------------------------------------------------


 -------------------------------------------------------------------------------
 -                                                                             -
 -                           R E F E R E N C E S                               -
 -                                                                             -
 -------------------------------------------------------------------------------
 
 CP2K version 10.0 (Development Version), the CP2K developers group (2022).
 CP2K is freely available from https://www.cp2k.org/ .

 Kuehne,Thomas D.; Iannuzzi,Marcella; Del Ben,Mauro;
 Rybkin,Vladimir V.; Seewald,Patrick; Stein,Frederick; Laino,Teodoro;
 Khaliullin,Rustam Z.; Schuett,Ole; Schiffmann,Florian; Golze,Dorothea;
 Wilhelm,Jan; Chulkov,Sergey; Bani-Hashemian,Mohammad Hossein;
 Weber,Valery; Borstnik,Urban; Taillefumier,Mathieu;
 Jakobovits,Alice Shoshana; Lazzaro,Alfio; Pabst,Hans; Mueller,Tiziano;
 Schade,Robert; Guidon,Manuel; Andermatt,Samuel; Holmberg,Nico;
 Schenter,Gregory K.; Hehn,Anna; Bussy,Augustin; Belleflamme,Fabian;
 Tabacchi,Gloria; Gloess,Andreas; Lass,Michael; Bethune,Iain;
 Mundy,Christopher J.; Plessl,Christian; Watkins,Matt;
 VandeVondele,Joost; Krack,Matthias; Hutter,Juerg. 
 The Journal of Chemical Physics, 152 (19), (2020). 
 CP2K: An electronic structure and molecular dynamics software package -
 Quickstep: Efficient and accurate electronic structure calculations.
 https://doi.org/10.1063/5.0007045

 Schuett, Ole; Messmer, Peter; Hutter, Juerg; VandeVondele, Joost. 
 Electronic Structure Calculations on Graphics Processing Units, John
 Wiley & Sons, Ltd, 173-190 (2016). 
 GPU-Accelerated Sparse Matrix-Matrix Multiplication for
 Linear Scaling Density Functional Theory.
 https://doi.org/10.1002/9781118670712.ch8

 Heinecke, A; Henry, G; Hutchinson, M; Pabst, H. 
 Proceedings of Intl. Supercomputing Conference, 981-991 (2016). 
 LIBXSMM: Accelerating Small Matrix Multiplications
 by Runtime Code Generation.
 https://doi.org/10.1109/SC.2016.83

 Borstnik, U; VandeVondele, J; Weber, V; Hutter, J. 
 PARALLEL COMPUTING, 40 (5-6), 47-58 (2014). 
 Sparse matrix multiplication: The distributed block-compressed sparse
 row library.
 https://doi.org/10.1016/j.parco.2014.03.012

 Hutter, J; Iannuzzi, M; Schiffmann, F; VandeVondele, J. 
 WIREs Comput Mol Sci., 4 (1), 15-25 (2014). 
 CP2K: atomistic simulations of condensed matter systems.
 https://doi.org/10.1002/wcms.1159

 Marek, A; Blum, V; Johanni, R; Havu, V; Lang, B; Auckenthaler, T;
 Heinecke, A; Bungartz, H; Lederer, H. 
 Journal of Physics: Condensed Matter, 26 (21), (2014). 
 The ELPA library: scalable parallel eigenvalue solutions for
 electronic structure
 theory and computational science.
 https://doi.org/10.1088/0953-8984/26/21/213201

 Frigo, M; Johnson, SG. 
 PROCEEDINGS OF THE IEEE, 93 (2), 216-231 (2005). 
 The design and implementation of FFTW3.
 https://doi.org/10.1109/JPROC.2004.840301

 VandeVondele, J; Hutter, J. 
 JOURNAL OF CHEMICAL PHYSICS, 118 (10), 4365-4369 (2003). 
 An efficient orbital transformation method for electronic structure
 calculations.
 https://doi.org/10.1063/1.1543154

 Lippert, G; Hutter, J; Parrinello, M. 
 THEORETICAL CHEMISTRY ACCOUNTS, 103 (2), 124-140 (1999). 
 The Gaussian and augmented-plane-wave density functional method for ab
 initio molecular dynamics simulations.
 https://doi.org/10.1007/s002140050523

 Krack, M; Parrinello, M. 
 PHYSICAL CHEMISTRY CHEMICAL PHYSICS, 2 (10), 2105-2112 (2000). 
 All-electron ab-initio molecular dynamics.
 https://doi.org/10.1039/b001167n

 Perdew, JP; Burke, K; Ernzerhof, M. 
 PHYSICAL REVIEW LETTERS, 77 (18), 3865-3868 (1996). 
 Generalized gradient approximation made simple.
 https://doi.org/10.1103/PhysRevLett.77.3865


 -------------------------------------------------------------------------------
 -                                                                             -
 -                                T I M I N G                                  -
 -                                                                             -
 -------------------------------------------------------------------------------
 SUBROUTINE                       CALLS  ASD         SELF TIME        TOTAL TIME
                                MAXIMUM       AVERAGE  MAXIMUM  AVERAGE  MAXIMUM
 CP2K                                 1  1.0    0.010    0.033    9.582    9.583
 qs_energies                          1  2.0    0.000    0.000    9.328    9.329
 scf_env_do_scf                       1  3.0    0.000    0.000    9.125    9.126
 scf_env_do_scf_inner_loop            8  4.0    0.000    0.001    8.097    8.097
 qs_ks_update_qs_env                  9  5.0    0.000    0.000    8.034    8.036
 rebuild_ks_matrix                    8  6.0    0.000    0.000    8.031    8.032
 qs_ks_build_kohn_sham_matrix         8  7.0    0.002    0.002    8.031    8.032
 prepare_gapw_den                     8  8.0    0.000    0.000    3.237    3.248
 calculate_rho0_atom                  8  9.0    2.087    2.493    2.087    2.493
 pw_transfer                        173 10.1    0.016    0.019    1.569    1.662
 fft_wrap_pw1pw2                    149 11.2    0.002    0.002    1.540    1.635
 fft_wrap_pw1pw2_250                 98 12.6    0.088    0.110    1.452    1.545
 integrate_vhg0_rspace                8  8.0    0.169    0.411    1.255    1.376
 mp_sum_d                           635  3.6    1.258    1.370    1.258    1.370
 fft3d_ps                           149 13.2    0.597    0.775    1.237    1.352
 rs_pw_transfer                      84  9.4    0.002    0.002    1.281    1.333
 qs_vxc_create                        8  8.0    0.000    0.000    1.207    1.207
 xc_vxc_pw_create                     8  9.0    0.008    0.010    1.206    1.207
 init_scf_loop                        1  4.0    0.000    0.000    1.028    1.028
 qs_rho_update_rho                    9  5.0    0.000    0.000    1.009    1.011
 calculate_rho_atom                   8  9.0    0.315    0.979    0.315    0.979
 mp_sum_dm                           52  7.6    0.899    0.953    0.899    0.953
 xc_pw_derive                        48 11.0    0.000    0.000    0.823    0.926
 calculate_vxc_atom                   8  8.0    0.003    0.032    0.923    0.923
 calculate_rho_elec                   9  6.0    0.005    0.005    0.922    0.922
 gaVxcgb_GC                           8  9.0    0.048    0.875    0.048    0.875
 density_rs2pw                        9  7.0    0.000    0.001    0.740    0.795
 sum_up_and_integrate                 8  8.0    0.003    0.004    0.762    0.766
 integrate_v_rspace                   8  9.0    0.000    0.000    0.760    0.763
 mp_alltoall_z22v                   149 15.2    0.527    0.747    0.527    0.747
 xc_pw_divergence                     8 10.0    0.000    0.000    0.584    0.683
 xc_rho_set_and_dset_create           8 10.0    0.009    0.011    0.582    0.653
 mp_sum_dv                           35 11.2    0.449    0.644    0.449    0.644
 rs_pw_transfer_RS2PW_250            17  9.9    0.261    0.329    0.538    0.582
 potential_pw2rs                      8 10.0    0.001    0.001    0.544    0.545
 yz_to_x                             67 14.0    0.045    0.072    0.376    0.513
 mp_waitany                        1452 11.5    0.391    0.510    0.391    0.510
 rs_pw_transfer_PW2RS_250            16 11.0    0.258    0.306    0.463    0.498
 put_rho0_on_grid                     8  9.0    0.005    0.006    0.386    0.398
 grid_collocate_task_list             9  7.0    0.131    0.324    0.131    0.324
 Vh_1c_gg_integrals                   8  8.0    0.025    0.294    0.302    0.312
 x_to_yz                             65 14.6    0.056    0.079    0.250    0.299
 mp_waitall_1                     12830 13.7    0.206    0.270    0.206    0.270
 xc_functional_eval                  24 10.9    0.000    0.000    0.194    0.256
 pbe_lda_eval                        24 11.9    0.194    0.256    0.194    0.256
 mp_alltoall_d11v                   191 10.7    0.203    0.221    0.203    0.221
 rs_gather_matrices                   8 10.0    0.000    0.001    0.196    0.215
 grid_integrate_task_list             8 10.0    0.020    0.214    0.020    0.214
 -------------------------------------------------------------------------------

 The number of warnings for this run is : 0
 
 -------------------------------------------------------------------------------
  **** **** ******  **  PROGRAM ENDED AT                 2022-07-03 18:37:39.896
 ***** ** ***  *** **   PROGRAM RAN ON                                   tcopt10
 **    ****   ******    PROGRAM RAN BY                                    hutter
 ***** **    ** ** **   PROGRAM PROCESS ID                                 24984
  **** **  *******  **  PROGRAM STOPPED IN /data/hutter/GITHUB/BASIS/scMOLOPT/PB
                                           E/noble
