 DBCSR| CPU Multiplication driver                                           XSMM
 DBCSR| Multrec recursion limit                                              512
 DBCSR| Multiplication stack size                                           1000
 DBCSR| Maximum elements for images                                    UNLIMITED
 DBCSR| Multiplicative factor virtual images                                   1
 DBCSR| Use multiplication densification                                       T
 DBCSR| Multiplication size stacks                                             3
 DBCSR| Use memory pool for CPU allocation                                     F
 DBCSR| Number of 3D layers                                               SINGLE
 DBCSR| Use MPI memory allocation                                              F
 DBCSR| Use RMA algorithm                                                      F
 DBCSR| Use Communication thread                                               T
 DBCSR| Communication thread load                                             87
 DBCSR| MPI: My node id                                                        0
 DBCSR| MPI: Number of nodes                                                  36
 DBCSR| OMP: Current number of threads                                         1
 DBCSR| OMP: Max number of threads                                             1
 DBCSR| Split modifier for TAS multiplication algorithm                  1.0E+00


  **** **** ******  **  PROGRAM STARTED AT               2022-07-03 18:39:11.083
 ***** ** ***  *** **   PROGRAM STARTED ON                               tcopt10
 **    ****   ******    PROGRAM STARTED BY                                hutter
 ***** **    ** ** **   PROGRAM PROCESS ID                                 25578
  **** **  *******  **  PROGRAM STARTED IN /data/hutter/GITHUB/BASIS/scMOLOPT/PB
                                           E/noble

 CP2K| version string:                   CP2K version 10.0 (Development Version)
 CP2K| source code revision number:                                  git:d19b00a
 CP2K| cp2kflags: omp libint fftw3 libxc elpa parallel mpi3 scalapack cosma xsmm
 CP2K|             spglib sirius libvori libbqb
 CP2K| is freely available from                            https://www.cp2k.org/
 CP2K| Program compiled at                      Wed 18 May 2022 12:15:59 PM CEST
 CP2K| Program compiled on                                               tcopt10
 CP2K| Program compiled for                                                local
 CP2K| Data directory path                   /data/hutter/GITHUB/TDLRI/cp2k/data
 CP2K| Input file name                                                Ne-ref.inp

 GLOBAL| Force Environment number                                              1
 GLOBAL| Basis set file name                                        ../def2QZVPP
 GLOBAL| Potential file name                                        ../POTENTIAL
 GLOBAL| MM Potential file name                                     MM_POTENTIAL
 GLOBAL| Coordinate file name                                      __STD_INPUT__
 GLOBAL| Method name                                                        CP2K
 GLOBAL| Project name                                                      refNe
 GLOBAL| Run type                                                         ENERGY
 GLOBAL| FFT library                                                       FFTW3
 GLOBAL| Diagonalization library                                            ELPA
 GLOBAL| Minimum number of eigenvectors for ELPA usage                        16
 GLOBAL| Orthonormality check for eigenvectors                          DISABLED
 GLOBAL| Matrix multiplication library                                     COSMA
 GLOBAL| All-to-all communication in single precision                          F
 GLOBAL| FFTs using library dependent lengths                                  F
 GLOBAL| Grid backend                                                       AUTO
 GLOBAL| Global print level                                                  LOW
 GLOBAL| MPI I/O enabled                                                       T
 GLOBAL| Total number of message passing processes                            36
 GLOBAL| Number of threads for this process                                    1
 GLOBAL| This output is from process                                           0
 GLOBAL| Stack size for threads created by OpenMP (OMP_STACKSIZE)        default
 GLOBAL| CPU model name                          AMD EPYC 7401 24-Core Processor
 GLOBAL| CPUID                                                              1002

 MEMORY| system memory details [Kb]
 MEMORY|                        rank 0           min           max       average
 MEMORY| MemTotal            263969132     263969132     263969132     263969132
 MEMORY| MemFree             204559616     204559616     204559616     204559616
 MEMORY| Buffers                   156           156           156           156
 MEMORY| Cached               52527556      52527552      52527556      52527552
 MEMORY| Slab                  2020048       2020048       2020048       2020048
 MEMORY| SReclaimable          1139220       1139220       1139220       1139220
 MEMORY| MemLikelyFree       258226548     258226544     258226548     258226544


 GENERATE|  Preliminary Number of Bonds generated:                             0
 GENERATE|  Achieved consistency in connectivity generation.

 *******************************************************************************
 *******************************************************************************
 **                                                                           **
 **     #####                         ##              ##                      **
 **    ##   ##            ##          ##              ##                      **
 **   ##     ##                       ##            ######                    **
 **   ##     ##  ##   ##  ##   #####  ##  ##   ####   ##    #####    #####    **
 **   ##     ##  ##   ##  ##  ##      ## ##   ##      ##   ##   ##  ##   ##   **
 **   ##  ## ##  ##   ##  ##  ##      ####     ###    ##   ######   ######    **
 **    ##  ###   ##   ##  ##  ##      ## ##      ##   ##   ##       ##        **
 **     #######   #####   ##   #####  ##  ##  ####    ##    #####   ##        **
 **           ##                                                    ##        **
 **                                                                           **
 **                                                ... make the atoms dance   **
 **                                                                           **
 **            Copyright (C) by CP2K developers group (2000-2022)             **
 **                      J. Chem. Phys. 152, 194103 (2020)                    **
 **                                                                           **
 *******************************************************************************


 TOTAL NUMBERS AND MAXIMUM NUMBERS

  Total number of            - Atomic kinds:                                   1
                             - Atoms:                                          1
                             - Shell sets:                                    17
                             - Shells:                                        17
                             - Primitive Cartesian functions:                 30
                             - Cartesian basis functions:                     72
                             - Spherical basis functions:                     57

  Maximum angular momentum of the orbital basis functions:                     4


 SCF PARAMETERS         Density guess:                                    ATOMIC
                        --------------------------------------------------------
                        max_scf:                                              10
                        max_scf_history:                                       0
                        max_diis:                                              4
                        --------------------------------------------------------
                        eps_scf:                                        1.00E-07
                        eps_scf_history:                                0.00E+00
                        eps_diis:                                       1.00E-01
                        eps_eigval:                                     1.00E-05
                        --------------------------------------------------------
                        level_shift [a.u.]:                             0.000000
                        --------------------------------------------------------
                        Outer loop SCF in use 
                        No variables optimised in outer loop
                        eps_scf                                         1.00E-07
                        max_scf                                               10
                        No outer loop optimization
                        step_size                                       5.00E-01

 Number of electrons:                                                         10
 Number of occupied orbitals:                                                  5
 Number of molecular orbitals:                                                 5

 Number of orbital functions:                                                 57
 Number of independent orbital functions:                                     57

 Extrapolation method: initial_guess


 SCF WAVEFUNCTION OPTIMIZATION

  ----------------------------------- OT ---------------------------------------
  Minimizer      : DIIS                : direct inversion
                                         in the iterative subspace
                                         using   7 DIIS vectors
                                         safer DIIS on
  Preconditioner : FULL_ALL            : diagonalization, state selective
  Precond_solver : DEFAULT
  stepsize       :    0.15000000                  energy_gap     :    0.08000000
  eps_taylor     :   0.10000E-15                  max_taylor     :             4
  ----------------------------------- OT ---------------------------------------

  Step     Update method      Time    Convergence         Total energy    Change
  ------------------------------------------------------------------------------
     1 OT DIIS     0.15E+00    0.4     0.00829351      -128.8631194344 -1.29E+02
     2 OT DIIS     0.15E+00    0.5     0.00318753      -128.8650610564 -1.94E-03
     3 OT DIIS     0.15E+00    0.5     0.00107565      -128.8653695523 -3.08E-04
     4 OT DIIS     0.15E+00    0.5     0.00004399      -128.8653916853 -2.21E-05
     5 OT DIIS     0.15E+00    0.5     0.00000155      -128.8653917535 -6.81E-08
     6 OT DIIS     0.15E+00    0.5     0.00000034      -128.8653917535 -7.74E-11
     7 OT DIIS     0.15E+00    0.5     0.00000002      -128.8653917535 -2.47E-12

  *** SCF run converged in     7 steps ***


  Electronic density on regular grids:         -6.8549400579        3.1450599421
  Core density on regular grids:               10.0000000000        0.0000000000
  Hard and soft densities (Lebedev):           -9.9999999968       -6.8549400579
  Total Rho_soft + Rho1_hard - Rho1_soft       -9.9999999968
  Total charge density (r-space):               0.0000000032
  Total Rho_soft + Rho0_soft (g-space):        -0.0000000665

  Overlap energy of the core charge distribution:               0.00000000000000
  Self energy of the core charge distribution:               -148.47094303888323
  Core Hamiltonian energy:                                      0.49299322371195
  Hartree energy:                                              13.56891460531234
  Exchange-correlation energy:                                 -4.49936448798342

  GAPW| Exc from hard and soft atomic rho1:                    -7.87423634516371
  GAPW| local Eh = 1 center integrals:                         17.91724428946666

  Total energy:                                              -128.86539175353943

  outer SCF iter =    1 RMS gradient =   0.18E-07 energy =       -128.8653917535
  outer SCF loop converged in   1 iterations or    7 steps


 ENERGY| Total FORCE_EVAL ( QS ) energy [a.u.]:             -128.865391753539427

 -------------------------------------------------------------------------------
 -                                                                             -
 -                                DBCSR STATISTICS                             -
 -                                                                             -
 -------------------------------------------------------------------------------
 COUNTER                                    TOTAL       BLAS       SMM       ACC
 flops     5 x     5 x     5                 9500       0.0%    100.0%      0.0%
 flops     5 x     5 x    57                82650       0.0%    100.0%      0.0%
 flops    57 x     5 x     5               102600       0.0%    100.0%      0.0%
 flops    57 x    57 x     5               259920       0.0%    100.0%      0.0%
 flops    57 x     5 x    57              1234620       0.0%    100.0%      0.0%
 flops inhomo. stacks                           0       0.0%      0.0%      0.0%
 flops total                         1.689290E+06       0.0%    100.0%      0.0%
 flops max/rank                      1.689290E+06       0.0%    100.0%      0.0%
 matmuls inhomo. stacks                         0       0.0%      0.0%      0.0%
 matmuls total                                149       0.0%    100.0%      0.0%
 number of processed stacks                   149       0.0%    100.0%      0.0%
 average stack size                                     0.0       1.0       0.0
 marketing flops                     1.692141E+06
 -------------------------------------------------------------------------------
 # multiplications                            150
 max memory usage/rank             278.728704E+06
 # max total images/rank                        1
 # max 3D layers                                1
 # MPI messages exchanged                   54000
 MPI messages size (bytes):
  total size                         6.737680E+06
  min size                           0.000000E+00
  max size                          25.992000E+03
  average size                     124.771851E+00
 MPI breakdown and total messages size (bytes):
             size <=      128               52510                        0
       128 < size <=     8192                1300                  1799200
      8192 < size <=    32768                 190                  4938480
     32768 < size <=   131072                   0                        0
    131072 < size <=  4194304                   0                        0
   4194304 < size <= 16777216                   0                        0
  16777216 < size                               0                        0
 -------------------------------------------------------------------------------
 -                                                                             -
 -                      DBCSR MESSAGE PASSING PERFORMANCE                      -
 -                                                                             -
 -------------------------------------------------------------------------------
 ROUTINE             CALLS      AVE VOLUME [Bytes]
 MP_Bcast                6                     12.
 MP_Allreduce          805                      9.
 MP_Alltoall           662                   2713.
 MP_ISend             3596                    431.
 MP_IRecv             3596                     55.
 -------------------------------------------------------------------------------

 -------------------------------------------------------------------------------
 -                                                                             -
 -                                GRID STATISTICS                              -
 -                                                                             -
 -------------------------------------------------------------------------------
 LP    KERNEL             BACKEND                              COUNT     PERCENT
 2     collocate general  REF                                    252      10.87%
 2     integrate general  REF                                    252      10.87%
 2     collocate ortho    REF                                    224       9.66%
 2     integrate ortho    REF                                    196       8.45%
 1     collocate ortho    REF                                    192       8.28%
 3     collocate ortho    REF                                    176       7.59%
 1     integrate ortho    REF                                    168       7.24%
 3     integrate ortho    REF                                    154       6.64%
 4     collocate ortho    REF                                    144       6.21%
 4     integrate ortho    REF                                    126       5.43%
 5     collocate ortho    REF                                     96       4.14%
 5     integrate ortho    REF                                     84       3.62%
 0     collocate ortho    REF                                     72       3.10%
 0     integrate ortho    REF                                     63       2.72%
 6     collocate ortho    REF                                     40       1.72%
 6     integrate ortho    REF                                     35       1.51%
 7     collocate ortho    REF                                     16       0.69%
 7     integrate ortho    REF                                     14       0.60%
 8     collocate ortho    REF                                      8       0.34%
 8     integrate ortho    REF                                      7       0.30%
 -------------------------------------------------------------------------------

 MEMORY| Estimated peak process memory [MiB]                                 280

 -------------------------------------------------------------------------------
 -                                                                             -
 -                         MESSAGE PASSING PERFORMANCE                         -
 -                                                                             -
 -------------------------------------------------------------------------------

 ROUTINE             CALLS      AVE VOLUME [Bytes]
 MP_Group                4
 MP_Bcast               65                1174859.
 MP_Allreduce          552                  20682.
 MP_Sync                10
 MP_Alltoall           174                5417600.
 MP_ISendRecv         1575                  92352.
 MP_Wait              2996
 MP_comm_split           3
 MP_ISend             1276                 204064.
 MP_IRecv             1276                 204146.
 MP_Recv                 4                    456.
 -------------------------------------------------------------------------------


 -------------------------------------------------------------------------------
 -                                                                             -
 -                           R E F E R E N C E S                               -
 -                                                                             -
 -------------------------------------------------------------------------------
 
 CP2K version 10.0 (Development Version), the CP2K developers group (2022).
 CP2K is freely available from https://www.cp2k.org/ .

 Kuehne,Thomas D.; Iannuzzi,Marcella; Del Ben,Mauro;
 Rybkin,Vladimir V.; Seewald,Patrick; Stein,Frederick; Laino,Teodoro;
 Khaliullin,Rustam Z.; Schuett,Ole; Schiffmann,Florian; Golze,Dorothea;
 Wilhelm,Jan; Chulkov,Sergey; Bani-Hashemian,Mohammad Hossein;
 Weber,Valery; Borstnik,Urban; Taillefumier,Mathieu;
 Jakobovits,Alice Shoshana; Lazzaro,Alfio; Pabst,Hans; Mueller,Tiziano;
 Schade,Robert; Guidon,Manuel; Andermatt,Samuel; Holmberg,Nico;
 Schenter,Gregory K.; Hehn,Anna; Bussy,Augustin; Belleflamme,Fabian;
 Tabacchi,Gloria; Gloess,Andreas; Lass,Michael; Bethune,Iain;
 Mundy,Christopher J.; Plessl,Christian; Watkins,Matt;
 VandeVondele,Joost; Krack,Matthias; Hutter,Juerg. 
 The Journal of Chemical Physics, 152 (19), (2020). 
 CP2K: An electronic structure and molecular dynamics software package -
 Quickstep: Efficient and accurate electronic structure calculations.
 https://doi.org/10.1063/5.0007045

 Schuett, Ole; Messmer, Peter; Hutter, Juerg; VandeVondele, Joost. 
 Electronic Structure Calculations on Graphics Processing Units, John
 Wiley & Sons, Ltd, 173-190 (2016). 
 GPU-Accelerated Sparse Matrix-Matrix Multiplication for
 Linear Scaling Density Functional Theory.
 https://doi.org/10.1002/9781118670712.ch8

 Heinecke, A; Henry, G; Hutchinson, M; Pabst, H. 
 Proceedings of Intl. Supercomputing Conference, 981-991 (2016). 
 LIBXSMM: Accelerating Small Matrix Multiplications
 by Runtime Code Generation.
 https://doi.org/10.1109/SC.2016.83

 Borstnik, U; VandeVondele, J; Weber, V; Hutter, J. 
 PARALLEL COMPUTING, 40 (5-6), 47-58 (2014). 
 Sparse matrix multiplication: The distributed block-compressed sparse
 row library.
 https://doi.org/10.1016/j.parco.2014.03.012

 Hutter, J; Iannuzzi, M; Schiffmann, F; VandeVondele, J. 
 WIREs Comput Mol Sci., 4 (1), 15-25 (2014). 
 CP2K: atomistic simulations of condensed matter systems.
 https://doi.org/10.1002/wcms.1159

 Marek, A; Blum, V; Johanni, R; Havu, V; Lang, B; Auckenthaler, T;
 Heinecke, A; Bungartz, H; Lederer, H. 
 Journal of Physics: Condensed Matter, 26 (21), (2014). 
 The ELPA library: scalable parallel eigenvalue solutions for
 electronic structure
 theory and computational science.
 https://doi.org/10.1088/0953-8984/26/21/213201

 Frigo, M; Johnson, SG. 
 PROCEEDINGS OF THE IEEE, 93 (2), 216-231 (2005). 
 The design and implementation of FFTW3.
 https://doi.org/10.1109/JPROC.2004.840301

 VandeVondele, J; Hutter, J. 
 JOURNAL OF CHEMICAL PHYSICS, 118 (10), 4365-4369 (2003). 
 An efficient orbital transformation method for electronic structure
 calculations.
 https://doi.org/10.1063/1.1543154

 Lippert, G; Hutter, J; Parrinello, M. 
 THEORETICAL CHEMISTRY ACCOUNTS, 103 (2), 124-140 (1999). 
 The Gaussian and augmented-plane-wave density functional method for ab
 initio molecular dynamics simulations.
 https://doi.org/10.1007/s002140050523

 Krack, M; Parrinello, M. 
 PHYSICAL CHEMISTRY CHEMICAL PHYSICS, 2 (10), 2105-2112 (2000). 
 All-electron ab-initio molecular dynamics.
 https://doi.org/10.1039/b001167n

 Perdew, JP; Burke, K; Ernzerhof, M. 
 PHYSICAL REVIEW LETTERS, 77 (18), 3865-3868 (1996). 
 Generalized gradient approximation made simple.
 https://doi.org/10.1103/PhysRevLett.77.3865


 -------------------------------------------------------------------------------
 -                                                                             -
 -                                T I M I N G                                  -
 -                                                                             -
 -------------------------------------------------------------------------------
 SUBROUTINE                       CALLS  ASD         SELF TIME        TOTAL TIME
                                MAXIMUM       AVERAGE  MAXIMUM  AVERAGE  MAXIMUM
 CP2K                                 1  1.0    0.006    0.027    3.719    3.720
 qs_energies                          1  2.0    0.000    0.000    3.572    3.572
 scf_env_do_scf                       1  3.0    0.000    0.000    3.457    3.457
 scf_env_do_scf_inner_loop            7  4.0    0.000    0.000    3.079    3.079
 qs_ks_update_qs_env                  8  5.0    0.000    0.000    2.666    2.667
 rebuild_ks_matrix                    7  6.0    0.000    0.000    2.665    2.665
 qs_ks_build_kohn_sham_matrix         7  7.0    0.001    0.002    2.665    2.665
 pw_transfer                        152 10.1    0.014    0.017    1.440    1.511
 fft_wrap_pw1pw2                    131 11.2    0.002    0.003    1.415    1.485
 fft_wrap_pw1pw2_250                 86 12.6    0.074    0.092    1.329    1.412
 fft3d_ps                           131 13.2    0.536    0.678    1.152    1.231
 qs_vxc_create                        7  8.0    0.000    0.000    0.985    0.985
 xc_vxc_pw_create                     7  9.0    0.007    0.008    0.985    0.985
 rs_pw_transfer                      74  9.4    0.002    0.003    0.920    0.946
 xc_pw_derive                        42 11.0    0.000    0.000    0.758    0.821
 qs_rho_update_rho                    8  5.0    0.000    0.000    0.755    0.755
 calculate_rho_elec                   8  6.0    0.004    0.005    0.745    0.745
 mp_alltoall_z22v                   131 15.2    0.519    0.717    0.519    0.717
 density_rs2pw                        8  7.0    0.000    0.001    0.605    0.629
 xc_pw_divergence                     7 10.0    0.000    0.000    0.540    0.596
 prepare_gapw_den                     7  8.0    0.000    0.000    0.498    0.510
 xc_rho_set_and_dset_create           7 10.0    0.007    0.009    0.407    0.498
 sum_up_and_integrate                 7  8.0    0.003    0.004    0.495    0.498
 integrate_v_rspace                   7  9.0    0.000    0.000    0.492    0.495
 yz_to_x                             59 14.0    0.037    0.053    0.368    0.495
 potential_pw2rs                      7 10.0    0.000    0.001    0.432    0.433
 mp_sum_d                           611  3.3    0.372    0.424    0.372    0.424
 init_scf_loop                        1  4.0    0.000    0.000    0.377    0.377
 rs_pw_transfer_RS2PW_250            15  9.9    0.187    0.221    0.350    0.368
 rs_pw_transfer_PW2RS_250            14 11.0    0.173    0.204    0.323    0.338
 mp_waitany                        1276 11.4    0.252    0.325    0.252    0.325
 put_rho0_on_grid                     7  9.0    0.004    0.005    0.280    0.291
 x_to_yz                             57 14.6    0.050    0.069    0.237    0.282
 integrate_vhg0_rspace                7  8.0    0.012    0.017    0.238    0.242
 calculate_vxc_atom                   7  8.0    0.002    0.027    0.240    0.240
 mp_waitall_1                     11320 13.7    0.177    0.226    0.177    0.226
 calculate_rho_atom                   7  9.0    0.071    0.202    0.071    0.203
 gaVxcgb_GC                           7  9.0    0.006    0.200    0.006    0.200
 grid_collocate_task_list             8  7.0    0.096    0.159    0.096    0.159
 xc_functional_eval                  21 10.9    0.000    0.000    0.057    0.140
 pbe_lda_eval                        21 11.9    0.057    0.139    0.057    0.139
 mp_sum_dv                           31 11.2    0.109    0.119    0.109    0.119
 dbcsr_multiply_generic             150  9.9    0.004    0.004    0.115    0.116
 pw_gather_p                         67 12.8    0.090    0.115    0.090    0.115
 rs_pw_transfer_PW2RS_90              7 12.0    0.020    0.024    0.093    0.109
 init_scf_run                         1  3.0    0.000    0.000    0.108    0.108
 scf_env_initial_rho_setup            1  4.0    0.000    0.000    0.108    0.108
 qs_scf_new_mos                       7  5.0    0.000    0.000    0.107    0.107
 qs_scf_loop_do_ot                    7  6.0    0.000    0.000    0.107    0.107
 pw_scatter_p                        64 13.6    0.093    0.103    0.093    0.103
 ot_scf_mini                          7  7.0    0.000    0.000    0.102    0.102
 qs_init_subsys                       1  2.0    0.002    0.002    0.101    0.101
 rs_pw_transfer_RS2PW_90              8  9.0    0.023    0.026    0.085    0.089
 rs_grid_zero                        28 10.8    0.068    0.079    0.068    0.079
 fft_wrap_pw1pw2_90                  15 11.4    0.003    0.004    0.063    0.077
 -------------------------------------------------------------------------------

 The number of warnings for this run is : 0
 
 -------------------------------------------------------------------------------
  **** **** ******  **  PROGRAM ENDED AT                 2022-07-03 18:39:15.231
 ***** ** ***  *** **   PROGRAM RAN ON                                   tcopt10
 **    ****   ******    PROGRAM RAN BY                                    hutter
 ***** **    ** ** **   PROGRAM PROCESS ID                                 25578
  **** **  *******  **  PROGRAM STOPPED IN /data/hutter/GITHUB/BASIS/scMOLOPT/PB
                                           E/noble
