 DBCSR| CPU Multiplication driver                                           XSMM
 DBCSR| Multrec recursion limit                                              512
 DBCSR| Multiplication stack size                                           1000
 DBCSR| Maximum elements for images                                    UNLIMITED
 DBCSR| Multiplicative factor virtual images                                   1
 DBCSR| Use multiplication densification                                       T
 DBCSR| Multiplication size stacks                                             3
 DBCSR| Use memory pool for CPU allocation                                     F
 DBCSR| Number of 3D layers                                               SINGLE
 DBCSR| Use MPI memory allocation                                              F
 DBCSR| Use RMA algorithm                                                      F
 DBCSR| Use Communication thread                                               T
 DBCSR| Communication thread load                                             87
 DBCSR| MPI: My node id                                                        0
 DBCSR| MPI: Number of nodes                                                  36
 DBCSR| OMP: Current number of threads                                         1
 DBCSR| OMP: Max number of threads                                             1
 DBCSR| Split modifier for TAS multiplication algorithm                  1.0E+00


  **** **** ******  **  PROGRAM STARTED AT               2022-07-03 18:38:58.667
 ***** ** ***  *** **   PROGRAM STARTED ON                               tcopt10
 **    ****   ******    PROGRAM STARTED BY                                hutter
 ***** **    ** ** **   PROGRAM PROCESS ID                                 25446
  **** **  *******  **  PROGRAM STARTED IN /data/hutter/GITHUB/BASIS/scMOLOPT/PB
                                           E/noble

 CP2K| version string:                   CP2K version 10.0 (Development Version)
 CP2K| source code revision number:                                  git:d19b00a
 CP2K| cp2kflags: omp libint fftw3 libxc elpa parallel mpi3 scalapack cosma xsmm
 CP2K|             spglib sirius libvori libbqb
 CP2K| is freely available from                            https://www.cp2k.org/
 CP2K| Program compiled at                      Wed 18 May 2022 12:15:59 PM CEST
 CP2K| Program compiled on                                               tcopt10
 CP2K| Program compiled for                                                local
 CP2K| Data directory path                   /data/hutter/GITHUB/TDLRI/cp2k/data
 CP2K| Input file name                                               Ne2-ref.inp

 GLOBAL| Force Environment number                                              1
 GLOBAL| Basis set file name                                        ../def2QZVPP
 GLOBAL| Potential file name                                        ../POTENTIAL
 GLOBAL| MM Potential file name                                     MM_POTENTIAL
 GLOBAL| Coordinate file name                                      __STD_INPUT__
 GLOBAL| Method name                                                        CP2K
 GLOBAL| Project name                                                     refNe2
 GLOBAL| Run type                                                         ENERGY
 GLOBAL| FFT library                                                       FFTW3
 GLOBAL| Diagonalization library                                            ELPA
 GLOBAL| Minimum number of eigenvectors for ELPA usage                        16
 GLOBAL| Orthonormality check for eigenvectors                          DISABLED
 GLOBAL| Matrix multiplication library                                     COSMA
 GLOBAL| All-to-all communication in single precision                          F
 GLOBAL| FFTs using library dependent lengths                                  F
 GLOBAL| Grid backend                                                       AUTO
 GLOBAL| Global print level                                                  LOW
 GLOBAL| MPI I/O enabled                                                       T
 GLOBAL| Total number of message passing processes                            36
 GLOBAL| Number of threads for this process                                    1
 GLOBAL| This output is from process                                           0
 GLOBAL| Stack size for threads created by OpenMP (OMP_STACKSIZE)        default
 GLOBAL| CPU model name                          AMD EPYC 7401 24-Core Processor
 GLOBAL| CPUID                                                              1002

 MEMORY| system memory details [Kb]
 MEMORY|                        rank 0           min           max       average
 MEMORY| MemTotal            263969132     263969132     263969132     263969132
 MEMORY| MemFree             204590620     204590620     204590620     204590620
 MEMORY| Buffers                   156           156           156           156
 MEMORY| Cached               52525896      52525896      52525896      52525896
 MEMORY| Slab                  2019040       2019040       2019040       2019040
 MEMORY| SReclaimable          1139196       1139196       1139196       1139196
 MEMORY| MemLikelyFree       258255868     258255868     258255868     258255868


 GENERATE|  Preliminary Number of Bonds generated:                             0
 GENERATE|  Achieved consistency in connectivity generation.

 *******************************************************************************
 *******************************************************************************
 **                                                                           **
 **     #####                         ##              ##                      **
 **    ##   ##            ##          ##              ##                      **
 **   ##     ##                       ##            ######                    **
 **   ##     ##  ##   ##  ##   #####  ##  ##   ####   ##    #####    #####    **
 **   ##     ##  ##   ##  ##  ##      ## ##   ##      ##   ##   ##  ##   ##   **
 **   ##  ## ##  ##   ##  ##  ##      ####     ###    ##   ######   ######    **
 **    ##  ###   ##   ##  ##  ##      ## ##      ##   ##   ##       ##        **
 **     #######   #####   ##   #####  ##  ##  ####    ##    #####   ##        **
 **           ##                                                    ##        **
 **                                                                           **
 **                                                ... make the atoms dance   **
 **                                                                           **
 **            Copyright (C) by CP2K developers group (2000-2022)             **
 **                      J. Chem. Phys. 152, 194103 (2020)                    **
 **                                                                           **
 *******************************************************************************


 TOTAL NUMBERS AND MAXIMUM NUMBERS

  Total number of            - Atomic kinds:                                   1
                             - Atoms:                                          2
                             - Shell sets:                                    34
                             - Shells:                                        34
                             - Primitive Cartesian functions:                 60
                             - Cartesian basis functions:                    144
                             - Spherical basis functions:                    114

  Maximum angular momentum of the orbital basis functions:                     4


 SCF PARAMETERS         Density guess:                                    ATOMIC
                        --------------------------------------------------------
                        max_scf:                                              10
                        max_scf_history:                                       0
                        max_diis:                                              4
                        --------------------------------------------------------
                        eps_scf:                                        1.00E-07
                        eps_scf_history:                                0.00E+00
                        eps_diis:                                       1.00E-01
                        eps_eigval:                                     1.00E-05
                        --------------------------------------------------------
                        level_shift [a.u.]:                             0.000000
                        --------------------------------------------------------
                        Outer loop SCF in use 
                        No variables optimised in outer loop
                        eps_scf                                         1.00E-07
                        max_scf                                               10
                        No outer loop optimization
                        step_size                                       5.00E-01

 Number of electrons:                                                         20
 Number of occupied orbitals:                                                 10
 Number of molecular orbitals:                                                10

 Number of orbital functions:                                                114
 Number of independent orbital functions:                                    114

 Extrapolation method: initial_guess


 SCF WAVEFUNCTION OPTIMIZATION

  ----------------------------------- OT ---------------------------------------
  Minimizer      : DIIS                : direct inversion
                                         in the iterative subspace
                                         using   7 DIIS vectors
                                         safer DIIS on
  Preconditioner : FULL_ALL            : diagonalization, state selective
  Precond_solver : DEFAULT
  stepsize       :    0.15000000                  energy_gap     :    0.08000000
  eps_taylor     :   0.10000E-15                  max_taylor     :             4
  ----------------------------------- OT ---------------------------------------

  Step     Update method      Time    Convergence         Total energy    Change
  ------------------------------------------------------------------------------
     1 OT DIIS     0.15E+00    0.4     0.00589339      -257.7263430547 -2.58E+02
     2 OT DIIS     0.15E+00    0.5     0.00226282      -257.7302851080 -3.94E-03
     3 OT DIIS     0.15E+00    0.5     0.00073553      -257.7309159463 -6.31E-04
     4 OT DIIS     0.15E+00    0.5     0.00003176      -257.7309565358 -4.06E-05
     5 OT DIIS     0.15E+00    0.5     0.00000117      -257.7309566774 -1.42E-07
     6 OT DIIS     0.15E+00    0.5     0.00000027      -257.7309566776 -1.68E-10
     7 OT DIIS     0.15E+00    0.5     0.00000001      -257.7309566776 -1.23E-11

  *** SCF run converged in     7 steps ***


  Electronic density on regular grids:        -13.7095129765        6.2904870235
  Core density on regular grids:               20.0000000000        0.0000000000
  Hard and soft densities (Lebedev):          -20.0002780306      -13.7097910158
  Total Rho_soft + Rho1_hard - Rho1_soft      -19.9999999913
  Total charge density (r-space):               0.0000000087
  Total Rho_soft + Rho0_soft (g-space):        -0.0000001319

  Overlap energy of the core charge distribution:               0.00000000000000
  Self energy of the core charge distribution:               -296.94188607776647
  Core Hamiltonian energy:                                      0.98707157598642
  Hartree energy:                                              27.13735746838879
  Exchange-correlation energy:                                 -8.99900600243552

  GAPW| Exc from hard and soft atomic rho1:                   -15.74893493750092
  GAPW| local Eh = 1 center integrals:                         35.83444129572096

  Total energy:                                              -257.73095667760668

  outer SCF iter =    1 RMS gradient =   0.12E-07 energy =       -257.7309566776
  outer SCF loop converged in   1 iterations or    7 steps


 ENERGY| Total FORCE_EVAL ( QS ) energy [a.u.]:             -257.730956677606684

 -------------------------------------------------------------------------------
 -                                                                             -
 -                                DBCSR STATISTICS                             -
 -                                                                             -
 -------------------------------------------------------------------------------
 COUNTER                                    TOTAL       BLAS       SMM       ACC
 flops    10 x    10 x    10                76000       0.0%    100.0%      0.0%
 flops    10 x    10 x    57               661200       0.0%    100.0%      0.0%
 flops    57 x    10 x    10               820800       0.0%    100.0%      0.0%
 flops    57 x    57 x    10              1559520       0.0%    100.0%      0.0%
 flops    57 x    10 x    57              9876960       0.0%    100.0%      0.0%
 flops inhomo. stacks                           0       0.0%      0.0%      0.0%
 flops total                        12.994480E+06       0.0%    100.0%      0.0%
 flops max/rank                      6.605920E+06       0.0%    100.0%      0.0%
 matmuls inhomo. stacks                         0       0.0%      0.0%      0.0%
 matmuls total                                344       0.0%    100.0%      0.0%
 number of processed stacks                   344       0.0%    100.0%      0.0%
 average stack size                                     0.0       1.0       0.0
 marketing flops                    13.537130E+06
 -------------------------------------------------------------------------------
 # multiplications                            150
 max memory usage/rank             280.748032E+06
 # max total images/rank                        1
 # max 3D layers                                1
 # MPI messages exchanged                   54000
 MPI messages size (bytes):
  total size                        26.950720E+06
  min size                           0.000000E+00
  max size                          25.992000E+03
  average size                     499.087402E+00
 MPI breakdown and total messages size (bytes):
             size <=      128               51200                        0
       128 < size <=     8192                2040                  7196800
      8192 < size <=    32768                 760                 19753920
     32768 < size <=   131072                   0                        0
    131072 < size <=  4194304                   0                        0
   4194304 < size <= 16777216                   0                        0
  16777216 < size                               0                        0
 -------------------------------------------------------------------------------
 -                                                                             -
 -                      DBCSR MESSAGE PASSING PERFORMANCE                      -
 -                                                                             -
 -------------------------------------------------------------------------------
 ROUTINE             CALLS      AVE VOLUME [Bytes]
 MP_Bcast                6                     12.
 MP_Allreduce          805                      9.
 MP_Alltoall           662                   2953.
 MP_ISend             3596                    940.
 MP_IRecv             3596                    452.
 -------------------------------------------------------------------------------

 -------------------------------------------------------------------------------
 -                                                                             -
 -                                GRID STATISTICS                              -
 -                                                                             -
 -------------------------------------------------------------------------------
 LP    KERNEL             BACKEND                              COUNT     PERCENT
 2     collocate ortho    REF                                    672      10.64%
 2     integrate ortho    REF                                    588       9.31%
 1     collocate ortho    REF                                    560       8.86%
 3     collocate ortho    REF                                    528       8.36%
 2     collocate general  REF                                    504       7.98%
 2     integrate general  REF                                    504       7.98%
 1     integrate ortho    REF                                    490       7.76%
 3     integrate ortho    REF                                    462       7.31%
 4     collocate ortho    REF                                    416       6.58%
 4     integrate ortho    REF                                    364       5.76%
 5     collocate ortho    REF                                    272       4.31%
 5     integrate ortho    REF                                    238       3.77%
 0     collocate ortho    REF                                    216       3.42%
 0     integrate ortho    REF                                    189       2.99%
 6     collocate ortho    REF                                    104       1.65%
 6     integrate ortho    REF                                     91       1.44%
 7     collocate ortho    REF                                     48       0.76%
 7     integrate ortho    REF                                     42       0.66%
 8     collocate ortho    REF                                     16       0.25%
 8     integrate ortho    REF                                     14       0.22%
 -------------------------------------------------------------------------------

 MEMORY| Estimated peak process memory [MiB]                                 282

 -------------------------------------------------------------------------------
 -                                                                             -
 -                         MESSAGE PASSING PERFORMANCE                         -
 -                                                                             -
 -------------------------------------------------------------------------------

 ROUTINE             CALLS      AVE VOLUME [Bytes]
 MP_Group                4
 MP_Bcast               79                 975740.
 MP_Allreduce          575                  38872.
 MP_Sync                10
 MP_Alltoall           174                9383470.
 MP_ISendRecv         1575                  92352.
 MP_Wait              2996
 MP_comm_split           3
 MP_ISend             1276                 204064.
 MP_IRecv             1276                 204146.
 MP_Recv                 4                   1824.
 -------------------------------------------------------------------------------


 -------------------------------------------------------------------------------
 -                                                                             -
 -                           R E F E R E N C E S                               -
 -                                                                             -
 -------------------------------------------------------------------------------
 
 CP2K version 10.0 (Development Version), the CP2K developers group (2022).
 CP2K is freely available from https://www.cp2k.org/ .

 Kuehne,Thomas D.; Iannuzzi,Marcella; Del Ben,Mauro;
 Rybkin,Vladimir V.; Seewald,Patrick; Stein,Frederick; Laino,Teodoro;
 Khaliullin,Rustam Z.; Schuett,Ole; Schiffmann,Florian; Golze,Dorothea;
 Wilhelm,Jan; Chulkov,Sergey; Bani-Hashemian,Mohammad Hossein;
 Weber,Valery; Borstnik,Urban; Taillefumier,Mathieu;
 Jakobovits,Alice Shoshana; Lazzaro,Alfio; Pabst,Hans; Mueller,Tiziano;
 Schade,Robert; Guidon,Manuel; Andermatt,Samuel; Holmberg,Nico;
 Schenter,Gregory K.; Hehn,Anna; Bussy,Augustin; Belleflamme,Fabian;
 Tabacchi,Gloria; Gloess,Andreas; Lass,Michael; Bethune,Iain;
 Mundy,Christopher J.; Plessl,Christian; Watkins,Matt;
 VandeVondele,Joost; Krack,Matthias; Hutter,Juerg. 
 The Journal of Chemical Physics, 152 (19), (2020). 
 CP2K: An electronic structure and molecular dynamics software package -
 Quickstep: Efficient and accurate electronic structure calculations.
 https://doi.org/10.1063/5.0007045

 Schuett, Ole; Messmer, Peter; Hutter, Juerg; VandeVondele, Joost. 
 Electronic Structure Calculations on Graphics Processing Units, John
 Wiley & Sons, Ltd, 173-190 (2016). 
 GPU-Accelerated Sparse Matrix-Matrix Multiplication for
 Linear Scaling Density Functional Theory.
 https://doi.org/10.1002/9781118670712.ch8

 Heinecke, A; Henry, G; Hutchinson, M; Pabst, H. 
 Proceedings of Intl. Supercomputing Conference, 981-991 (2016). 
 LIBXSMM: Accelerating Small Matrix Multiplications
 by Runtime Code Generation.
 https://doi.org/10.1109/SC.2016.83

 Borstnik, U; VandeVondele, J; Weber, V; Hutter, J. 
 PARALLEL COMPUTING, 40 (5-6), 47-58 (2014). 
 Sparse matrix multiplication: The distributed block-compressed sparse
 row library.
 https://doi.org/10.1016/j.parco.2014.03.012

 Hutter, J; Iannuzzi, M; Schiffmann, F; VandeVondele, J. 
 WIREs Comput Mol Sci., 4 (1), 15-25 (2014). 
 CP2K: atomistic simulations of condensed matter systems.
 https://doi.org/10.1002/wcms.1159

 Marek, A; Blum, V; Johanni, R; Havu, V; Lang, B; Auckenthaler, T;
 Heinecke, A; Bungartz, H; Lederer, H. 
 Journal of Physics: Condensed Matter, 26 (21), (2014). 
 The ELPA library: scalable parallel eigenvalue solutions for
 electronic structure
 theory and computational science.
 https://doi.org/10.1088/0953-8984/26/21/213201

 Frigo, M; Johnson, SG. 
 PROCEEDINGS OF THE IEEE, 93 (2), 216-231 (2005). 
 The design and implementation of FFTW3.
 https://doi.org/10.1109/JPROC.2004.840301

 VandeVondele, J; Hutter, J. 
 JOURNAL OF CHEMICAL PHYSICS, 118 (10), 4365-4369 (2003). 
 An efficient orbital transformation method for electronic structure
 calculations.
 https://doi.org/10.1063/1.1543154

 Lippert, G; Hutter, J; Parrinello, M. 
 THEORETICAL CHEMISTRY ACCOUNTS, 103 (2), 124-140 (1999). 
 The Gaussian and augmented-plane-wave density functional method for ab
 initio molecular dynamics simulations.
 https://doi.org/10.1007/s002140050523

 Krack, M; Parrinello, M. 
 PHYSICAL CHEMISTRY CHEMICAL PHYSICS, 2 (10), 2105-2112 (2000). 
 All-electron ab-initio molecular dynamics.
 https://doi.org/10.1039/b001167n

 Perdew, JP; Burke, K; Ernzerhof, M. 
 PHYSICAL REVIEW LETTERS, 77 (18), 3865-3868 (1996). 
 Generalized gradient approximation made simple.
 https://doi.org/10.1103/PhysRevLett.77.3865


 -------------------------------------------------------------------------------
 -                                                                             -
 -                                T I M I N G                                  -
 -                                                                             -
 -------------------------------------------------------------------------------
 SUBROUTINE                       CALLS  ASD         SELF TIME        TOTAL TIME
                                MAXIMUM       AVERAGE  MAXIMUM  AVERAGE  MAXIMUM
 CP2K                                 1  1.0    0.005    0.027    3.918    3.919
 qs_energies                          1  2.0    0.000    0.000    3.783    3.784
 scf_env_do_scf                       1  3.0    0.000    0.000    3.667    3.667
 scf_env_do_scf_inner_loop            7  4.0    0.000    0.000    3.261    3.262
 qs_ks_update_qs_env                  8  5.0    0.000    0.000    2.841    2.842
 rebuild_ks_matrix                    7  6.0    0.000    0.000    2.840    2.841
 qs_ks_build_kohn_sham_matrix         7  7.0    0.001    0.002    2.840    2.841
 pw_transfer                        152 10.1    0.014    0.017    1.423    1.527
 fft_wrap_pw1pw2                    131 11.2    0.002    0.002    1.398    1.503
 fft_wrap_pw1pw2_250                 86 12.6    0.076    0.094    1.319    1.431
 fft3d_ps                           131 13.2    0.525    0.688    1.134    1.238
 qs_vxc_create                        7  8.0    0.000    0.000    1.016    1.016
 xc_vxc_pw_create                     7  9.0    0.007    0.009    1.016    1.016
 rs_pw_transfer                      74  9.4    0.002    0.002    0.948    0.979
 xc_pw_derive                        42 11.0    0.000    0.000    0.760    0.843
 qs_rho_update_rho                    8  5.0    0.000    0.000    0.776    0.777
 calculate_rho_elec                   8  6.0    0.004    0.005    0.761    0.761
 mp_alltoall_z22v                   131 15.2    0.509    0.729    0.509    0.729
 density_rs2pw                        8  7.0    0.000    0.000    0.620    0.648
 xc_pw_divergence                     7 10.0    0.000    0.000    0.530    0.608
 sum_up_and_integrate                 7  8.0    0.003    0.004    0.554    0.556
 integrate_v_rspace                   7  9.0    0.000    0.000    0.551    0.553
 prepare_gapw_den                     7  8.0    0.000    0.000    0.522    0.532
 xc_rho_set_and_dset_create           7 10.0    0.008    0.010    0.443    0.517
 yz_to_x                             59 14.0    0.040    0.067    0.352    0.491
 mp_sum_d                           611  3.3    0.380    0.435    0.380    0.435
 potential_pw2rs                      7 10.0    0.000    0.001    0.417    0.418
 rs_pw_transfer_RS2PW_250            15  9.9    0.186    0.226    0.387    0.410
 init_scf_loop                        1  4.0    0.000    0.000    0.404    0.404
 mp_waitany                        1276 11.4    0.294    0.376    0.294    0.376
 rs_pw_transfer_PW2RS_250            14 11.0    0.174    0.206    0.329    0.345
 put_rho0_on_grid                     7  9.0    0.004    0.006    0.287    0.298
 x_to_yz                             57 14.6    0.050    0.069    0.245    0.297
 integrate_vhg0_rspace                7  8.0    0.024    0.033    0.282    0.286
 calculate_vxc_atom                   7  8.0    0.003    0.028    0.244    0.244
 grid_collocate_task_list             8  7.0    0.099    0.234    0.099    0.234
 gaVxcgb_GC                           7  9.0    0.011    0.203    0.011    0.203
 calculate_rho_atom                   7  9.0    0.075    0.203    0.075    0.203
 mp_waitall_1                     11320 13.7    0.165    0.199    0.165    0.199
 xc_functional_eval                  21 10.9    0.000    0.000    0.083    0.150
 pbe_lda_eval                        21 11.9    0.083    0.150    0.083    0.150
 mp_alltoall_d11v                   183 10.7    0.132    0.139    0.132    0.139
 rs_gather_matrices                   7 10.0    0.000    0.000    0.127    0.134
 grid_integrate_task_list             7 10.0    0.007    0.134    0.007    0.134
 mp_sum_dv                           31 11.2    0.087    0.123    0.087    0.123
 dbcsr_multiply_generic             150  9.9    0.004    0.004    0.121    0.123
 pw_gather_p                         67 12.8    0.090    0.119    0.090    0.119
 qs_scf_new_mos                       7  5.0    0.000    0.000    0.113    0.113
 qs_scf_loop_do_ot                    7  6.0    0.000    0.000    0.113    0.113
 ot_scf_mini                          7  7.0    0.000    0.000    0.107    0.108
 rs_pw_transfer_PW2RS_90              7 12.0    0.020    0.024    0.091    0.107
 init_scf_run                         1  3.0    0.000    0.000    0.106    0.106
 scf_env_initial_rho_setup            1  4.0    0.000    0.000    0.106    0.106
 pw_scatter_p                        64 13.6    0.093    0.106    0.093    0.106
 calculate_rho0_atom                  7  9.0    0.072    0.099    0.072    0.099
 qs_init_subsys                       1  2.0    0.002    0.002    0.090    0.090
 -------------------------------------------------------------------------------

 The number of warnings for this run is : 0
 
 -------------------------------------------------------------------------------
  **** **** ******  **  PROGRAM ENDED AT                 2022-07-03 18:39:02.965
 ***** ** ***  *** **   PROGRAM RAN ON                                   tcopt10
 **    ****   ******    PROGRAM RAN BY                                    hutter
 ***** **    ** ** **   PROGRAM PROCESS ID                                 25446
  **** **  *******  **  PROGRAM STOPPED IN /data/hutter/GITHUB/BASIS/scMOLOPT/PB
                                           E/noble
