 DBCSR| CPU Multiplication driver                                           XSMM
 DBCSR| Multrec recursion limit                                              512
 DBCSR| Multiplication stack size                                           1000
 DBCSR| Maximum elements for images                                    UNLIMITED
 DBCSR| Multiplicative factor virtual images                                   1
 DBCSR| Use multiplication densification                                       T
 DBCSR| Multiplication size stacks                                             3
 DBCSR| Use memory pool for CPU allocation                                     F
 DBCSR| Number of 3D layers                                               SINGLE
 DBCSR| Use MPI memory allocation                                              F
 DBCSR| Use RMA algorithm                                                      F
 DBCSR| Use Communication thread                                               T
 DBCSR| Communication thread load                                             87
 DBCSR| MPI: My node id                                                        0
 DBCSR| MPI: Number of nodes                                                  36
 DBCSR| OMP: Current number of threads                                         1
 DBCSR| OMP: Max number of threads                                             1
 DBCSR| Split modifier for TAS multiplication algorithm                  1.0E+00


  **** **** ******  **  PROGRAM STARTED AT               2022-07-03 18:40:22.264
 ***** ** ***  *** **   PROGRAM STARTED ON                               tcopt10
 **    ****   ******    PROGRAM STARTED BY                                hutter
 ***** **    ** ** **   PROGRAM PROCESS ID                                 26133
  **** **  *******  **  PROGRAM STARTED IN /data/hutter/GITHUB/BASIS/scMOLOPT/PB
                                           E/noble

 CP2K| version string:                   CP2K version 10.0 (Development Version)
 CP2K| source code revision number:                                  git:d19b00a
 CP2K| cp2kflags: omp libint fftw3 libxc elpa parallel mpi3 scalapack cosma xsmm
 CP2K|             spglib sirius libvori libbqb
 CP2K| is freely available from                            https://www.cp2k.org/
 CP2K| Program compiled at                      Wed 18 May 2022 12:15:59 PM CEST
 CP2K| Program compiled on                                               tcopt10
 CP2K| Program compiled for                                                local
 CP2K| Data directory path                   /data/hutter/GITHUB/TDLRI/cp2k/data
 CP2K| Input file name                                                Xe-ref.inp

 GLOBAL| Force Environment number                                              1
 GLOBAL| Basis set file name                                        ../def2QZVPP
 GLOBAL| Potential file name                                        ../POTENTIAL
 GLOBAL| MM Potential file name                                     MM_POTENTIAL
 GLOBAL| Coordinate file name                                      __STD_INPUT__
 GLOBAL| Method name                                                        CP2K
 GLOBAL| Project name                                                      refXe
 GLOBAL| Run type                                                         ENERGY
 GLOBAL| FFT library                                                       FFTW3
 GLOBAL| Diagonalization library                                            ELPA
 GLOBAL| Minimum number of eigenvectors for ELPA usage                        16
 GLOBAL| Orthonormality check for eigenvectors                          DISABLED
 GLOBAL| Matrix multiplication library                                     COSMA
 GLOBAL| All-to-all communication in single precision                          F
 GLOBAL| FFTs using library dependent lengths                                  F
 GLOBAL| Grid backend                                                       AUTO
 GLOBAL| Global print level                                                  LOW
 GLOBAL| MPI I/O enabled                                                       T
 GLOBAL| Total number of message passing processes                            36
 GLOBAL| Number of threads for this process                                    1
 GLOBAL| This output is from process                                           0
 GLOBAL| Stack size for threads created by OpenMP (OMP_STACKSIZE)        default
 GLOBAL| CPU model name                          AMD EPYC 7401 24-Core Processor
 GLOBAL| CPUID                                                              1002

 MEMORY| system memory details [Kb]
 MEMORY|                        rank 0           min           max       average
 MEMORY| MemTotal            263969132     263969132     263969132     263969132
 MEMORY| MemFree             204544228     204544228     204544228     204544228
 MEMORY| Buffers                   156           156           156           156
 MEMORY| Cached               52526680      52526676      52526680      52526677
 MEMORY| Slab                  2019852       2019852       2019852       2019852
 MEMORY| SReclaimable          1138244       1138244       1138244       1138244
 MEMORY| MemLikelyFree       258209308     258209304     258209308     258209305


 GENERATE|  Preliminary Number of Bonds generated:                             0
 GENERATE|  Achieved consistency in connectivity generation.

 *******************************************************************************
 *******************************************************************************
 **                                                                           **
 **     #####                         ##              ##                      **
 **    ##   ##            ##          ##              ##                      **
 **   ##     ##                       ##            ######                    **
 **   ##     ##  ##   ##  ##   #####  ##  ##   ####   ##    #####    #####    **
 **   ##     ##  ##   ##  ##  ##      ## ##   ##      ##   ##   ##  ##   ##   **
 **   ##  ## ##  ##   ##  ##  ##      ####     ###    ##   ######   ######    **
 **    ##  ###   ##   ##  ##  ##      ## ##      ##   ##   ##       ##        **
 **     #######   #####   ##   #####  ##  ##  ####    ##    #####   ##        **
 **           ##                                                    ##        **
 **                                                                           **
 **                                                ... make the atoms dance   **
 **                                                                           **
 **            Copyright (C) by CP2K developers group (2000-2022)             **
 **                      J. Chem. Phys. 152, 194103 (2020)                    **
 **                                                                           **
 *******************************************************************************


 TOTAL NUMBERS AND MAXIMUM NUMBERS

  Total number of            - Atomic kinds:                                   1
                             - Atoms:                                          1
                             - Shell sets:                                    22
                             - Shells:                                        22
                             - Primitive Cartesian functions:                 47
                             - Cartesian basis functions:                    104
                             - Spherical basis functions:                     82

  Maximum angular momentum of- Orbital basis functions:                        4
                             - Local part of the GTH pseudopotential:          4
                             - Non-local part of the GTH pseudopotential:      4


 SCF PARAMETERS         Density guess:                                    ATOMIC
                        --------------------------------------------------------
                        max_scf:                                              10
                        max_scf_history:                                       0
                        max_diis:                                              4
                        --------------------------------------------------------
                        eps_scf:                                        1.00E-07
                        eps_scf_history:                                0.00E+00
                        eps_diis:                                       1.00E-01
                        eps_eigval:                                     1.00E-05
                        --------------------------------------------------------
                        level_shift [a.u.]:                             0.000000
                        --------------------------------------------------------
                        Outer loop SCF in use 
                        No variables optimised in outer loop
                        eps_scf                                         1.00E-07
                        max_scf                                               10
                        No outer loop optimization
                        step_size                                       5.00E-01

 Number of electrons:                                                         26
 Number of occupied orbitals:                                                 13
 Number of molecular orbitals:                                                13

 Number of orbital functions:                                                 82
 Number of independent orbital functions:                                     82

 Extrapolation method: initial_guess


 SCF WAVEFUNCTION OPTIMIZATION

  ----------------------------------- OT ---------------------------------------
  Minimizer      : DIIS                : direct inversion
                                         in the iterative subspace
                                         using   7 DIIS vectors
                                         safer DIIS on
  Preconditioner : FULL_ALL            : diagonalization, state selective
  Precond_solver : DEFAULT
  stepsize       :    0.15000000                  energy_gap     :    0.08000000
  eps_taylor     :   0.10000E-15                  max_taylor     :             4
  ----------------------------------- OT ---------------------------------------

  Step     Update method      Time    Convergence         Total energy    Change
  ------------------------------------------------------------------------------
     1 OT DIIS     0.15E+00    0.7     0.00318134      -311.5782227117 -3.12E+02
     2 OT DIIS     0.15E+00    0.8     0.00110629      -311.5793006125 -1.08E-03
     3 OT DIIS     0.15E+00    0.8     0.00015683      -311.5794569005 -1.56E-04
     4 OT DIIS     0.15E+00    0.8     0.00003172      -311.5794598470 -2.95E-06
     5 OT DIIS     0.15E+00    0.8     0.00000393      -311.5794599269 -8.00E-08
     6 OT DIIS     0.15E+00    0.8     0.00000043      -311.5794599289 -1.99E-09
     7 OT DIIS     0.15E+00    0.8     0.00000007      -311.5794599289 -1.73E-11

  *** SCF run converged in     7 steps ***


  Electronic density on regular grids:        -27.1065715997       -1.1065715997
  Core density on regular grids:               26.0000000000        0.0000000000
  Hard and soft densities (Lebedev):          -26.0000000769      -27.1065716767
  Total Rho_soft + Rho1_hard - Rho1_soft      -26.0000000000
  Total charge density (r-space):              -0.0000000000
  Total Rho_soft + Rho0_soft (g-space):        -0.0000002631

  Overlap energy of the core charge distribution:               0.00000000000000
  Self energy of the core charge distribution:               -501.25345440607379
  Core Hamiltonian energy:                                    109.68616048773330
  Hartree energy:                                             239.98092736653962
  Exchange-correlation energy:                                -23.47093994720302

  GAPW| Exc from hard and soft atomic rho1:                     1.84627238052275
  GAPW| local Eh = 1 center integrals:                       -138.36842581045934

  Total energy:                                              -311.57945992894054

  outer SCF iter =    1 RMS gradient =   0.74E-07 energy =       -311.5794599289
  outer SCF loop converged in   1 iterations or    7 steps


 ENERGY| Total FORCE_EVAL ( QS ) energy [a.u.]:             -311.579459928940537

 -------------------------------------------------------------------------------
 -                                                                             -
 -                                DBCSR STATISTICS                             -
 -                                                                             -
 -------------------------------------------------------------------------------
 COUNTER                                    TOTAL       BLAS       SMM       ACC
 flops    13 x    13 x    13               281216       0.0%    100.0%      0.0%
 flops    13 x    13 x    82               803764       0.0%    100.0%      0.0%
 flops    82 x    13 x    13               997776       0.0%    100.0%      0.0%
 flops    82 x    82 x    13              1398592       0.0%    100.0%      0.0%
 flops    82 x    13 x    82              6643312       0.0%    100.0%      0.0%
 flops inhomo. stacks                           0       0.0%      0.0%      0.0%
 flops total                        10.124660E+06       0.0%    100.0%      0.0%
 flops max/rank                     10.124660E+06       0.0%    100.0%      0.0%
 matmuls inhomo. stacks                         0       0.0%      0.0%      0.0%
 matmuls total                                175       0.0%    100.0%      0.0%
 number of processed stacks                   175       0.0%    100.0%      0.0%
 average stack size                                     0.0       1.0       0.0
 marketing flops                    10.152386E+06
 -------------------------------------------------------------------------------
 # multiplications                            176
 max memory usage/rank             533.487616E+06
 # max total images/rank                        1
 # max 3D layers                                1
 # MPI messages exchanged                   63360
 MPI messages size (bytes):
  total size                        17.639840E+06
  min size                           0.000000E+00
  max size                          53.792000E+03
  average size                     278.406555E+00
 MPI breakdown and total messages size (bytes):
             size <=      128               61610                        0
       128 < size <=     8192                 820                  1108640
      8192 < size <=    32768                 740                  6310720
     32768 < size <=   131072                 190                 10220480
    131072 < size <=  4194304                   0                        0
   4194304 < size <= 16777216                   0                        0
  16777216 < size                               0                        0
 -------------------------------------------------------------------------------
 -                                                                             -
 -                      DBCSR MESSAGE PASSING PERFORMANCE                      -
 -                                                                             -
 -------------------------------------------------------------------------------
 ROUTINE             CALLS      AVE VOLUME [Bytes]
 MP_Bcast                6                     12.
 MP_Allreduce          935                      8.
 MP_Alltoall           714                   3606.
 MP_ISend             4220                    892.
 MP_IRecv             4220                     55.
 -------------------------------------------------------------------------------

 -------------------------------------------------------------------------------
 -                                                                             -
 -                                GRID STATISTICS                              -
 -                                                                             -
 -------------------------------------------------------------------------------
 LP    KERNEL             BACKEND                              COUNT     PERCENT
 2     collocate ortho    REF                                   1208      12.45%
 2     integrate ortho    REF                                   1057      10.90%
 3     collocate ortho    REF                                   1056      10.89%
 3     integrate ortho    REF                                    924       9.53%
 1     collocate ortho    REF                                    864       8.91%
 4     collocate ortho    REF                                    816       8.41%
 1     integrate ortho    REF                                    756       7.79%
 4     integrate ortho    REF                                    714       7.36%
 5     collocate ortho    REF                                    400       4.12%
 5     integrate ortho    REF                                    350       3.61%
 0     collocate ortho    REF                                    336       3.46%
 0     integrate ortho    REF                                    294       3.03%
 2     collocate general  REF                                    252       2.60%
 2     integrate general  REF                                    252       2.60%
 6     collocate ortho    REF                                    168       1.73%
 6     integrate ortho    REF                                    147       1.52%
 7     collocate ortho    REF                                     48       0.49%
 7     integrate ortho    REF                                     42       0.43%
 8     collocate ortho    REF                                      8       0.08%
 8     integrate ortho    REF                                      7       0.07%
 -------------------------------------------------------------------------------

 MEMORY| Estimated peak process memory [MiB]                                 509

 -------------------------------------------------------------------------------
 -                                                                             -
 -                         MESSAGE PASSING PERFORMANCE                         -
 -                                                                             -
 -------------------------------------------------------------------------------

 ROUTINE             CALLS      AVE VOLUME [Bytes]
 MP_Group                4
 MP_Bcast               93                2200727.
 MP_Allreduce          552                 260705.
 MP_Sync                10
 MP_Alltoall           174               13298700.
 MP_ISendRecv         1575                  92352.
 MP_Wait              2996
 MP_comm_split           3
 MP_ISend             1276                 213961.
 MP_IRecv             1276                 214043.
 MP_Recv                 4                   1968.
 -------------------------------------------------------------------------------


 -------------------------------------------------------------------------------
 -                                                                             -
 -                           R E F E R E N C E S                               -
 -                                                                             -
 -------------------------------------------------------------------------------
 
 CP2K version 10.0 (Development Version), the CP2K developers group (2022).
 CP2K is freely available from https://www.cp2k.org/ .

 Kuehne,Thomas D.; Iannuzzi,Marcella; Del Ben,Mauro;
 Rybkin,Vladimir V.; Seewald,Patrick; Stein,Frederick; Laino,Teodoro;
 Khaliullin,Rustam Z.; Schuett,Ole; Schiffmann,Florian; Golze,Dorothea;
 Wilhelm,Jan; Chulkov,Sergey; Bani-Hashemian,Mohammad Hossein;
 Weber,Valery; Borstnik,Urban; Taillefumier,Mathieu;
 Jakobovits,Alice Shoshana; Lazzaro,Alfio; Pabst,Hans; Mueller,Tiziano;
 Schade,Robert; Guidon,Manuel; Andermatt,Samuel; Holmberg,Nico;
 Schenter,Gregory K.; Hehn,Anna; Bussy,Augustin; Belleflamme,Fabian;
 Tabacchi,Gloria; Gloess,Andreas; Lass,Michael; Bethune,Iain;
 Mundy,Christopher J.; Plessl,Christian; Watkins,Matt;
 VandeVondele,Joost; Krack,Matthias; Hutter,Juerg. 
 The Journal of Chemical Physics, 152 (19), (2020). 
 CP2K: An electronic structure and molecular dynamics software package -
 Quickstep: Efficient and accurate electronic structure calculations.
 https://doi.org/10.1063/5.0007045

 Schuett, Ole; Messmer, Peter; Hutter, Juerg; VandeVondele, Joost. 
 Electronic Structure Calculations on Graphics Processing Units, John
 Wiley & Sons, Ltd, 173-190 (2016). 
 GPU-Accelerated Sparse Matrix-Matrix Multiplication for
 Linear Scaling Density Functional Theory.
 https://doi.org/10.1002/9781118670712.ch8

 Heinecke, A; Henry, G; Hutchinson, M; Pabst, H. 
 Proceedings of Intl. Supercomputing Conference, 981-991 (2016). 
 LIBXSMM: Accelerating Small Matrix Multiplications
 by Runtime Code Generation.
 https://doi.org/10.1109/SC.2016.83

 Borstnik, U; VandeVondele, J; Weber, V; Hutter, J. 
 PARALLEL COMPUTING, 40 (5-6), 47-58 (2014). 
 Sparse matrix multiplication: The distributed block-compressed sparse
 row library.
 https://doi.org/10.1016/j.parco.2014.03.012

 Hutter, J; Iannuzzi, M; Schiffmann, F; VandeVondele, J. 
 WIREs Comput Mol Sci., 4 (1), 15-25 (2014). 
 CP2K: atomistic simulations of condensed matter systems.
 https://doi.org/10.1002/wcms.1159

 Marek, A; Blum, V; Johanni, R; Havu, V; Lang, B; Auckenthaler, T;
 Heinecke, A; Bungartz, H; Lederer, H. 
 Journal of Physics: Condensed Matter, 26 (21), (2014). 
 The ELPA library: scalable parallel eigenvalue solutions for
 electronic structure
 theory and computational science.
 https://doi.org/10.1088/0953-8984/26/21/213201

 Krack, M. 
 THEORETICAL CHEMISTRY ACCOUNTS, 114 (1-3), 145-152 (2005). 
 Pseudopotentials for H to Kr optimized for gradient-corrected
 exchange-correlation functionals.
 https://doi.org/10.1007/s00214-005-0655-y

 Frigo, M; Johnson, SG. 
 PROCEEDINGS OF THE IEEE, 93 (2), 216-231 (2005). 
 The design and implementation of FFTW3.
 https://doi.org/10.1109/JPROC.2004.840301

 VandeVondele, J; Hutter, J. 
 JOURNAL OF CHEMICAL PHYSICS, 118 (10), 4365-4369 (2003). 
 An efficient orbital transformation method for electronic structure
 calculations.
 https://doi.org/10.1063/1.1543154

 Lippert, G; Hutter, J; Parrinello, M. 
 THEORETICAL CHEMISTRY ACCOUNTS, 103 (2), 124-140 (1999). 
 The Gaussian and augmented-plane-wave density functional method for ab
 initio molecular dynamics simulations.
 https://doi.org/10.1007/s002140050523

 Krack, M; Parrinello, M. 
 PHYSICAL CHEMISTRY CHEMICAL PHYSICS, 2 (10), 2105-2112 (2000). 
 All-electron ab-initio molecular dynamics.
 https://doi.org/10.1039/b001167n

 Hartwigsen, C; Goedecker, S; Hutter, J. 
 PHYSICAL REVIEW B, 58 (7), 3641-3662 (1998). 
 Relativistic separable dual-space Gaussian pseudopotentials from H to Rn.
 https://doi.org/10.1103/PhysRevB.58.3641

 Perdew, JP; Burke, K; Ernzerhof, M. 
 PHYSICAL REVIEW LETTERS, 77 (18), 3865-3868 (1996). 
 Generalized gradient approximation made simple.
 https://doi.org/10.1103/PhysRevLett.77.3865

 Goedecker, S; Teter, M; Hutter, J. 
 PHYSICAL REVIEW B, 54 (3), 1703-1710 (1996). 
 Separable dual-space Gaussian pseudopotentials.
 https://doi.org/10.1103/PhysRevB.54.1703


 -------------------------------------------------------------------------------
 -                                                                             -
 -                                T I M I N G                                  -
 -                                                                             -
 -------------------------------------------------------------------------------
 SUBROUTINE                       CALLS  ASD         SELF TIME        TOTAL TIME
                                MAXIMUM       AVERAGE  MAXIMUM  AVERAGE  MAXIMUM
 CP2K                                 1  1.0    0.010    0.032    6.083    6.084
 qs_energies                          1  2.0    0.000    0.000    5.837    5.837
 scf_env_do_scf                       1  3.0    0.000    0.000    5.684    5.684
 scf_env_do_scf_inner_loop            7  4.0    0.000    0.000    4.989    4.989
 qs_ks_update_qs_env                  8  5.0    0.000    0.000    4.822    4.823
 rebuild_ks_matrix                    7  6.0    0.000    0.000    4.820    4.821
 qs_ks_build_kohn_sham_matrix         7  7.0    0.001    0.002    4.820    4.821
 pw_transfer                        152 10.1    0.014    0.017    1.481    1.645
 fft_wrap_pw1pw2                    131 11.2    0.002    0.002    1.455    1.620
 fft_wrap_pw1pw2_250                 86 12.6    0.075    0.091    1.373    1.561
 prepare_gapw_den                     7  8.0    0.000    0.000    1.449    1.464
 fft3d_ps                           131 13.2    0.525    0.748    1.191    1.311
 qs_vxc_create                        7  8.0    0.000    0.000    1.140    1.141
 xc_vxc_pw_create                     7  9.0    0.007    0.009    1.140    1.140
 rs_pw_transfer                      74  9.4    0.002    0.002    0.963    1.009
 xc_pw_derive                        42 11.0    0.000    0.000    0.799    0.959
 calculate_rho0_atom                  7  9.0    0.779    0.934    0.779    0.934
 mp_sum_d                           615  3.3    0.843    0.916    0.843    0.916
 mp_alltoall_z22v                   131 15.2    0.566    0.807    0.566    0.807
 qs_rho_update_rho                    8  5.0    0.000    0.000    0.796    0.798
 calculate_rho_elec                   8  6.0    0.004    0.005    0.745    0.745
 xc_pw_divergence                     7 10.0    0.000    0.000    0.582    0.735
 calculate_rho_atom                   7  9.0    0.182    0.703    0.182    0.703
 init_scf_loop                        1  4.0    0.000    0.000    0.695    0.695
 density_rs2pw                        8  7.0    0.000    0.000    0.597    0.642
 integrate_vhg0_rspace                7  8.0    0.062    0.168    0.553    0.640
 xc_rho_set_and_dset_create           7 10.0    0.008    0.012    0.520    0.634
 sum_up_and_integrate                 7  8.0    0.003    0.004    0.618    0.625
 integrate_v_rspace                   7  9.0    0.000    0.000    0.616    0.622
 yz_to_x                             59 14.0    0.039    0.058    0.416    0.594
 calculate_vxc_atom                   7  8.0    0.002    0.028    0.593    0.593
 gaVxcgb_GC                           7  9.0    0.015    0.552    0.015    0.552
 potential_pw2rs                      7 10.0    0.000    0.001    0.458    0.459
 rs_pw_transfer_RS2PW_250            15  9.9    0.178    0.219    0.368    0.408
 mp_sum_dm                           23  7.6    0.340    0.377    0.340    0.377
 rs_pw_transfer_PW2RS_250            14 11.0    0.193    0.228    0.355    0.372
 mp_waitany                        1276 11.4    0.286    0.364    0.286    0.364
 put_rho0_on_grid                     7  9.0    0.004    0.005    0.292    0.307
 x_to_yz                             57 14.6    0.050    0.074    0.238    0.289
 mp_sum_dv                           31 11.2    0.196    0.271    0.196    0.271
 xc_functional_eval                  21 10.9    0.000    0.000    0.166    0.269
 pbe_lda_eval                        21 11.9    0.166    0.269    0.166    0.269
 mp_waitall_1                     12984 13.9    0.173    0.247    0.173    0.247
 grid_collocate_task_list             8  7.0    0.106    0.233    0.106    0.233
 Vh_1c_gg_integrals                   7  8.0    0.024    0.201    0.196    0.207
 qs_init_subsys                       1  2.0    0.004    0.004    0.172    0.172
 mp_alltoall_d11v                   183 10.7    0.153    0.164    0.153    0.164
 rs_gather_matrices                   7 10.0    0.000    0.002    0.145    0.156
 grid_integrate_task_list             7 10.0    0.013    0.154    0.013    0.154
 dbcsr_multiply_generic             176 10.0    0.005    0.005    0.151    0.154
 qs_scf_new_mos                       7  5.0    0.000    0.000    0.138    0.139
 qs_scf_loop_do_ot                    7  6.0    0.000    0.000    0.138    0.139
 ot_scf_mini                          7  7.0    0.000    0.000    0.132    0.133
 pw_gather_p                         67 12.8    0.091    0.125    0.091    0.125
 -------------------------------------------------------------------------------

 The number of warnings for this run is : 0
 
 -------------------------------------------------------------------------------
  **** **** ******  **  PROGRAM ENDED AT                 2022-07-03 18:40:28.739
 ***** ** ***  *** **   PROGRAM RAN ON                                   tcopt10
 **    ****   ******    PROGRAM RAN BY                                    hutter
 ***** **    ** ** **   PROGRAM PROCESS ID                                 26133
  **** **  *******  **  PROGRAM STOPPED IN /data/hutter/GITHUB/BASIS/scMOLOPT/PB
                                           E/noble
