 DBCSR| CPU Multiplication driver                                           XSMM
 DBCSR| Multrec recursion limit                                              512
 DBCSR| Multiplication stack size                                           1000
 DBCSR| Maximum elements for images                                    UNLIMITED
 DBCSR| Multiplicative factor virtual images                                   1
 DBCSR| Use multiplication densification                                       T
 DBCSR| Multiplication size stacks                                             3
 DBCSR| Use memory pool for CPU allocation                                     F
 DBCSR| Number of 3D layers                                               SINGLE
 DBCSR| Use MPI memory allocation                                              F
 DBCSR| Use RMA algorithm                                                      F
 DBCSR| Use Communication thread                                               T
 DBCSR| Communication thread load                                             87
 DBCSR| MPI: My node id                                                        0
 DBCSR| MPI: Number of nodes                                                  36
 DBCSR| OMP: Current number of threads                                         1
 DBCSR| OMP: Max number of threads                                             1
 DBCSR| Split modifier for TAS multiplication algorithm                  1.0E+00


  **** **** ******  **  PROGRAM STARTED AT               2022-07-03 18:40:07.275
 ***** ** ***  *** **   PROGRAM STARTED ON                               tcopt10
 **    ****   ******    PROGRAM STARTED BY                                hutter
 ***** **    ** ** **   PROGRAM PROCESS ID                                 25999
  **** **  *******  **  PROGRAM STARTED IN /data/hutter/GITHUB/BASIS/scMOLOPT/PB
                                           E/noble

 CP2K| version string:                   CP2K version 10.0 (Development Version)
 CP2K| source code revision number:                                  git:d19b00a
 CP2K| cp2kflags: omp libint fftw3 libxc elpa parallel mpi3 scalapack cosma xsmm
 CP2K|             spglib sirius libvori libbqb
 CP2K| is freely available from                            https://www.cp2k.org/
 CP2K| Program compiled at                      Wed 18 May 2022 12:15:59 PM CEST
 CP2K| Program compiled on                                               tcopt10
 CP2K| Program compiled for                                                local
 CP2K| Data directory path                   /data/hutter/GITHUB/TDLRI/cp2k/data
 CP2K| Input file name                                               Xe2-ref.inp

 GLOBAL| Force Environment number                                              1
 GLOBAL| Basis set file name                                        ../def2QZVPP
 GLOBAL| Potential file name                                        ../POTENTIAL
 GLOBAL| MM Potential file name                                     MM_POTENTIAL
 GLOBAL| Coordinate file name                                      __STD_INPUT__
 GLOBAL| Method name                                                        CP2K
 GLOBAL| Project name                                                     refXe2
 GLOBAL| Run type                                                         ENERGY
 GLOBAL| FFT library                                                       FFTW3
 GLOBAL| Diagonalization library                                            ELPA
 GLOBAL| Minimum number of eigenvectors for ELPA usage                        16
 GLOBAL| Orthonormality check for eigenvectors                          DISABLED
 GLOBAL| Matrix multiplication library                                     COSMA
 GLOBAL| All-to-all communication in single precision                          F
 GLOBAL| FFTs using library dependent lengths                                  F
 GLOBAL| Grid backend                                                       AUTO
 GLOBAL| Global print level                                                  LOW
 GLOBAL| MPI I/O enabled                                                       T
 GLOBAL| Total number of message passing processes                            36
 GLOBAL| Number of threads for this process                                    1
 GLOBAL| This output is from process                                           0
 GLOBAL| Stack size for threads created by OpenMP (OMP_STACKSIZE)        default
 GLOBAL| CPU model name                          AMD EPYC 7401 24-Core Processor
 GLOBAL| CPUID                                                              1002

 MEMORY| system memory details [Kb]
 MEMORY|                        rank 0           min           max       average
 MEMORY| MemTotal            263969132     263969132     263969132     263969132
 MEMORY| MemFree             204566900     204566900     204566900     204566900
 MEMORY| Buffers                   156           156           156           156
 MEMORY| Cached               52526752      52526748      52526752      52526748
 MEMORY| Slab                  2019580       2019580       2019580       2019580
 MEMORY| SReclaimable          1138324       1138324       1138324       1138324
 MEMORY| MemLikelyFree       258232132     258232128     258232132     258232128


 GENERATE|  Preliminary Number of Bonds generated:                             0
 GENERATE|  Achieved consistency in connectivity generation.

 *******************************************************************************
 *******************************************************************************
 **                                                                           **
 **     #####                         ##              ##                      **
 **    ##   ##            ##          ##              ##                      **
 **   ##     ##                       ##            ######                    **
 **   ##     ##  ##   ##  ##   #####  ##  ##   ####   ##    #####    #####    **
 **   ##     ##  ##   ##  ##  ##      ## ##   ##      ##   ##   ##  ##   ##   **
 **   ##  ## ##  ##   ##  ##  ##      ####     ###    ##   ######   ######    **
 **    ##  ###   ##   ##  ##  ##      ## ##      ##   ##   ##       ##        **
 **     #######   #####   ##   #####  ##  ##  ####    ##    #####   ##        **
 **           ##                                                    ##        **
 **                                                                           **
 **                                                ... make the atoms dance   **
 **                                                                           **
 **            Copyright (C) by CP2K developers group (2000-2022)             **
 **                      J. Chem. Phys. 152, 194103 (2020)                    **
 **                                                                           **
 *******************************************************************************


 TOTAL NUMBERS AND MAXIMUM NUMBERS

  Total number of            - Atomic kinds:                                   1
                             - Atoms:                                          2
                             - Shell sets:                                    44
                             - Shells:                                        44
                             - Primitive Cartesian functions:                 94
                             - Cartesian basis functions:                    208
                             - Spherical basis functions:                    164

  Maximum angular momentum of- Orbital basis functions:                        4
                             - Local part of the GTH pseudopotential:          4
                             - Non-local part of the GTH pseudopotential:      4


 SCF PARAMETERS         Density guess:                                    ATOMIC
                        --------------------------------------------------------
                        max_scf:                                              10
                        max_scf_history:                                       0
                        max_diis:                                              4
                        --------------------------------------------------------
                        eps_scf:                                        1.00E-07
                        eps_scf_history:                                0.00E+00
                        eps_diis:                                       1.00E-01
                        eps_eigval:                                     1.00E-05
                        --------------------------------------------------------
                        level_shift [a.u.]:                             0.000000
                        --------------------------------------------------------
                        Outer loop SCF in use 
                        No variables optimised in outer loop
                        eps_scf                                         1.00E-07
                        max_scf                                               10
                        No outer loop optimization
                        step_size                                       5.00E-01

 Number of electrons:                                                         52
 Number of occupied orbitals:                                                 26
 Number of molecular orbitals:                                                26

 Number of orbital functions:                                                164
 Number of independent orbital functions:                                    164

 Extrapolation method: initial_guess


 SCF WAVEFUNCTION OPTIMIZATION

  ----------------------------------- OT ---------------------------------------
  Minimizer      : DIIS                : direct inversion
                                         in the iterative subspace
                                         using   7 DIIS vectors
                                         safer DIIS on
  Preconditioner : FULL_ALL            : diagonalization, state selective
  Precond_solver : DEFAULT
  stepsize       :    0.15000000                  energy_gap     :    0.08000000
  eps_taylor     :   0.10000E-15                  max_taylor     :             4
  ----------------------------------- OT ---------------------------------------

  Step     Update method      Time    Convergence         Total energy    Change
  ------------------------------------------------------------------------------
     1 OT DIIS     0.15E+00    0.9     0.00546802      -623.1567014266 -6.23E+02
     2 OT DIIS     0.15E+00    1.1     0.00213481      -623.1699667380 -1.33E-02
     3 OT DIIS     0.15E+00    1.1     0.00010669      -623.1723747876 -2.41E-03
     4 OT DIIS     0.15E+00    1.1     0.00002109      -623.1723794498 -4.66E-06
     5 OT DIIS     0.15E+00    1.0     0.00000353      -623.1723795906 -1.41E-07
     6 OT DIIS     0.15E+00    1.0     0.00000123      -623.1723795958 -5.21E-09
     7 OT DIIS     0.15E+00    1.0     0.00000007      -623.1723795962 -3.97E-10

  *** SCF run converged in     7 steps ***


  Electronic density on regular grids:        -54.2108970252       -2.2108970252
  Core density on regular grids:               52.0000000000        0.0000000000
  Hard and soft densities (Lebedev):          -52.0322540182      -54.2431510445
  Total Rho_soft + Rho1_hard - Rho1_soft      -51.9999999989
  Total charge density (r-space):               0.0000000011
  Total Rho_soft + Rho0_soft (g-space):        -0.0000005289

  Overlap energy of the core charge distribution:               0.00000000000000
  Self energy of the core charge distribution:              -1002.50690881214757
  Core Hamiltonian energy:                                    219.35518836242204
  Hartree energy:                                             479.98895013090845
  Exchange-correlation energy:                                -46.94131770507069

  GAPW| Exc from hard and soft atomic rho1:                     3.68819430905022
  GAPW| local Eh = 1 center integrals:                       -276.75648588140791

  Total energy:                                              -623.17237959624538

  outer SCF iter =    1 RMS gradient =   0.70E-07 energy =       -623.1723795962
  outer SCF loop converged in   1 iterations or    7 steps


 ENERGY| Total FORCE_EVAL ( QS ) energy [a.u.]:             -623.172379596245378

 -------------------------------------------------------------------------------
 -                                                                             -
 -                                DBCSR STATISTICS                             -
 -                                                                             -
 -------------------------------------------------------------------------------
 COUNTER                                    TOTAL       BLAS       SMM       ACC
 flops    26 x    26 x    26              2425488       0.0%    100.0%      0.0%
 flops    26 x    26 x    82              6430112       0.0%    100.0%      0.0%
 flops    82 x    26 x    26              7982208       0.0%    100.0%      0.0%
 flops    82 x    82 x    26              8391552       0.0%    100.0%      0.0%
 flops    82 x    26 x    82             53146496       0.0%    100.0%      0.0%
 flops inhomo. stacks                           0       0.0%      0.0%      0.0%
 flops total                        78.375856E+06       0.0%    100.0%      0.0%
 flops max/rank                     42.217136E+06       0.0%    100.0%      0.0%
 matmuls inhomo. stacks                         0       0.0%      0.0%      0.0%
 matmuls total                                375       0.0%    100.0%      0.0%
 number of processed stacks                   375       0.0%    100.0%      0.0%
 average stack size                                     0.0       1.0       0.0
 marketing flops                    81.394832E+06
 -------------------------------------------------------------------------------
 # multiplications                            181
 max memory usage/rank             538.988544E+06
 # max total images/rank                        1
 # max 3D layers                                1
 # MPI messages exchanged                   65160
 MPI messages size (bytes):
  total size                        70.829760E+06
  min size                           0.000000E+00
  max size                          53.792000E+03
  average size                       1.087013E+03
 MPI breakdown and total messages size (bytes):
             size <=      128               62050                        0
       128 < size <=     8192                 870                  4704960
      8192 < size <=    32768                1480                 25242880
     32768 < size <=   131072                 760                 40881920
    131072 < size <=  4194304                   0                        0
   4194304 < size <= 16777216                   0                        0
  16777216 < size                               0                        0
 -------------------------------------------------------------------------------
 -                                                                             -
 -                      DBCSR MESSAGE PASSING PERFORMANCE                      -
 -                                                                             -
 -------------------------------------------------------------------------------
 ROUTINE             CALLS      AVE VOLUME [Bytes]
 MP_Bcast                6                     12.
 MP_Allreduce          960                      8.
 MP_Alltoall           724                   4612.
 MP_ISend             4340                   2174.
 MP_IRecv             4340                    904.
 -------------------------------------------------------------------------------

 -------------------------------------------------------------------------------
 -                                                                             -
 -                                GRID STATISTICS                              -
 -                                                                             -
 -------------------------------------------------------------------------------
 LP    KERNEL             BACKEND                              COUNT     PERCENT
 2     collocate ortho    REF                                   3536      12.46%
 3     collocate ortho    REF                                   3152      11.11%
 2     integrate ortho    REF                                   3094      10.90%
 3     integrate ortho    REF                                   2758       9.72%
 1     collocate ortho    REF                                   2592       9.13%
 4     collocate ortho    REF                                   2376       8.37%
 1     integrate ortho    REF                                   2268       7.99%
 4     integrate ortho    REF                                   2079       7.32%
 5     collocate ortho    REF                                   1232       4.34%
 5     integrate ortho    REF                                   1078       3.80%
 0     collocate ortho    REF                                   1008       3.55%
 0     integrate ortho    REF                                    882       3.11%
 6     collocate ortho    REF                                    520       1.83%
 2     collocate general  REF                                    504       1.78%
 2     integrate general  REF                                    504       1.78%
 6     integrate ortho    REF                                    455       1.60%
 7     collocate ortho    REF                                    160       0.56%
 7     integrate ortho    REF                                    140       0.49%
 8     collocate ortho    REF                                     24       0.08%
 8     integrate ortho    REF                                     21       0.07%
 -------------------------------------------------------------------------------

 MEMORY| Estimated peak process memory [MiB]                                 515

 -------------------------------------------------------------------------------
 -                                                                             -
 -                         MESSAGE PASSING PERFORMANCE                         -
 -                                                                             -
 -------------------------------------------------------------------------------

 ROUTINE             CALLS      AVE VOLUME [Bytes]
 MP_Group                4
 MP_Bcast              109                1901129.
 MP_Allreduce          575                 499716.
 MP_Sync                10
 MP_Alltoall           174                9879322.
 MP_ISendRecv         1575                  92352.
 MP_Wait              2996
 MP_comm_split           3
 MP_ISend             1276                 213961.
 MP_IRecv             1276                 214043.
 MP_Recv                 5                   6560.
 -------------------------------------------------------------------------------


 -------------------------------------------------------------------------------
 -                                                                             -
 -                           R E F E R E N C E S                               -
 -                                                                             -
 -------------------------------------------------------------------------------
 
 CP2K version 10.0 (Development Version), the CP2K developers group (2022).
 CP2K is freely available from https://www.cp2k.org/ .

 Kuehne,Thomas D.; Iannuzzi,Marcella; Del Ben,Mauro;
 Rybkin,Vladimir V.; Seewald,Patrick; Stein,Frederick; Laino,Teodoro;
 Khaliullin,Rustam Z.; Schuett,Ole; Schiffmann,Florian; Golze,Dorothea;
 Wilhelm,Jan; Chulkov,Sergey; Bani-Hashemian,Mohammad Hossein;
 Weber,Valery; Borstnik,Urban; Taillefumier,Mathieu;
 Jakobovits,Alice Shoshana; Lazzaro,Alfio; Pabst,Hans; Mueller,Tiziano;
 Schade,Robert; Guidon,Manuel; Andermatt,Samuel; Holmberg,Nico;
 Schenter,Gregory K.; Hehn,Anna; Bussy,Augustin; Belleflamme,Fabian;
 Tabacchi,Gloria; Gloess,Andreas; Lass,Michael; Bethune,Iain;
 Mundy,Christopher J.; Plessl,Christian; Watkins,Matt;
 VandeVondele,Joost; Krack,Matthias; Hutter,Juerg. 
 The Journal of Chemical Physics, 152 (19), (2020). 
 CP2K: An electronic structure and molecular dynamics software package -
 Quickstep: Efficient and accurate electronic structure calculations.
 https://doi.org/10.1063/5.0007045

 Schuett, Ole; Messmer, Peter; Hutter, Juerg; VandeVondele, Joost. 
 Electronic Structure Calculations on Graphics Processing Units, John
 Wiley & Sons, Ltd, 173-190 (2016). 
 GPU-Accelerated Sparse Matrix-Matrix Multiplication for
 Linear Scaling Density Functional Theory.
 https://doi.org/10.1002/9781118670712.ch8

 Heinecke, A; Henry, G; Hutchinson, M; Pabst, H. 
 Proceedings of Intl. Supercomputing Conference, 981-991 (2016). 
 LIBXSMM: Accelerating Small Matrix Multiplications
 by Runtime Code Generation.
 https://doi.org/10.1109/SC.2016.83

 Borstnik, U; VandeVondele, J; Weber, V; Hutter, J. 
 PARALLEL COMPUTING, 40 (5-6), 47-58 (2014). 
 Sparse matrix multiplication: The distributed block-compressed sparse
 row library.
 https://doi.org/10.1016/j.parco.2014.03.012

 Hutter, J; Iannuzzi, M; Schiffmann, F; VandeVondele, J. 
 WIREs Comput Mol Sci., 4 (1), 15-25 (2014). 
 CP2K: atomistic simulations of condensed matter systems.
 https://doi.org/10.1002/wcms.1159

 Marek, A; Blum, V; Johanni, R; Havu, V; Lang, B; Auckenthaler, T;
 Heinecke, A; Bungartz, H; Lederer, H. 
 Journal of Physics: Condensed Matter, 26 (21), (2014). 
 The ELPA library: scalable parallel eigenvalue solutions for
 electronic structure
 theory and computational science.
 https://doi.org/10.1088/0953-8984/26/21/213201

 Krack, M. 
 THEORETICAL CHEMISTRY ACCOUNTS, 114 (1-3), 145-152 (2005). 
 Pseudopotentials for H to Kr optimized for gradient-corrected
 exchange-correlation functionals.
 https://doi.org/10.1007/s00214-005-0655-y

 Frigo, M; Johnson, SG. 
 PROCEEDINGS OF THE IEEE, 93 (2), 216-231 (2005). 
 The design and implementation of FFTW3.
 https://doi.org/10.1109/JPROC.2004.840301

 VandeVondele, J; Hutter, J. 
 JOURNAL OF CHEMICAL PHYSICS, 118 (10), 4365-4369 (2003). 
 An efficient orbital transformation method for electronic structure
 calculations.
 https://doi.org/10.1063/1.1543154

 Lippert, G; Hutter, J; Parrinello, M. 
 THEORETICAL CHEMISTRY ACCOUNTS, 103 (2), 124-140 (1999). 
 The Gaussian and augmented-plane-wave density functional method for ab
 initio molecular dynamics simulations.
 https://doi.org/10.1007/s002140050523

 Krack, M; Parrinello, M. 
 PHYSICAL CHEMISTRY CHEMICAL PHYSICS, 2 (10), 2105-2112 (2000). 
 All-electron ab-initio molecular dynamics.
 https://doi.org/10.1039/b001167n

 Hartwigsen, C; Goedecker, S; Hutter, J. 
 PHYSICAL REVIEW B, 58 (7), 3641-3662 (1998). 
 Relativistic separable dual-space Gaussian pseudopotentials from H to Rn.
 https://doi.org/10.1103/PhysRevB.58.3641

 Perdew, JP; Burke, K; Ernzerhof, M. 
 PHYSICAL REVIEW LETTERS, 77 (18), 3865-3868 (1996). 
 Generalized gradient approximation made simple.
 https://doi.org/10.1103/PhysRevLett.77.3865

 Goedecker, S; Teter, M; Hutter, J. 
 PHYSICAL REVIEW B, 54 (3), 1703-1710 (1996). 
 Separable dual-space Gaussian pseudopotentials.
 https://doi.org/10.1103/PhysRevB.54.1703


 -------------------------------------------------------------------------------
 -                                                                             -
 -                                T I M I N G                                  -
 -                                                                             -
 -------------------------------------------------------------------------------
 SUBROUTINE                       CALLS  ASD         SELF TIME        TOTAL TIME
                                MAXIMUM       AVERAGE  MAXIMUM  AVERAGE  MAXIMUM
 CP2K                                 1  1.0    0.010    0.033    7.789    7.790
 qs_energies                          1  2.0    0.000    0.000    7.543    7.543
 scf_env_do_scf                       1  3.0    0.000    0.000    7.348    7.348
 scf_env_do_scf_inner_loop            7  4.0    0.000    0.000    6.435    6.436
 qs_ks_update_qs_env                  8  5.0    0.000    0.000    6.330    6.331
 rebuild_ks_matrix                    7  6.0    0.000    0.000    6.329    6.329
 qs_ks_build_kohn_sham_matrix         7  7.0    0.001    0.002    6.329    6.329
 prepare_gapw_den                     7  8.0    0.000    0.000    2.341    2.347
 calculate_rho0_atom                  7  9.0    1.566    1.873    1.566    1.873
 pw_transfer                        152 10.1    0.014    0.016    1.427    1.495
 fft_wrap_pw1pw2                    131 11.2    0.002    0.002    1.401    1.471
 fft_wrap_pw1pw2_250                 86 12.6    0.078    0.094    1.317    1.379
 fft3d_ps                           131 13.2    0.542    0.678    1.134    1.225
 rs_pw_transfer                      74  9.4    0.002    0.006    1.099    1.161
 qs_vxc_create                        7  8.0    0.000    0.000    1.157    1.158
 xc_vxc_pw_create                     7  9.0    0.007    0.009    1.157    1.157
 integrate_vhg0_rspace                7  8.0    0.117    0.301    0.960    1.048
 qs_rho_update_rho                    8  5.0    0.000    0.000    0.951    0.953
 mp_sum_d                           615  3.3    0.852    0.938    0.852    0.938
 init_scf_loop                        1  4.0    0.000    0.000    0.911    0.911
 calculate_rho_elec                   8  6.0    0.004    0.005    0.887    0.887
 xc_pw_derive                        42 11.0    0.000    0.000    0.760    0.845
 sum_up_and_integrate                 7  8.0    0.003    0.004    0.784    0.787
 integrate_v_rspace                   7  9.0    0.000    0.000    0.781    0.783
 density_rs2pw                        8  7.0    0.000    0.000    0.728    0.778
 mp_sum_dm                           46  7.6    0.701    0.756    0.701    0.756
 mp_alltoall_z22v                   131 15.2    0.493    0.693    0.493    0.693
 mp_sum_dv                           31 11.2    0.289    0.670    0.289    0.670
 calculate_rho_atom                   7  9.0    0.194    0.661    0.194    0.661
 xc_rho_set_and_dset_create           7 10.0    0.009    0.011    0.575    0.642
 xc_pw_divergence                     7 10.0    0.000    0.000    0.536    0.614
 calculate_vxc_atom                   7  8.0    0.003    0.028    0.595    0.595
 rs_pw_transfer_RS2PW_250            15  9.9    0.174    0.217    0.509    0.558
 gaVxcgb_GC                           7  9.0    0.031    0.554    0.031    0.554
 mp_waitany                        1276 11.4    0.425    0.527    0.425    0.527
 yz_to_x                             59 14.0    0.039    0.069    0.348    0.506
 potential_pw2rs                      7 10.0    0.000    0.001    0.454    0.455
 grid_collocate_task_list             8  7.0    0.118    0.390    0.118    0.390
 rs_pw_transfer_PW2RS_250            14 11.0    0.193    0.225    0.350    0.375
 mp_alltoall_d11v                   183 10.7    0.304    0.333    0.304    0.333
 rs_gather_matrices                   7 10.0    0.000    0.001    0.298    0.326
 grid_integrate_task_list             7 10.0    0.029    0.326    0.029    0.326
 put_rho0_on_grid                     7  9.0    0.004    0.006    0.291    0.298
 x_to_yz                             57 14.6    0.050    0.069    0.233    0.282
 xc_functional_eval                  21 10.9    0.000    0.000    0.220    0.271
 pbe_lda_eval                        21 11.9    0.220    0.271    0.220    0.271
 mp_waitall_1                     13304 13.9    0.175    0.237    0.175    0.237
 Vh_1c_gg_integrals                   7  8.0    0.028    0.205    0.212    0.222
 qs_init_subsys                       1  2.0    0.004    0.004    0.171    0.171
 dbcsr_multiply_generic             181 10.1    0.005    0.005    0.166    0.171
 -------------------------------------------------------------------------------

 The number of warnings for this run is : 0
 
 -------------------------------------------------------------------------------
  **** **** ******  **  PROGRAM ENDED AT                 2022-07-03 18:40:15.450
 ***** ** ***  *** **   PROGRAM RAN ON                                   tcopt10
 **    ****   ******    PROGRAM RAN BY                                    hutter
 ***** **    ** ** **   PROGRAM PROCESS ID                                 25999
  **** **  *******  **  PROGRAM STOPPED IN /data/hutter/GITHUB/BASIS/scMOLOPT/PB
                                           E/noble
