 DBCSR| CPU Multiplication driver                                           XSMM
 DBCSR| Multrec recursion limit                                              512
 DBCSR| Multiplication stack size                                           1000
 DBCSR| Maximum elements for images                                    UNLIMITED
 DBCSR| Multiplicative factor virtual images                                   1
 DBCSR| Use multiplication densification                                       T
 DBCSR| Multiplication size stacks                                             3
 DBCSR| Use memory pool for CPU allocation                                     F
 DBCSR| Number of 3D layers                                               SINGLE
 DBCSR| Use MPI memory allocation                                              F
 DBCSR| Use RMA algorithm                                                      F
 DBCSR| Use Communication thread                                               T
 DBCSR| Communication thread load                                             87
 DBCSR| MPI: My node id                                                        0
 DBCSR| MPI: Number of nodes                                                  36
 DBCSR| OMP: Current number of threads                                         1
 DBCSR| OMP: Max number of threads                                             1
 DBCSR| Split modifier for TAS multiplication algorithm                  1.0E+00


  **** **** ******  **  PROGRAM STARTED AT               2022-05-09 20:33:49.818
 ***** ** ***  *** **   PROGRAM STARTED ON                               tcopt10
 **    ****   ******    PROGRAM STARTED BY                                hutter
 ***** **    ** ** **   PROGRAM PROCESS ID                                 43774
  **** **  *******  **  PROGRAM STARTED IN /data/hutter/GITHUB/BASIS/scMOLOPT/PB
                                           E/hbcnof

 CP2K| version string:                   CP2K version 10.0 (Development Version)
 CP2K| source code revision number:                                  git:57d9aec
 CP2K| cp2kflags: omp libint fftw3 libxc elpa parallel mpi3 scalapack cosma xsmm
 CP2K|             spglib sirius libvori libbqb
 CP2K| is freely available from                            https://www.cp2k.org/
 CP2K| Program compiled at                      Fri 06 May 2022 02:09:00 PM CEST
 CP2K| Program compiled on                                               tcopt10
 CP2K| Program compiled for                                                local
 CP2K| Data directory path                   /data/hutter/GITHUB/TDLRI/cp2k/data
 CP2K| Input file name                                              B2H6-ref.inp

 GLOBAL| Force Environment number                                              1
 GLOBAL| Basis set file name                                        ../def2QZVPP
 GLOBAL| Potential file name                                        ../POTENTIAL
 GLOBAL| MM Potential file name                                     MM_POTENTIAL
 GLOBAL| Coordinate file name                                      __STD_INPUT__
 GLOBAL| Method name                                                        CP2K
 GLOBAL| Project name                                                    refB2H6
 GLOBAL| Run type                                                         ENERGY
 GLOBAL| FFT library                                                       FFTW3
 GLOBAL| Diagonalization library                                       ScaLAPACK
 GLOBAL| Orthonormality check for eigenvectors                          DISABLED
 GLOBAL| Matrix multiplication library                                     COSMA
 GLOBAL| All-to-all communication in single precision                          F
 GLOBAL| FFTs using library dependent lengths                                  F
 GLOBAL| Grid backend                                                       AUTO
 GLOBAL| Global print level                                                  LOW
 GLOBAL| MPI I/O enabled                                                       T
 GLOBAL| Total number of message passing processes                            36
 GLOBAL| Number of threads for this process                                    1
 GLOBAL| This output is from process                                           0
 GLOBAL| Stack size for threads created by OpenMP (OMP_STACKSIZE)        default
 GLOBAL| CPU model name                          AMD EPYC 7401 24-Core Processor
 GLOBAL| CPUID                                                              1002

 MEMORY| system memory details [Kb]
 MEMORY|                        rank 0           min           max       average
 MEMORY| MemTotal            263969136     263969136     263969136     263969136
 MEMORY| MemFree             245440304     245440304     245440304     245440304
 MEMORY| Buffers                   136           136           136           136
 MEMORY| Cached               12530392      12530392      12530392      12530392
 MEMORY| Slab                  1353728       1353728       1353728       1353728
 MEMORY| SReclaimable           822432        822432        822432        822432
 MEMORY| MemLikelyFree       258793264     258793264     258793264     258793264


 GENERATE|  Preliminary Number of Bonds generated:                             6
 GENERATE|  Achieved consistency in connectivity generation.
 GENERATE|  Number of Bonds generated:                                         6
 GENERATE|  Preliminary Number of Bends generated:                             5
 GENERATE|  Number of Bends generated:                                         5
 GENERATE|  Number of UB generated:                                            5
 GENERATE|  Preliminary Number of Torsions generated:                          4
 GENERATE|  Number of Torsions generated:                                      4
 GENERATE|  Number of Impropers generated:                                     1
 GENERATE|  Number of 1-4 interactions generated:                              4

 *******************************************************************************
 *******************************************************************************
 **                                                                           **
 **     #####                         ##              ##                      **
 **    ##   ##            ##          ##              ##                      **
 **   ##     ##                       ##            ######                    **
 **   ##     ##  ##   ##  ##   #####  ##  ##   ####   ##    #####    #####    **
 **   ##     ##  ##   ##  ##  ##      ## ##   ##      ##   ##   ##  ##   ##   **
 **   ##  ## ##  ##   ##  ##  ##      ####     ###    ##   ######   ######    **
 **    ##  ###   ##   ##  ##  ##      ## ##      ##   ##   ##       ##        **
 **     #######   #####   ##   #####  ##  ##  ####    ##    #####   ##        **
 **           ##                                                    ##        **
 **                                                                           **
 **                                                ... make the atoms dance   **
 **                                                                           **
 **            Copyright (C) by CP2K developers group (2000-2022)             **
 **                      J. Chem. Phys. 152, 194103 (2020)                    **
 **                                                                           **
 *******************************************************************************


 TOTAL NUMBERS AND MAXIMUM NUMBERS

  Total number of            - Atomic kinds:                                   2
                             - Atoms:                                          8
                             - Shell sets:                                    94
                             - Shells:                                        94
                             - Primitive Cartesian functions:                136
                             - Cartesian basis functions:                    354
                             - Spherical basis functions:                    294

  Maximum angular momentum of the orbital basis functions:                     4


 SCF PARAMETERS         Density guess:                                    ATOMIC
                        --------------------------------------------------------
                        max_scf:                                              10
                        max_scf_history:                                       0
                        max_diis:                                              4
                        --------------------------------------------------------
                        eps_scf:                                        1.00E-07
                        eps_scf_history:                                0.00E+00
                        eps_diis:                                       1.00E-01
                        eps_eigval:                                     1.00E-05
                        --------------------------------------------------------
                        level_shift [a.u.]:                                 0.00
                        --------------------------------------------------------
                        Outer loop SCF in use 
                        No variables optimised in outer loop
                        eps_scf                                         1.00E-07
                        max_scf                                               10
                        No outer loop optimization
                        step_size                                       5.00E-01

 Number of electrons:                                                         16
 Number of occupied orbitals:                                                  8
 Number of molecular orbitals:                                                 8

 Number of orbital functions:                                                294
 Number of independent orbital functions:                                    294

 Extrapolation method: initial_guess


 SCF WAVEFUNCTION OPTIMIZATION

  ----------------------------------- OT ---------------------------------------
  Minimizer      : DIIS                : direct inversion
                                         in the iterative subspace
                                         using   7 DIIS vectors
                                         safer DIIS on
  Preconditioner : FULL_ALL            : diagonalization, state selective
  Precond_solver : DEFAULT
  stepsize       :    0.15000000                  energy_gap     :    0.08000000
  eps_taylor     :   0.10000E-15                  max_taylor     :             4
  ----------------------------------- OT ---------------------------------------

  Step     Update method      Time    Convergence         Total energy    Change
  ------------------------------------------------------------------------------
     1 OT DIIS     0.15E+00    0.4     0.09122672       -51.1241414558 -5.11E+01
     2 OT DIIS     0.15E+00    0.5     0.04994905       -52.7518715711 -1.63E+00
     3 OT DIIS     0.15E+00    0.5     0.02167072       -53.0927227784 -3.41E-01
     4 OT DIIS     0.15E+00    0.5     0.00885958       -53.1721335918 -7.94E-02
     5 OT DIIS     0.15E+00    0.5     0.00475124       -53.1839492779 -1.18E-02
     6 OT DIIS     0.15E+00    0.5     0.00234123       -53.1899895939 -6.04E-03
     7 OT DIIS     0.15E+00    0.5     0.00150217       -53.1912021681 -1.21E-03
     8 OT DIIS     0.15E+00    0.5     0.00055721       -53.1920059530 -8.04E-04
     9 OT DIIS     0.15E+00    0.5     0.00021415       -53.1921560334 -1.50E-04
    10 OT DIIS     0.15E+00    0.5     0.00009627       -53.1921764876 -2.05E-05

  Leaving inner SCF loop after reaching    10 steps.


  Electronic density on regular grids:        -12.9244897117        3.0755102883
  Core density on regular grids:               16.0000000000       -0.0000000000
  Hard and soft densities (Lebedev):          -54.0029054820      -50.9273950252
  Total Rho_soft + Rho1_hard - Rho1_soft      -16.0000001685
  Total charge density (r-space):              -0.0000001685
  Total Rho_soft + Rho0_soft (g-space):        -0.0000001942

  Overlap energy of the core charge distribution:               0.00001618062377
  Self energy of the core charge distribution:                -40.96751937083020
  Core Hamiltonian energy:                                     -9.99080774147099
  Hartree energy:                                              19.09394950206939
  Exchange-correlation energy:                                 -4.91236892445961

  GAPW| Exc from hard and soft atomic rho1:                    -5.26773716221751
  GAPW| local Eh = 1 center integrals:                        -11.14770897135709

  Total energy:                                               -53.19217648764225

  outer SCF iter =    1 RMS gradient =   0.96E-04 energy =        -53.1921764876

  ----------------------------------- OT ---------------------------------------
  Minimizer      : DIIS                : direct inversion
                                         in the iterative subspace
                                         using   7 DIIS vectors
                                         safer DIIS on
  Preconditioner : FULL_ALL            : diagonalization, state selective
  Precond_solver : DEFAULT
  stepsize       :    0.15000000                  energy_gap     :    0.08000000
  eps_taylor     :   0.10000E-15                  max_taylor     :             4
  ----------------------------------- OT ---------------------------------------

  Step     Update method      Time    Convergence         Total energy    Change
  ------------------------------------------------------------------------------
     1 OT DIIS     0.15E+00    1.0     0.00005560       -53.1921800410 -3.55E-06
     2 OT DIIS     0.15E+00    0.5     0.00002141       -53.1921807819 -7.41E-07
     3 OT DIIS     0.15E+00    0.5     0.00000351       -53.1921809125 -1.31E-07
     4 OT DIIS     0.15E+00    0.5     0.00000054       -53.1921809151 -2.55E-09
     5 OT DIIS     0.15E+00    0.5     0.00000018       -53.1921809151 -6.27E-11
     6 OT DIIS     0.15E+00    0.5     0.00000003       -53.1921809152 -1.02E-11

  *** SCF run converged in     6 steps ***


  Electronic density on regular grids:        -12.9244715114        3.0755284886
  Core density on regular grids:               16.0000000000       -0.0000000000
  Hard and soft densities (Lebedev):          -54.0036827463      -50.9281540893
  Total Rho_soft + Rho1_hard - Rho1_soft      -16.0000001685
  Total charge density (r-space):              -0.0000001685
  Total Rho_soft + Rho0_soft (g-space):        -0.0000001942

  Overlap energy of the core charge distribution:               0.00001618062377
  Self energy of the core charge distribution:                -40.96751937083020
  Core Hamiltonian energy:                                     -9.99056974670012
  Hartree energy:                                              19.09369669409232
  Exchange-correlation energy:                                 -4.91243468659997

  GAPW| Exc from hard and soft atomic rho1:                    -5.26776109911497
  GAPW| local Eh = 1 center integrals:                        -11.14760888662897

  Total energy:                                               -53.19218091515816

  outer SCF iter =    2 RMS gradient =   0.35E-07 energy =        -53.1921809152
  outer SCF loop converged in   2 iterations or   16 steps


 ENERGY| Total FORCE_EVAL ( QS ) energy [a.u.]:              -53.192180915158161

 -------------------------------------------------------------------------------
 -                                                                             -
 -                                DBCSR STATISTICS                             -
 -                                                                             -
 -------------------------------------------------------------------------------
 COUNTER                                    TOTAL       BLAS       SMM       ACC
 flops     8 x     8 x     8               118784       0.0%    100.0%      0.0%
 flops     8 x     8 x    30               506880       0.0%    100.0%      0.0%
 flops    30 x     8 x     8               629760       0.0%    100.0%      0.0%
 flops     8 x     8 x    57               963072       0.0%    100.0%      0.0%
 flops     8 x     8 x    60              1013760       0.0%    100.0%      0.0%
 flops    57 x     8 x     8              1196544       0.0%    100.0%      0.0%
 flops    60 x     8 x     8              1259520       0.0%    100.0%      0.0%
 flops    57 x    57 x     8              2651184       0.0%    100.0%      0.0%
 flops    30 x    57 x     8              2790720       0.0%    100.0%      0.0%
 flops    57 x    30 x     8              2790720       0.0%    100.0%      0.0%
 flops    60 x     8 x    30              4147200       0.0%    100.0%      0.0%
 flops    30 x     8 x    60              4147200       0.0%    100.0%      0.0%
 flops    30 x    30 x     8              5140800       0.0%    100.0%      0.0%
 flops    57 x     8 x    60              7879680       0.0%    100.0%      0.0%
 flops    60 x     8 x    57              7879680       0.0%    100.0%      0.0%
 flops    60 x     8 x    60              8294400       0.0%    100.0%      0.0%
 flops    57 x     8 x    57             17050752       0.0%    100.0%      0.0%
 flops    57 x     8 x    30             19042560       0.0%    100.0%      0.0%
 flops    30 x     8 x    57             19042560       0.0%    100.0%      0.0%
 flops    30 x     8 x    30             25920000       0.0%    100.0%      0.0%
 flops inhomo. stacks                           0       0.0%      0.0%      0.0%
 flops total                       132.465776E+06       0.0%    100.0%      0.0%
 flops max/rank                     26.070992E+06       0.0%    100.0%      0.0%
 matmuls inhomo. stacks                         0       0.0%      0.0%      0.0%
 matmuls total                               5856       0.0%    100.0%      0.0%
 number of processed stacks                  4432       0.0%    100.0%      0.0%
 average stack size                                     0.0       1.3       0.0
 marketing flops                   142.678256E+06
 -------------------------------------------------------------------------------
 # multiplications                            365
 max memory usage/rank             300.240896E+06
 # max total images/rank                        1
 # max 3D layers                                1
 # MPI messages exchanged                  131400
 MPI messages size (bytes):
  total size                       315.360320E+06
  min size                           0.000000E+00
  max size                          28.800000E+03
  average size                       2.400002E+03
 MPI breakdown and total messages size (bytes):
             size <=      128              105170                        0
       128 < size <=     8192               13110                 43658240
      8192 < size <=    32768               13120                271702080
     32768 < size <=   131072                   0                        0
    131072 < size <=  4194304                   0                        0
   4194304 < size <= 16777216                   0                        0
  16777216 < size                               0                        0
 -------------------------------------------------------------------------------
 -                                                                             -
 -                      DBCSR MESSAGE PASSING PERFORMANCE                      -
 -                                                                             -
 -------------------------------------------------------------------------------
 ROUTINE             CALLS      AVE VOLUME [Bytes]
 MP_Bcast               21                     12.
 MP_Allreduce         1957                      8.
 MP_Alltoall          1526                   2768.
 MP_ISend             8752                   1490.
 MP_IRecv             8752                   1441.
 -------------------------------------------------------------------------------

 -------------------------------------------------------------------------------
 -                                                                             -
 -                                GRID STATISTICS                              -
 -                                                                             -
 -------------------------------------------------------------------------------
 LP    KERNEL             BACKEND                              COUNT     PERCENT
 1     collocate ortho    REF                                  26724      12.32%
 2     collocate ortho    REF                                  25245      11.64%
 1     integrate ortho    REF                                  25152      11.59%
 2     integrate ortho    REF                                  23760      10.95%
 3     collocate ortho    REF                                  19074       8.79%
 3     integrate ortho    REF                                  17952       8.27%
 0     collocate ortho    REF                                  17170       7.91%
 0     integrate ortho    REF                                  16160       7.45%
 4     collocate ortho    REF                                  11526       5.31%
 4     integrate ortho    REF                                  10848       5.00%
 5     collocate ortho    REF                                   5134       2.37%
 5     integrate ortho    REF                                   4832       2.23%
 2     collocate general  REF                                   4608       2.12%
 2     integrate general  REF                                   4608       2.12%
 6     collocate ortho    REF                                   1683       0.78%
 6     integrate ortho    REF                                   1584       0.73%
 7     collocate ortho    REF                                    408       0.19%
 7     integrate ortho    REF                                    384       0.18%
 8     collocate ortho    REF                                     51       0.02%
 8     integrate ortho    REF                                     48       0.02%
 -------------------------------------------------------------------------------

 MEMORY| Estimated peak process memory [MiB]                                 287

 -------------------------------------------------------------------------------
 -                                                                             -
 -                         MESSAGE PASSING PERFORMANCE                         -
 -                                                                             -
 -------------------------------------------------------------------------------

 ROUTINE             CALLS      AVE VOLUME [Bytes]
 MP_Group                4
 MP_Bcast              508                 307149.
 MP_Allreduce         1486                  48052.
 MP_Sync                36
 MP_Alltoall           372                1335088.
 MP_ISendRecv         3465                  92352.
 MP_Wait              6650
 MP_comm_split          16
 MP_ISend             2860                 224116.
 MP_IRecv             2860                 224153.
 MP_Recv                 3                   4704.
 -------------------------------------------------------------------------------


 -------------------------------------------------------------------------------
 -                                                                             -
 -                           R E F E R E N C E S                               -
 -                                                                             -
 -------------------------------------------------------------------------------
 
 CP2K version 10.0 (Development Version), the CP2K developers group (2022).
 CP2K is freely available from https://www.cp2k.org/ .

 Kuehne,Thomas D.; Iannuzzi,Marcella; Del Ben,Mauro;
 Rybkin,Vladimir V.; Seewald,Patrick; Stein,Frederick; Laino,Teodoro;
 Khaliullin,Rustam Z.; Schuett,Ole; Schiffmann,Florian; Golze,Dorothea;
 Wilhelm,Jan; Chulkov,Sergey; Bani-Hashemian,Mohammad Hossein;
 Weber,Valery; Borstnik,Urban; Taillefumier,Mathieu;
 Jakobovits,Alice Shoshana; Lazzaro,Alfio; Pabst,Hans; Mueller,Tiziano;
 Schade,Robert; Guidon,Manuel; Andermatt,Samuel; Holmberg,Nico;
 Schenter,Gregory K.; Hehn,Anna; Bussy,Augustin; Belleflamme,Fabian;
 Tabacchi,Gloria; Gloess,Andreas; Lass,Michael; Bethune,Iain;
 Mundy,Christopher J.; Plessl,Christian; Watkins,Matt;
 VandeVondele,Joost; Krack,Matthias; Hutter,Juerg. 
 The Journal of Chemical Physics, 152 (19), (2020). 
 CP2K: An electronic structure and molecular dynamics software package -
 Quickstep: Efficient and accurate electronic structure calculations.
 https://doi.org/10.1063/5.0007045

 Schuett, Ole; Messmer, Peter; Hutter, Juerg; VandeVondele, Joost. 
 Electronic Structure Calculations on Graphics Processing Units, John
 Wiley & Sons, Ltd, 173-190 (2016). 
 GPU-Accelerated Sparse Matrix-Matrix Multiplication for
 Linear Scaling Density Functional Theory.
 https://doi.org/10.1002/9781118670712.ch8

 Heinecke, A; Henry, G; Hutchinson, M; Pabst, H. 
 Proceedings of Intl. Supercomputing Conference, 981-991 (2016). 
 LIBXSMM: Accelerating Small Matrix Multiplications
 by Runtime Code Generation.
 https://doi.org/10.1109/SC.2016.83

 Borstnik, U; VandeVondele, J; Weber, V; Hutter, J. 
 PARALLEL COMPUTING, 40 (5-6), 47-58 (2014). 
 Sparse matrix multiplication: The distributed block-compressed sparse
 row library.
 https://doi.org/10.1016/j.parco.2014.03.012

 Hutter, J; Iannuzzi, M; Schiffmann, F; VandeVondele, J. 
 WIREs Comput Mol Sci., 4 (1), 15-25 (2014). 
 CP2K: atomistic simulations of condensed matter systems.
 https://doi.org/10.1002/wcms.1159

 Frigo, M; Johnson, SG. 
 PROCEEDINGS OF THE IEEE, 93 (2), 216-231 (2005). 
 The design and implementation of FFTW3.
 https://doi.org/10.1109/JPROC.2004.840301

 VandeVondele, J; Hutter, J. 
 JOURNAL OF CHEMICAL PHYSICS, 118 (10), 4365-4369 (2003). 
 An efficient orbital transformation method for electronic structure
 calculations.
 https://doi.org/10.1063/1.1543154

 Lippert, G; Hutter, J; Parrinello, M. 
 THEORETICAL CHEMISTRY ACCOUNTS, 103 (2), 124-140 (1999). 
 The Gaussian and augmented-plane-wave density functional method for ab
 initio molecular dynamics simulations.
 https://doi.org/10.1007/s002140050523

 Krack, M; Parrinello, M. 
 PHYSICAL CHEMISTRY CHEMICAL PHYSICS, 2 (10), 2105-2112 (2000). 
 All-electron ab-initio molecular dynamics.
 https://doi.org/10.1039/b001167n

 Perdew, JP; Burke, K; Ernzerhof, M. 
 PHYSICAL REVIEW LETTERS, 77 (18), 3865-3868 (1996). 
 Generalized gradient approximation made simple.
 https://doi.org/10.1103/PhysRevLett.77.3865


 -------------------------------------------------------------------------------
 -                                                                             -
 -                                T I M I N G                                  -
 -                                                                             -
 -------------------------------------------------------------------------------
 SUBROUTINE                       CALLS  ASD         SELF TIME        TOTAL TIME
                                MAXIMUM       AVERAGE  MAXIMUM  AVERAGE  MAXIMUM
 CP2K                                 1  1.0    0.006    0.023    8.218    8.219
 qs_energies                          1  2.0    0.000    0.000    8.080    8.080
 scf_env_do_scf                       1  3.0    0.000    0.000    7.927    7.927
 scf_env_do_scf_inner_loop           16  4.0    0.000    0.001    7.067    7.067
 qs_ks_update_qs_env                 18  5.0    0.000    0.000    6.133    6.134
 rebuild_ks_matrix                   16  6.0    0.000    0.000    6.132    6.132
 qs_ks_build_kohn_sham_matrix        16  7.0    0.003    0.004    6.131    6.132
 pw_transfer                        341 10.1    0.032    0.037    2.587    2.863
 fft_wrap_pw1pw2                    293 11.2    0.003    0.004    2.532    2.807
 fft_wrap_pw1pw2_250                194 12.6    0.155    0.190    2.390    2.646
 fft3d_ps                           293 13.2    0.965    1.192    1.970    2.287
 rs_pw_transfer                     164  9.5    0.003    0.004    2.047    2.169
 qs_vxc_create                       16  8.0    0.000    0.001    2.115    2.115
 xc_vxc_pw_create                    16  9.0    0.015    0.018    2.115    2.115
 xc_pw_derive                        96 11.0    0.001    0.001    1.402    1.674
 qs_rho_update_rho                   17  5.0    0.000    0.001    1.513    1.514
 calculate_rho_elec                  17  6.0    0.009    0.010    1.461    1.461
 mp_alltoall_z22v                   293 15.2    0.831    1.347    0.831    1.347
 xc_rho_set_and_dset_create          16 10.0    0.015    0.020    1.100    1.275
 density_rs2pw                       17  7.0    0.001    0.001    1.139    1.245
 xc_pw_divergence                    16 10.0    0.000    0.000    0.966    1.244
 sum_up_and_integrate                16  8.0    0.006    0.009    1.155    1.157
 integrate_v_rspace                  16  9.0    0.000    0.000    1.150    1.153
 prepare_gapw_den                    16  8.0    0.000    0.000    1.127    1.144
 yz_to_x                            131 14.1    0.071    0.109    0.599    1.003
 rs_pw_transfer_RS2PW_250            33 10.0    0.415    0.507    0.815    0.931
 potential_pw2rs                     16 10.0    0.001    0.001    0.887    0.889
 init_scf_loop                        2  4.0    0.000    0.000    0.859    0.859
 mp_waitany                        2860 11.5    0.615    0.843    0.615    0.843
 mp_sum_d                           884  5.5    0.706    0.829    0.706    0.829
 rs_pw_transfer_PW2RS_250            32 11.0    0.417    0.497    0.784    0.822
 integrate_vhg0_rspace               16  8.0    0.074    0.092    0.729    0.738
 put_rho0_on_grid                    16  9.0    0.011    0.014    0.623    0.640
 xc_functional_eval                  80 10.7    0.000    0.000    0.421    0.608
 pbe_lda_eval                        80 11.7    0.421    0.608    0.421    0.608
 calculate_vxc_atom                  16  8.0    0.012    0.079    0.547    0.547
 x_to_yz                            129 14.6    0.084    0.112    0.385    0.472
 grid_collocate_task_list            17  7.0    0.284    0.455    0.284    0.455
 mp_waitall_1                     27150 13.8    0.338    0.420    0.338    0.420
 gaVxcgb_GC                          32  9.0    0.030    0.419    0.030    0.419
 calculate_rho_atom                  32  9.0    0.171    0.407    0.171    0.407
 dbcsr_multiply_generic             365 10.0    0.009    0.010    0.268    0.275
 qs_scf_new_mos                      16  5.0    0.000    0.000    0.273    0.274
 qs_scf_loop_do_ot                   16  6.0    0.000    0.000    0.273    0.274
 ot_scf_mini                         16  7.0    0.000    0.000    0.262    0.262
 grid_integrate_task_list            16 10.0    0.144    0.260    0.144    0.260
 pw_gather_p                        148 12.8    0.198    0.259    0.198    0.259
 calculate_rho0_atom                 32  9.0    0.180    0.250    0.180    0.250
 mp_sum_dm                          400  7.6    0.196    0.238    0.196    0.238
 mp_sum_dv                          342 12.8    0.154    0.230    0.154    0.230
 rs_pw_transfer_PW2RS_90             16 12.0    0.043    0.059    0.182    0.224
 mp_alltoall_d11v                   405 11.4    0.128    0.213    0.128    0.213
 pw_scatter_p                       145 13.6    0.200    0.212    0.200    0.212
 rs_gather_matrices                  16 10.0    0.000    0.001    0.118    0.202
 rs_grid_zero                        64 10.8    0.170    0.199    0.170    0.199
 ot_mini                             16  8.0    0.000    0.000    0.169    0.170
 -------------------------------------------------------------------------------

 The number of warnings for this run is : 0
 
 -------------------------------------------------------------------------------
  **** **** ******  **  PROGRAM ENDED AT                 2022-05-09 20:33:58.394
 ***** ** ***  *** **   PROGRAM RAN ON                                   tcopt10
 **    ****   ******    PROGRAM RAN BY                                    hutter
 ***** **    ** ** **   PROGRAM PROCESS ID                                 43774
  **** **  *******  **  PROGRAM STOPPED IN /data/hutter/GITHUB/BASIS/scMOLOPT/PB
                                           E/hbcnof
