 DBCSR| CPU Multiplication driver                                           XSMM
 DBCSR| Multrec recursion limit                                              512
 DBCSR| Multiplication stack size                                           1000
 DBCSR| Maximum elements for images                                    UNLIMITED
 DBCSR| Multiplicative factor virtual images                                   1
 DBCSR| Use multiplication densification                                       T
 DBCSR| Multiplication size stacks                                             3
 DBCSR| Use memory pool for CPU allocation                                     F
 DBCSR| Number of 3D layers                                               SINGLE
 DBCSR| Use MPI memory allocation                                              F
 DBCSR| Use RMA algorithm                                                      F
 DBCSR| Use Communication thread                                               T
 DBCSR| Communication thread load                                             87
 DBCSR| MPI: My node id                                                        0
 DBCSR| MPI: Number of nodes                                                  36
 DBCSR| OMP: Current number of threads                                         1
 DBCSR| OMP: Max number of threads                                             1
 DBCSR| Split modifier for TAS multiplication algorithm                  1.0E+00


  **** **** ******  **  PROGRAM STARTED AT               2022-05-09 20:38:26.623
 ***** ** ***  *** **   PROGRAM STARTED ON                               tcopt10
 **    ****   ******    PROGRAM STARTED BY                                hutter
 ***** **    ** ** **   PROGRAM PROCESS ID                                 46224
  **** **  *******  **  PROGRAM STARTED IN /data/hutter/GITHUB/BASIS/scMOLOPT/PB
                                           E/hbcnof

 CP2K| version string:                   CP2K version 10.0 (Development Version)
 CP2K| source code revision number:                                  git:57d9aec
 CP2K| cp2kflags: omp libint fftw3 libxc elpa parallel mpi3 scalapack cosma xsmm
 CP2K|             spglib sirius libvori libbqb
 CP2K| is freely available from                            https://www.cp2k.org/
 CP2K| Program compiled at                      Fri 06 May 2022 02:09:00 PM CEST
 CP2K| Program compiled on                                               tcopt10
 CP2K| Program compiled for                                                local
 CP2K| Data directory path                   /data/hutter/GITHUB/TDLRI/cp2k/data
 CP2K| Input file name                                              B4H4-ref.inp

 GLOBAL| Force Environment number                                              1
 GLOBAL| Basis set file name                                        ../def2QZVPP
 GLOBAL| Potential file name                                        ../POTENTIAL
 GLOBAL| MM Potential file name                                     MM_POTENTIAL
 GLOBAL| Coordinate file name                                      __STD_INPUT__
 GLOBAL| Method name                                                        CP2K
 GLOBAL| Project name                                                    refB4H4
 GLOBAL| Run type                                                         ENERGY
 GLOBAL| FFT library                                                       FFTW3
 GLOBAL| Diagonalization library                                       ScaLAPACK
 GLOBAL| Orthonormality check for eigenvectors                          DISABLED
 GLOBAL| Matrix multiplication library                                     COSMA
 GLOBAL| All-to-all communication in single precision                          F
 GLOBAL| FFTs using library dependent lengths                                  F
 GLOBAL| Grid backend                                                       AUTO
 GLOBAL| Global print level                                                  LOW
 GLOBAL| MPI I/O enabled                                                       T
 GLOBAL| Total number of message passing processes                            36
 GLOBAL| Number of threads for this process                                    1
 GLOBAL| This output is from process                                           0
 GLOBAL| Stack size for threads created by OpenMP (OMP_STACKSIZE)        default
 GLOBAL| CPU model name                          AMD EPYC 7401 24-Core Processor
 GLOBAL| CPUID                                                              1002

 MEMORY| system memory details [Kb]
 MEMORY|                        rank 0           min           max       average
 MEMORY| MemTotal            263969136     263969136     263969136     263969136
 MEMORY| MemFree             245265728     245265728     245265728     245265728
 MEMORY| Buffers                   136           136           136           136
 MEMORY| Cached               12534488      12534488      12534488      12534488
 MEMORY| Slab                  1357504       1357504       1357504       1357504
 MEMORY| SReclaimable           821568        821568        821568        821568
 MEMORY| MemLikelyFree       258621920     258621920     258621920     258621920


 GENERATE|  Preliminary Number of Bonds generated:                             6
 GENERATE|  Achieved consistency in connectivity generation.
 GENERATE|  Number of Bonds generated:                                         6
 GENERATE|  Preliminary Number of Bends generated:                            12
 GENERATE|  Number of Bends generated:                                        12
 GENERATE|  Number of UB generated:                                           12
 GENERATE|  Preliminary Number of Torsions generated:                         12
 GENERATE|  Number of Torsions generated:                                     12
 GENERATE|  Number of Impropers generated:                                     4

 *******************************************************************************
 *******************************************************************************
 **                                                                           **
 **     #####                         ##              ##                      **
 **    ##   ##            ##          ##              ##                      **
 **   ##     ##                       ##            ######                    **
 **   ##     ##  ##   ##  ##   #####  ##  ##   ####   ##    #####    #####    **
 **   ##     ##  ##   ##  ##  ##      ## ##   ##      ##   ##   ##  ##   ##   **
 **   ##  ## ##  ##   ##  ##  ##      ####     ###    ##   ######   ######    **
 **    ##  ###   ##   ##  ##  ##      ## ##      ##   ##   ##       ##        **
 **     #######   #####   ##   #####  ##  ##  ####    ##    #####   ##        **
 **           ##                                                    ##        **
 **                                                                           **
 **                                                ... make the atoms dance   **
 **                                                                           **
 **            Copyright (C) by CP2K developers group (2000-2022)             **
 **                      J. Chem. Phys. 152, 194103 (2020)                    **
 **                                                                           **
 *******************************************************************************


 TOTAL NUMBERS AND MAXIMUM NUMBERS

  Total number of            - Atomic kinds:                                   2
                             - Atoms:                                          8
                             - Shell sets:                                   108
                             - Shells:                                       108
                             - Primitive Cartesian functions:                168
                             - Cartesian basis functions:                    428
                             - Spherical basis functions:                    348

  Maximum angular momentum of the orbital basis functions:                     4


 SCF PARAMETERS         Density guess:                                    ATOMIC
                        --------------------------------------------------------
                        max_scf:                                              10
                        max_scf_history:                                       0
                        max_diis:                                              4
                        --------------------------------------------------------
                        eps_scf:                                        1.00E-07
                        eps_scf_history:                                0.00E+00
                        eps_diis:                                       1.00E-01
                        eps_eigval:                                     1.00E-05
                        --------------------------------------------------------
                        level_shift [a.u.]:                                 0.00
                        --------------------------------------------------------
                        Outer loop SCF in use 
                        No variables optimised in outer loop
                        eps_scf                                         1.00E-07
                        max_scf                                               10
                        No outer loop optimization
                        step_size                                       5.00E-01

 Number of electrons:                                                         24
 Number of occupied orbitals:                                                 12
 Number of molecular orbitals:                                                12

 Number of orbital functions:                                                348
 Number of independent orbital functions:                                    348

 Extrapolation method: initial_guess


 SCF WAVEFUNCTION OPTIMIZATION

  ----------------------------------- OT ---------------------------------------
  Minimizer      : DIIS                : direct inversion
                                         in the iterative subspace
                                         using   7 DIIS vectors
                                         safer DIIS on
  Preconditioner : FULL_ALL            : diagonalization, state selective
  Precond_solver : DEFAULT
  stepsize       :    0.15000000                  energy_gap     :    0.08000000
  eps_taylor     :   0.10000E-15                  max_taylor     :             4
  ----------------------------------- OT ---------------------------------------

  Step     Update method      Time    Convergence         Total energy    Change
  ------------------------------------------------------------------------------
     1 OT DIIS     0.15E+00    0.5     0.07832926       -98.8718115156 -9.89E+01
     2 OT DIIS     0.15E+00    0.6     0.04752033      -100.7251237310 -1.85E+00
     3 OT DIIS     0.15E+00    0.6     0.02252512      -101.1190559531 -3.94E-01
     4 OT DIIS     0.15E+00    0.6     0.00881741      -101.2616081535 -1.43E-01
     5 OT DIIS     0.15E+00    0.6     0.00633883      -101.2908075488 -2.92E-02
     6 OT DIIS     0.15E+00    0.6     0.00539140      -101.3183344498 -2.75E-02
     7 OT DIIS     0.15E+00    0.6     0.00541908      -101.3361422059 -1.78E-02
     8 OT SD       0.15E+00    0.6     0.00550191      -101.3397136968 -3.57E-03
     9 OT SD       0.15E+00    0.6     0.00595709      -101.3592197010 -1.95E-02
    10 OT SD       0.15E+00    0.6     0.00649194      -101.3822721879 -2.31E-02

  Leaving inner SCF loop after reaching    10 steps.


  Electronic density on regular grids:        -18.0885101050        5.9114898950
  Core density on regular grids:               24.0000000000       -0.0000000000
  Hard and soft densities (Lebedev):          -76.3384957724      -70.4270056527
  Total Rho_soft + Rho1_hard - Rho1_soft      -24.0000002248
  Total charge density (r-space):              -0.0000002248
  Total Rho_soft + Rho0_soft (g-space):        -0.0000002481

  Overlap energy of the core charge distribution:               0.00002378577577
  Self energy of the core charge distribution:                -70.65124707070527
  Core Hamiltonian energy:                                    -23.96048787108559
  Hartree energy:                                              34.09291976221913
  Exchange-correlation energy:                                 -7.05585118763437

  GAPW| Exc from hard and soft atomic rho1:                   -10.38101926415300
  GAPW| local Eh = 1 center integrals:                        -23.42661034228839

  Total energy:                                              -101.38227218787173

  outer SCF iter =    1 RMS gradient =   0.65E-02 energy =       -101.3822721879

  ----------------------------------- OT ---------------------------------------
  Minimizer      : DIIS                : direct inversion
                                         in the iterative subspace
                                         using   7 DIIS vectors
                                         safer DIIS on
  Preconditioner : FULL_ALL            : diagonalization, state selective
  Precond_solver : DEFAULT
  stepsize       :    0.15000000                  energy_gap     :    0.08000000
  eps_taylor     :   0.10000E-15                  max_taylor     :             4
  ----------------------------------- OT ---------------------------------------

  Step     Update method      Time    Convergence         Total energy    Change
  ------------------------------------------------------------------------------
     1 OT DIIS     0.15E+00    1.2     0.01517179      -101.4094574816 -2.72E-02
     2 OT DIIS     0.15E+00    0.6     0.01027509      -101.5308574377 -1.21E-01
     3 OT DIIS     0.15E+00    0.6     0.00467436      -101.5635095573 -3.27E-02
     4 OT DIIS     0.15E+00    0.6     0.00729443      -101.5613692209  2.14E-03
     5 OT DIIS     0.15E+00    0.6     0.00356669      -101.5668625535 -5.49E-03
     6 OT DIIS     0.15E+00    0.6     0.00254677      -101.5679560778 -1.09E-03
     7 OT DIIS     0.15E+00    0.6     0.00027779      -101.5687934336 -8.37E-04
     8 OT DIIS     0.15E+00    0.6     0.00005622      -101.5688070551 -1.36E-05
     9 OT DIIS     0.15E+00    0.6     0.00002597      -101.5688075690 -5.14E-07
    10 OT DIIS     0.15E+00    0.6     0.00000707      -101.5688076952 -1.26E-07

  Leaving inner SCF loop after reaching    10 steps.


  Electronic density on regular grids:        -18.0868339354        5.9131660646
  Core density on regular grids:               24.0000000000       -0.0000000000
  Hard and soft densities (Lebedev):          -78.0654660276      -72.1522996880
  Total Rho_soft + Rho1_hard - Rho1_soft      -24.0000002750
  Total charge density (r-space):              -0.0000002750
  Total Rho_soft + Rho0_soft (g-space):        -0.0000002982

  Overlap energy of the core charge distribution:               0.00002378577577
  Self energy of the core charge distribution:                -70.65124707070527
  Core Hamiltonian energy:                                    -24.03573511898476
  Hartree energy:                                              34.03881243585009
  Exchange-correlation energy:                                 -7.08684914537969

  GAPW| Exc from hard and soft atomic rho1:                   -10.38217433977046
  GAPW| local Eh = 1 center integrals:                        -23.45163824198345

  Total energy:                                              -101.56880769519776

  outer SCF iter =    2 RMS gradient =   0.71E-05 energy =       -101.5688076952

  ----------------------------------- OT ---------------------------------------
  Minimizer      : DIIS                : direct inversion
                                         in the iterative subspace
                                         using   7 DIIS vectors
                                         safer DIIS on
  Preconditioner : FULL_ALL            : diagonalization, state selective
  Precond_solver : DEFAULT
  stepsize       :    0.15000000                  energy_gap     :    0.08000000
  eps_taylor     :   0.10000E-15                  max_taylor     :             4
  ----------------------------------- OT ---------------------------------------

  Step     Update method      Time    Convergence         Total energy    Change
  ------------------------------------------------------------------------------
     1 OT DIIS     0.15E+00    1.2     0.00000153      -101.5688077100 -1.48E-08
     2 OT DIIS     0.15E+00    0.6     0.00000085      -101.5688077108 -8.78E-10
     3 OT DIIS     0.15E+00    0.5     0.00000066      -101.5688077110 -1.39E-10
     4 OT DIIS     0.15E+00    0.5     0.00000006      -101.5688077111 -9.27E-11

  *** SCF run converged in     4 steps ***


  Electronic density on regular grids:        -18.0868312949        5.9131687051
  Core density on regular grids:               24.0000000000       -0.0000000000
  Hard and soft densities (Lebedev):          -78.0655578227      -72.1523888427
  Total Rho_soft + Rho1_hard - Rho1_soft      -24.0000002750
  Total charge density (r-space):              -0.0000002750
  Total Rho_soft + Rho0_soft (g-space):        -0.0000002982

  Overlap energy of the core charge distribution:               0.00002378577577
  Self energy of the core charge distribution:                -70.65124707070527
  Core Hamiltonian energy:                                    -24.03565101547263
  Hartree energy:                                              34.03872585081804
  Exchange-correlation energy:                                 -7.08687228180891

  GAPW| Exc from hard and soft atomic rho1:                   -10.38217908881410
  GAPW| local Eh = 1 center integrals:                        -23.45160789087000

  Total energy:                                              -101.56880771107710

  outer SCF iter =    3 RMS gradient =   0.56E-07 energy =       -101.5688077111
  outer SCF loop converged in   3 iterations or   24 steps


 ENERGY| Total FORCE_EVAL ( QS ) energy [a.u.]:             -101.568807711077099

 -------------------------------------------------------------------------------
 -                                                                             -
 -                                DBCSR STATISTICS                             -
 -                                                                             -
 -------------------------------------------------------------------------------
 COUNTER                                    TOTAL       BLAS       SMM       ACC
 flops    12 x    12 x    12               594432       0.0%    100.0%      0.0%
 flops    12 x    12 x    60              3421440       0.0%    100.0%      0.0%
 flops    60 x    12 x    12              4250880       0.0%    100.0%      0.0%
 flops    30 x    30 x    12              5400000       0.0%    100.0%      0.0%
 flops    12 x    12 x    57              6500736       0.0%    100.0%      0.0%
 flops    57 x    12 x    12              8076672       0.0%    100.0%      0.0%
 flops    30 x    57 x    12              8208000       0.0%    100.0%      0.0%
 flops    57 x    30 x    12              8208000       0.0%    100.0%      0.0%
 flops    60 x    12 x    60             18662400       0.0%    100.0%      0.0%
 flops    57 x    57 x    12             19494000       0.0%    100.0%      0.0%
 flops    30 x    12 x    30             23500800       0.0%    100.0%      0.0%
 flops    57 x    12 x    60             35458560       0.0%    100.0%      0.0%
 flops    60 x    12 x    57             35458560       0.0%    100.0%      0.0%
 flops    57 x    12 x    30             44651520       0.0%    100.0%      0.0%
 flops    30 x    12 x    57             44651520       0.0%    100.0%      0.0%
 flops    57 x    12 x    57            152209152       0.0%    100.0%      0.0%
 flops inhomo. stacks                           0       0.0%      0.0%      0.0%
 flops total                       418.746672E+06       0.0%    100.0%      0.0%
 flops max/rank                     72.564984E+06       0.0%    100.0%      0.0%
 matmuls inhomo. stacks                         0       0.0%      0.0%      0.0%
 matmuls total                               8700       0.0%    100.0%      0.0%
 number of processed stacks                  6646       0.0%    100.0%      0.0%
 average stack size                                     0.0       1.3       0.0
 marketing flops                   450.399744E+06
 -------------------------------------------------------------------------------
 # multiplications                            544
 max memory usage/rank             300.658688E+06
 # max total images/rank                        1
 # max 3D layers                                1
 # MPI messages exchanged                  195840
 MPI messages size (bytes):
  total size                       676.028160E+06
  min size                           0.000000E+00
  max size                          28.800000E+03
  average size                       3.451941E+03
 MPI breakdown and total messages size (bytes):
             size <=      128              156755                        0
       128 < size <=     8192               17125                 85040640
      8192 < size <=    32768               21960                590987520
     32768 < size <=   131072                   0                        0
    131072 < size <=  4194304                   0                        0
   4194304 < size <= 16777216                   0                        0
  16777216 < size                               0                        0
 -------------------------------------------------------------------------------
 -                                                                             -
 -                      DBCSR MESSAGE PASSING PERFORMANCE                      -
 -                                                                             -
 -------------------------------------------------------------------------------
 ROUTINE             CALLS      AVE VOLUME [Bytes]
 MP_Bcast               17                     12.
 MP_Allreduce         2885                      8.
 MP_Alltoall          2316                   3049.
 MP_ISend            13044                   2078.
 MP_IRecv            13044                   1984.
 -------------------------------------------------------------------------------

 -------------------------------------------------------------------------------
 -                                                                             -
 -                                GRID STATISTICS                              -
 -                                                                             -
 -------------------------------------------------------------------------------
 LP    KERNEL             BACKEND                              COUNT     PERCENT
 2     collocate ortho    REF                                  57750      12.42%
 1     collocate ortho    REF                                  57700      12.41%
 2     integrate ortho    REF                                  55440      11.93%
 1     integrate ortho    REF                                  55392      11.92%
 3     collocate ortho    REF                                  41100       8.84%
 3     integrate ortho    REF                                  39456       8.49%
 0     collocate ortho    REF                                  28150       6.06%
 0     integrate ortho    REF                                  27024       5.81%
 4     collocate ortho    REF                                  26800       5.77%
 4     integrate ortho    REF                                  25728       5.54%
 5     collocate ortho    REF                                  12600       2.71%
 5     integrate ortho    REF                                  12096       2.60%
 2     collocate general  REF                                   6912       1.49%
 2     integrate general  REF                                   6912       1.49%
 6     collocate ortho    REF                                   4350       0.94%
 6     integrate ortho    REF                                   4176       0.90%
 7     collocate ortho    REF                                   1400       0.30%
 7     integrate ortho    REF                                   1344       0.29%
 8     collocate ortho    REF                                    250       0.05%
 8     integrate ortho    REF                                    240       0.05%
 -------------------------------------------------------------------------------

 MEMORY| Estimated peak process memory [MiB]                                 287

 -------------------------------------------------------------------------------
 -                                                                             -
 -                         MESSAGE PASSING PERFORMANCE                         -
 -                                                                             -
 -------------------------------------------------------------------------------

 ROUTINE             CALLS      AVE VOLUME [Bytes]
 MP_Group                4
 MP_Bcast              836                 194014.
 MP_Allreduce         2260                  75285.
 MP_Sync                62
 MP_Alltoall           548                6236167.
 MP_ISendRecv         5145                  92352.
 MP_Wait              9898
 MP_comm_split          29
 MP_ISend             4268                 224122.
 MP_IRecv             4268                 224147.
 MP_Recv                10                   5568.
 -------------------------------------------------------------------------------


 -------------------------------------------------------------------------------
 -                                                                             -
 -                           R E F E R E N C E S                               -
 -                                                                             -
 -------------------------------------------------------------------------------
 
 CP2K version 10.0 (Development Version), the CP2K developers group (2022).
 CP2K is freely available from https://www.cp2k.org/ .

 Kuehne,Thomas D.; Iannuzzi,Marcella; Del Ben,Mauro;
 Rybkin,Vladimir V.; Seewald,Patrick; Stein,Frederick; Laino,Teodoro;
 Khaliullin,Rustam Z.; Schuett,Ole; Schiffmann,Florian; Golze,Dorothea;
 Wilhelm,Jan; Chulkov,Sergey; Bani-Hashemian,Mohammad Hossein;
 Weber,Valery; Borstnik,Urban; Taillefumier,Mathieu;
 Jakobovits,Alice Shoshana; Lazzaro,Alfio; Pabst,Hans; Mueller,Tiziano;
 Schade,Robert; Guidon,Manuel; Andermatt,Samuel; Holmberg,Nico;
 Schenter,Gregory K.; Hehn,Anna; Bussy,Augustin; Belleflamme,Fabian;
 Tabacchi,Gloria; Gloess,Andreas; Lass,Michael; Bethune,Iain;
 Mundy,Christopher J.; Plessl,Christian; Watkins,Matt;
 VandeVondele,Joost; Krack,Matthias; Hutter,Juerg. 
 The Journal of Chemical Physics, 152 (19), (2020). 
 CP2K: An electronic structure and molecular dynamics software package -
 Quickstep: Efficient and accurate electronic structure calculations.
 https://doi.org/10.1063/5.0007045

 Schuett, Ole; Messmer, Peter; Hutter, Juerg; VandeVondele, Joost. 
 Electronic Structure Calculations on Graphics Processing Units, John
 Wiley & Sons, Ltd, 173-190 (2016). 
 GPU-Accelerated Sparse Matrix-Matrix Multiplication for
 Linear Scaling Density Functional Theory.
 https://doi.org/10.1002/9781118670712.ch8

 Heinecke, A; Henry, G; Hutchinson, M; Pabst, H. 
 Proceedings of Intl. Supercomputing Conference, 981-991 (2016). 
 LIBXSMM: Accelerating Small Matrix Multiplications
 by Runtime Code Generation.
 https://doi.org/10.1109/SC.2016.83

 Borstnik, U; VandeVondele, J; Weber, V; Hutter, J. 
 PARALLEL COMPUTING, 40 (5-6), 47-58 (2014). 
 Sparse matrix multiplication: The distributed block-compressed sparse
 row library.
 https://doi.org/10.1016/j.parco.2014.03.012

 Hutter, J; Iannuzzi, M; Schiffmann, F; VandeVondele, J. 
 WIREs Comput Mol Sci., 4 (1), 15-25 (2014). 
 CP2K: atomistic simulations of condensed matter systems.
 https://doi.org/10.1002/wcms.1159

 Frigo, M; Johnson, SG. 
 PROCEEDINGS OF THE IEEE, 93 (2), 216-231 (2005). 
 The design and implementation of FFTW3.
 https://doi.org/10.1109/JPROC.2004.840301

 VandeVondele, J; Hutter, J. 
 JOURNAL OF CHEMICAL PHYSICS, 118 (10), 4365-4369 (2003). 
 An efficient orbital transformation method for electronic structure
 calculations.
 https://doi.org/10.1063/1.1543154

 Lippert, G; Hutter, J; Parrinello, M. 
 THEORETICAL CHEMISTRY ACCOUNTS, 103 (2), 124-140 (1999). 
 The Gaussian and augmented-plane-wave density functional method for ab
 initio molecular dynamics simulations.
 https://doi.org/10.1007/s002140050523

 Krack, M; Parrinello, M. 
 PHYSICAL CHEMISTRY CHEMICAL PHYSICS, 2 (10), 2105-2112 (2000). 
 All-electron ab-initio molecular dynamics.
 https://doi.org/10.1039/b001167n

 Perdew, JP; Burke, K; Ernzerhof, M. 
 PHYSICAL REVIEW LETTERS, 77 (18), 3865-3868 (1996). 
 Generalized gradient approximation made simple.
 https://doi.org/10.1103/PhysRevLett.77.3865


 -------------------------------------------------------------------------------
 -                                                                             -
 -                                T I M I N G                                  -
 -                                                                             -
 -------------------------------------------------------------------------------
 SUBROUTINE                       CALLS  ASD         SELF TIME        TOTAL TIME
                                MAXIMUM       AVERAGE  MAXIMUM  AVERAGE  MAXIMUM
 CP2K                                 1  1.0    0.006    0.030   13.979   13.980
 qs_energies                          1  2.0    0.000    0.000   13.817   13.817
 scf_env_do_scf                       1  3.0    0.000    0.000   13.615   13.615
 scf_env_do_scf_inner_loop           24  4.0    0.000    0.002   12.102   12.102
 qs_ks_update_qs_env                 27  5.0    0.000    0.000   10.573   10.575
 rebuild_ks_matrix                   24  6.0    0.000    0.000   10.570   10.572
 qs_ks_build_kohn_sham_matrix        24  7.0    0.005    0.006   10.570   10.572
 pw_transfer                        509 10.1    0.047    0.053    4.189    4.565
 fft_wrap_pw1pw2                    437 11.3    0.005    0.006    4.108    4.492
 fft_wrap_pw1pw2_250                290 12.6    0.251    0.309    3.904    4.267
 fft3d_ps                           437 13.3    1.598    1.911    3.221    3.711
 qs_vxc_create                       24  8.0    0.001    0.001    3.644    3.644
 xc_vxc_pw_create                    24  9.0    0.025    0.029    3.644    3.644
 rs_pw_transfer                     244  9.5    0.005    0.005    3.121    3.254
 xc_pw_derive                       144 11.0    0.001    0.002    2.293    2.727
 qs_rho_update_rho                   25  5.0    0.000    0.001    2.453    2.454
 calculate_rho_elec                  25  6.0    0.013    0.015    2.323    2.324
 xc_rho_set_and_dset_create          24 10.0    0.026    0.030    1.975    2.259
 mp_alltoall_z22v                   437 15.3    1.296    2.122    1.296    2.122
 xc_pw_divergence                    24 10.0    0.001    0.001    1.581    2.017
 prepare_gapw_den                    24  8.0    0.001    0.001    1.961    1.982
 sum_up_and_integrate                24  8.0    0.008    0.013    1.838    1.840
 integrate_v_rspace                  24  9.0    0.001    0.001    1.829    1.832
 density_rs2pw                       25  7.0    0.001    0.002    1.713    1.807
 yz_to_x                            195 14.1    0.138    0.219    0.964    1.589
 init_scf_loop                        3  4.0    0.000    0.000    1.513    1.513
 mp_sum_d                          1138  6.7    1.240    1.475    1.240    1.475
 potential_pw2rs                     24 10.0    0.002    0.002    1.422    1.425
 integrate_vhg0_rspace               24  8.0    0.200    0.240    1.350    1.361
 rs_pw_transfer_RS2PW_250            49 10.0    0.652    0.796    1.171    1.266
 rs_pw_transfer_PW2RS_250            48 11.0    0.639    0.758    1.184    1.252
 xc_functional_eval                 120 10.7    0.000    0.001    0.879    1.208
 pbe_lda_eval                       120 11.7    0.878    1.207    0.878    1.207
 mp_waitany                        4268 11.5    0.833    1.110    0.833    1.110
 calculate_vxc_atom                  24  8.0    0.023    0.154    1.043    1.043
 put_rho0_on_grid                    24  9.0    0.016    0.023    0.957    0.978
 gaVxcgb_GC                          48  9.0    0.087    0.788    0.087    0.788
 x_to_yz                            193 14.6    0.164    0.227    0.631    0.763
 mp_waitall_1                     40446 13.8    0.584    0.754    0.584    0.754
 calculate_rho_atom                  48  9.0    0.334    0.739    0.334    0.739
 calculate_rho0_atom                 48  9.0    0.482    0.705    0.482    0.705
 grid_collocate_task_list            25  7.0    0.544    0.624    0.544    0.624
 mp_sum_dm                          592  7.6    0.486    0.555    0.486    0.555
 qs_scf_new_mos                      24  5.0    0.000    0.000    0.496    0.499
 qs_scf_loop_do_ot                   24  6.0    0.000    0.000    0.496    0.498
 dbcsr_multiply_generic             544 10.0    0.015    0.015    0.470    0.488
 ot_scf_mini                         24  7.0    0.000    0.000    0.475    0.478
 mp_sum_dv                          681 12.9    0.191    0.443    0.191    0.443
 pw_gather_p                        220 12.9    0.306    0.404    0.306    0.404
 grid_integrate_task_list            24 10.0    0.372    0.403    0.372    0.403
 rs_pw_transfer_PW2RS_90             24 12.0    0.069    0.083    0.319    0.375
 pw_scatter_p                       217 13.7    0.313    0.340    0.313    0.340
 ot_mini                             24  8.0    0.000    0.000    0.297    0.299
 rs_grid_zero                        96 10.8    0.260    0.291    0.260    0.291
 -------------------------------------------------------------------------------

 The number of warnings for this run is : 0
 
 -------------------------------------------------------------------------------
  **** **** ******  **  PROGRAM ENDED AT                 2022-05-09 20:38:40.987
 ***** ** ***  *** **   PROGRAM RAN ON                                   tcopt10
 **    ****   ******    PROGRAM RAN BY                                    hutter
 ***** **    ** ** **   PROGRAM PROCESS ID                                 46224
  **** **  *******  **  PROGRAM STOPPED IN /data/hutter/GITHUB/BASIS/scMOLOPT/PB
                                           E/hbcnof
