 DBCSR| CPU Multiplication driver                                           XSMM
 DBCSR| Multrec recursion limit                                              512
 DBCSR| Multiplication stack size                                           1000
 DBCSR| Maximum elements for images                                    UNLIMITED
 DBCSR| Multiplicative factor virtual images                                   1
 DBCSR| Use multiplication densification                                       T
 DBCSR| Multiplication size stacks                                             3
 DBCSR| Use memory pool for CPU allocation                                     F
 DBCSR| Number of 3D layers                                               SINGLE
 DBCSR| Use MPI memory allocation                                              F
 DBCSR| Use RMA algorithm                                                      F
 DBCSR| Use Communication thread                                               T
 DBCSR| Communication thread load                                             87
 DBCSR| MPI: My node id                                                        0
 DBCSR| MPI: Number of nodes                                                  36
 DBCSR| OMP: Current number of threads                                         1
 DBCSR| OMP: Max number of threads                                             1
 DBCSR| Split modifier for TAS multiplication algorithm                  1.0E+00


  **** **** ******  **  PROGRAM STARTED AT               2022-05-09 20:41:44.851
 ***** ** ***  *** **   PROGRAM STARTED ON                               tcopt10
 **    ****   ******    PROGRAM STARTED BY                                hutter
 ***** **    ** ** **   PROGRAM PROCESS ID                                 48331
  **** **  *******  **  PROGRAM STARTED IN /data/hutter/GITHUB/BASIS/scMOLOPT/PB
                                           E/hbcnof

 CP2K| version string:                   CP2K version 10.0 (Development Version)
 CP2K| source code revision number:                                  git:57d9aec
 CP2K| cp2kflags: omp libint fftw3 libxc elpa parallel mpi3 scalapack cosma xsmm
 CP2K|             spglib sirius libvori libbqb
 CP2K| is freely available from                            https://www.cp2k.org/
 CP2K| Program compiled at                      Fri 06 May 2022 02:09:00 PM CEST
 CP2K| Program compiled on                                               tcopt10
 CP2K| Program compiled for                                                local
 CP2K| Data directory path                   /data/hutter/GITHUB/TDLRI/cp2k/data
 CP2K| Input file name                                               BF3-ref.inp

 GLOBAL| Force Environment number                                              1
 GLOBAL| Basis set file name                                        ../def2QZVPP
 GLOBAL| Potential file name                                        ../POTENTIAL
 GLOBAL| MM Potential file name                                     MM_POTENTIAL
 GLOBAL| Coordinate file name                                      __STD_INPUT__
 GLOBAL| Method name                                                        CP2K
 GLOBAL| Project name                                                     refBF3
 GLOBAL| Run type                                                         ENERGY
 GLOBAL| FFT library                                                       FFTW3
 GLOBAL| Diagonalization library                                       ScaLAPACK
 GLOBAL| Orthonormality check for eigenvectors                          DISABLED
 GLOBAL| Matrix multiplication library                                     COSMA
 GLOBAL| All-to-all communication in single precision                          F
 GLOBAL| FFTs using library dependent lengths                                  F
 GLOBAL| Grid backend                                                       AUTO
 GLOBAL| Global print level                                                  LOW
 GLOBAL| MPI I/O enabled                                                       T
 GLOBAL| Total number of message passing processes                            36
 GLOBAL| Number of threads for this process                                    1
 GLOBAL| This output is from process                                           0
 GLOBAL| Stack size for threads created by OpenMP (OMP_STACKSIZE)        default
 GLOBAL| CPU model name                          AMD EPYC 7401 24-Core Processor
 GLOBAL| CPUID                                                              1002

 MEMORY| system memory details [Kb]
 MEMORY|                        rank 0           min           max       average
 MEMORY| MemTotal            263969136     263969136     263969136     263969136
 MEMORY| MemFree             245272608     245272608     245272608     245272608
 MEMORY| Buffers                   136           136           136           136
 MEMORY| Cached               12533692      12533692      12533692      12533692
 MEMORY| Slab                  1353256       1353256       1353256       1353256
 MEMORY| SReclaimable           819884        819884        819884        819884
 MEMORY| MemLikelyFree       258626320     258626320     258626320     258626320


 GENERATE|  Preliminary Number of Bonds generated:                             0
 GENERATE|  Achieved consistency in connectivity generation.

 *******************************************************************************
 *******************************************************************************
 **                                                                           **
 **     #####                         ##              ##                      **
 **    ##   ##            ##          ##              ##                      **
 **   ##     ##                       ##            ######                    **
 **   ##     ##  ##   ##  ##   #####  ##  ##   ####   ##    #####    #####    **
 **   ##     ##  ##   ##  ##  ##      ## ##   ##      ##   ##   ##  ##   ##   **
 **   ##  ## ##  ##   ##  ##  ##      ####     ###    ##   ######   ######    **
 **    ##  ###   ##   ##  ##  ##      ## ##      ##   ##   ##       ##        **
 **     #######   #####   ##   #####  ##  ##  ####    ##    #####   ##        **
 **           ##                                                    ##        **
 **                                                                           **
 **                                                ... make the atoms dance   **
 **                                                                           **
 **            Copyright (C) by CP2K developers group (2000-2022)             **
 **                      J. Chem. Phys. 152, 194103 (2020)                    **
 **                                                                           **
 *******************************************************************************


 TOTAL NUMBERS AND MAXIMUM NUMBERS

  Total number of            - Atomic kinds:                                   2
                             - Atoms:                                          4
                             - Shell sets:                                    68
                             - Shells:                                        68
                             - Primitive Cartesian functions:                116
                             - Cartesian basis functions:                    288
                             - Spherical basis functions:                    228

  Maximum angular momentum of the orbital basis functions:                     4


 SCF PARAMETERS         Density guess:                                    ATOMIC
                        --------------------------------------------------------
                        max_scf:                                              10
                        max_scf_history:                                       0
                        max_diis:                                              4
                        --------------------------------------------------------
                        eps_scf:                                        1.00E-07
                        eps_scf_history:                                0.00E+00
                        eps_diis:                                       1.00E-01
                        eps_eigval:                                     1.00E-05
                        --------------------------------------------------------
                        level_shift [a.u.]:                                 0.00
                        --------------------------------------------------------
                        Outer loop SCF in use 
                        No variables optimised in outer loop
                        eps_scf                                         1.00E-07
                        max_scf                                               10
                        No outer loop optimization
                        step_size                                       5.00E-01

 Number of electrons:                                                         32
 Number of occupied orbitals:                                                 16
 Number of molecular orbitals:                                                16

 Number of orbital functions:                                                228
 Number of independent orbital functions:                                    228

 Extrapolation method: initial_guess


 SCF WAVEFUNCTION OPTIMIZATION

  ----------------------------------- OT ---------------------------------------
  Minimizer      : DIIS                : direct inversion
                                         in the iterative subspace
                                         using   7 DIIS vectors
                                         safer DIIS on
  Preconditioner : FULL_ALL            : diagonalization, state selective
  Precond_solver : DEFAULT
  stepsize       :    0.15000000                  energy_gap     :    0.08000000
  eps_taylor     :   0.10000E-15                  max_taylor     :             4
  ----------------------------------- OT ---------------------------------------

  Step     Update method      Time    Convergence         Total energy    Change
  ------------------------------------------------------------------------------
     1 OT DIIS     0.15E+00    0.6     0.17483168      -311.2954848853 -3.11E+02
     2 OT DIIS     0.15E+00    0.6     0.05151229      -321.7905703586 -1.05E+01
     3 OT DIIS     0.15E+00    0.6     0.02366774      -322.8601051687 -1.07E+00
     4 OT DIIS     0.15E+00    0.6     0.01992016      -323.1192130501 -2.59E-01
     5 OT DIIS     0.15E+00    0.6     0.01634867      -323.5185404121 -3.99E-01
     6 OT DIIS     0.15E+00    0.6     0.01340747      -323.7829272146 -2.64E-01
     7 OT DIIS     0.15E+00    0.6     0.00953179      -324.0907446567 -3.08E-01
     8 OT DIIS     0.15E+00    0.6     0.00658478      -324.2631295625 -1.72E-01
     9 OT DIIS     0.15E+00    0.6     0.01104708      -324.2514909594  1.16E-02
    10 OT DIIS     0.15E+00    0.6     0.00363085      -324.3613221231 -1.10E-01

  Leaving inner SCF loop after reaching    10 steps.


  Electronic density on regular grids:        -23.1736421464        8.8263578536
  Core density on regular grids:               32.0000000000        0.0000000000
  Hard and soft densities (Lebedev):          -77.6423524634      -68.8159934230
  Total Rho_soft + Rho1_hard - Rho1_soft      -32.0000011868
  Total charge density (r-space):              -0.0000011868
  Total Rho_soft + Rho0_soft (g-space):        -0.0000014289

  Overlap energy of the core charge distribution:               0.00001411379088
  Self energy of the core charge distribution:               -329.94250686320146
  Core Hamiltonian energy:                                    -20.30919591127162
  Hartree energy:                                              46.11773462907453
  Exchange-correlation energy:                                -13.86441133094269

  GAPW| Exc from hard and soft atomic rho1:                   -21.31647313928032
  GAPW| local Eh = 1 center integrals:                         14.95351637874022

  Total energy:                                              -324.36132212309047

  outer SCF iter =    1 RMS gradient =   0.36E-02 energy =       -324.3613221231

  ----------------------------------- OT ---------------------------------------
  Minimizer      : DIIS                : direct inversion
                                         in the iterative subspace
                                         using   7 DIIS vectors
                                         safer DIIS on
  Preconditioner : FULL_ALL            : diagonalization, state selective
  Precond_solver : DEFAULT
  stepsize       :    0.15000000                  energy_gap     :    0.08000000
  eps_taylor     :   0.10000E-15                  max_taylor     :             4
  ----------------------------------- OT ---------------------------------------

  Step     Update method      Time    Convergence         Total energy    Change
  ------------------------------------------------------------------------------
     1 OT DIIS     0.15E+00    1.2     0.00691300      -324.3835990638 -2.23E-02
     2 OT DIIS     0.15E+00    0.6     0.00267483      -324.4015173512 -1.79E-02
     3 OT DIIS     0.15E+00    0.6     0.00088092      -324.4044605170 -2.94E-03
     4 OT DIIS     0.15E+00    0.6     0.00016473      -324.4045784711 -1.18E-04
     5 OT DIIS     0.15E+00    0.6     0.00002768      -324.4045836065 -5.14E-06
     6 OT DIIS     0.15E+00    0.6     0.00000973      -324.4045838543 -2.48E-07
     7 OT DIIS     0.15E+00    0.6     0.00000327      -324.4045838710 -1.67E-08
     8 OT DIIS     0.15E+00    0.6     0.00000063      -324.4045838732 -2.18E-09
     9 OT DIIS     0.15E+00    0.6     0.00000011      -324.4045838732 -3.00E-11
    10 OT DIIS     0.15E+00    0.6     0.00000007      -324.4045838731  7.53E-11

  *** SCF run converged in    10 steps ***


  Electronic density on regular grids:        -23.1772107007        8.8227892993
  Core density on regular grids:               32.0000000000        0.0000000000
  Hard and soft densities (Lebedev):          -77.8317393484      -69.0089487638
  Total Rho_soft + Rho1_hard - Rho1_soft      -32.0000012854
  Total charge density (r-space):              -0.0000012854
  Total Rho_soft + Rho0_soft (g-space):        -0.0000015275

  Overlap energy of the core charge distribution:               0.00001411379088
  Self energy of the core charge distribution:               -329.94250686320146
  Core Hamiltonian energy:                                    -20.29731765606605
  Hartree energy:                                              46.08027439015540
  Exchange-correlation energy:                                -13.88359380375334

  GAPW| Exc from hard and soft atomic rho1:                   -21.31401355192798
  GAPW| local Eh = 1 center integrals:                         14.95255949789760

  Total energy:                                              -324.40458387310497

  outer SCF iter =    2 RMS gradient =   0.67E-07 energy =       -324.4045838731
  outer SCF loop converged in   2 iterations or   20 steps


 ENERGY| Total FORCE_EVAL ( QS ) energy [a.u.]:             -324.404583873104968

 -------------------------------------------------------------------------------
 -                                                                             -
 -                                DBCSR STATISTICS                             -
 -                                                                             -
 -------------------------------------------------------------------------------
 COUNTER                                    TOTAL       BLAS       SMM       ACC
 flops    16 x    16 x    16              1392640       0.0%    100.0%      0.0%
 flops    16 x    16 x    57              9572352       0.0%    100.0%      0.0%
 flops    57 x    16 x    16             11907072       0.0%    100.0%      0.0%
 flops    57 x    57 x    16             21833280       0.0%    100.0%      0.0%
 flops    57 x    16 x    57            163021824       0.0%    100.0%      0.0%
 flops inhomo. stacks                           0       0.0%      0.0%      0.0%
 flops total                       207.727168E+06       0.0%    100.0%      0.0%
 flops max/rank                     56.880544E+06       0.0%    100.0%      0.0%
 matmuls inhomo. stacks                         0       0.0%      0.0%      0.0%
 matmuls total                               2684       0.0%    100.0%      0.0%
 number of processed stacks                  2684       0.0%    100.0%      0.0%
 average stack size                                     0.0       1.0       0.0
 marketing flops                   221.060064E+06
 -------------------------------------------------------------------------------
 # multiplications                            475
 max memory usage/rank             311.889920E+06
 # max total images/rank                        1
 # max 3D layers                                1
 # MPI messages exchanged                  171000
 MPI messages size (bytes):
  total size                       267.546880E+06
  min size                           0.000000E+00
  max size                          25.992000E+03
  average size                       1.564602E+03
 MPI breakdown and total messages size (bytes):
             size <=      128              152830                        0
       128 < size <=     8192               10330                 63769600
      8192 < size <=    32768                7840                203777280
     32768 < size <=   131072                   0                        0
    131072 < size <=  4194304                   0                        0
   4194304 < size <= 16777216                   0                        0
  16777216 < size                               0                        0
 -------------------------------------------------------------------------------
 -                                                                             -
 -                      DBCSR MESSAGE PASSING PERFORMANCE                      -
 -                                                                             -
 -------------------------------------------------------------------------------
 ROUTINE             CALLS      AVE VOLUME [Bytes]
 MP_Bcast                6                     12.
 MP_Allreduce         2513                      8.
 MP_Alltoall          1917                   3032.
 MP_ISend            11392                   1794.
 MP_IRecv            11392                   1230.
 -------------------------------------------------------------------------------

 -------------------------------------------------------------------------------
 -                                                                             -
 -                                GRID STATISTICS                              -
 -                                                                             -
 -------------------------------------------------------------------------------
 LP    KERNEL             BACKEND                              COUNT     PERCENT
 2     collocate ortho    REF                                   9387      10.58%
 2     integrate ortho    REF                                   8940      10.07%
 1     collocate ortho    REF                                   8169       9.21%
 3     collocate ortho    REF                                   8169       9.21%
 1     integrate ortho    REF                                   7780       8.77%
 3     integrate ortho    REF                                   7780       8.77%
 4     collocate ortho    REF                                   6867       7.74%
 4     integrate ortho    REF                                   6540       7.37%
 5     collocate ortho    REF                                   3990       4.50%
 5     integrate ortho    REF                                   3800       4.28%
 0     collocate ortho    REF                                   3087       3.48%
 0     integrate ortho    REF                                   2940       3.31%
 2     collocate general  REF                                   2880       3.25%
 2     integrate general  REF                                   2880       3.25%
 6     collocate ortho    REF                                   1785       2.01%
 6     integrate ortho    REF                                   1700       1.92%
 7     collocate ortho    REF                                    840       0.95%
 7     integrate ortho    REF                                    800       0.90%
 8     collocate ortho    REF                                    210       0.24%
 8     integrate ortho    REF                                    200       0.23%
 -------------------------------------------------------------------------------

 MEMORY| Estimated peak process memory [MiB]                                 299

 -------------------------------------------------------------------------------
 -                                                                             -
 -                         MESSAGE PASSING PERFORMANCE                         -
 -                                                                             -
 -------------------------------------------------------------------------------

 ROUTINE             CALLS      AVE VOLUME [Bytes]
 MP_Group                4
 MP_Bcast              549                 289545.
 MP_Allreduce         1719                  72196.
 MP_Sync                54
 MP_Alltoall           460                7580724.
 MP_ISendRecv         4305                  92352.
 MP_Wait              8274
 MP_comm_split          25
 MP_ISend             3564                 224120.
 MP_IRecv             3564                 224149.
 MP_Recv                 5                   5472.
 -------------------------------------------------------------------------------


 -------------------------------------------------------------------------------
 -                                                                             -
 -                           R E F E R E N C E S                               -
 -                                                                             -
 -------------------------------------------------------------------------------
 
 CP2K version 10.0 (Development Version), the CP2K developers group (2022).
 CP2K is freely available from https://www.cp2k.org/ .

 Kuehne,Thomas D.; Iannuzzi,Marcella; Del Ben,Mauro;
 Rybkin,Vladimir V.; Seewald,Patrick; Stein,Frederick; Laino,Teodoro;
 Khaliullin,Rustam Z.; Schuett,Ole; Schiffmann,Florian; Golze,Dorothea;
 Wilhelm,Jan; Chulkov,Sergey; Bani-Hashemian,Mohammad Hossein;
 Weber,Valery; Borstnik,Urban; Taillefumier,Mathieu;
 Jakobovits,Alice Shoshana; Lazzaro,Alfio; Pabst,Hans; Mueller,Tiziano;
 Schade,Robert; Guidon,Manuel; Andermatt,Samuel; Holmberg,Nico;
 Schenter,Gregory K.; Hehn,Anna; Bussy,Augustin; Belleflamme,Fabian;
 Tabacchi,Gloria; Gloess,Andreas; Lass,Michael; Bethune,Iain;
 Mundy,Christopher J.; Plessl,Christian; Watkins,Matt;
 VandeVondele,Joost; Krack,Matthias; Hutter,Juerg. 
 The Journal of Chemical Physics, 152 (19), (2020). 
 CP2K: An electronic structure and molecular dynamics software package -
 Quickstep: Efficient and accurate electronic structure calculations.
 https://doi.org/10.1063/5.0007045

 Schuett, Ole; Messmer, Peter; Hutter, Juerg; VandeVondele, Joost. 
 Electronic Structure Calculations on Graphics Processing Units, John
 Wiley & Sons, Ltd, 173-190 (2016). 
 GPU-Accelerated Sparse Matrix-Matrix Multiplication for
 Linear Scaling Density Functional Theory.
 https://doi.org/10.1002/9781118670712.ch8

 Heinecke, A; Henry, G; Hutchinson, M; Pabst, H. 
 Proceedings of Intl. Supercomputing Conference, 981-991 (2016). 
 LIBXSMM: Accelerating Small Matrix Multiplications
 by Runtime Code Generation.
 https://doi.org/10.1109/SC.2016.83

 Borstnik, U; VandeVondele, J; Weber, V; Hutter, J. 
 PARALLEL COMPUTING, 40 (5-6), 47-58 (2014). 
 Sparse matrix multiplication: The distributed block-compressed sparse
 row library.
 https://doi.org/10.1016/j.parco.2014.03.012

 Hutter, J; Iannuzzi, M; Schiffmann, F; VandeVondele, J. 
 WIREs Comput Mol Sci., 4 (1), 15-25 (2014). 
 CP2K: atomistic simulations of condensed matter systems.
 https://doi.org/10.1002/wcms.1159

 Frigo, M; Johnson, SG. 
 PROCEEDINGS OF THE IEEE, 93 (2), 216-231 (2005). 
 The design and implementation of FFTW3.
 https://doi.org/10.1109/JPROC.2004.840301

 VandeVondele, J; Hutter, J. 
 JOURNAL OF CHEMICAL PHYSICS, 118 (10), 4365-4369 (2003). 
 An efficient orbital transformation method for electronic structure
 calculations.
 https://doi.org/10.1063/1.1543154

 Lippert, G; Hutter, J; Parrinello, M. 
 THEORETICAL CHEMISTRY ACCOUNTS, 103 (2), 124-140 (1999). 
 The Gaussian and augmented-plane-wave density functional method for ab
 initio molecular dynamics simulations.
 https://doi.org/10.1007/s002140050523

 Krack, M; Parrinello, M. 
 PHYSICAL CHEMISTRY CHEMICAL PHYSICS, 2 (10), 2105-2112 (2000). 
 All-electron ab-initio molecular dynamics.
 https://doi.org/10.1039/b001167n

 Perdew, JP; Burke, K; Ernzerhof, M. 
 PHYSICAL REVIEW LETTERS, 77 (18), 3865-3868 (1996). 
 Generalized gradient approximation made simple.
 https://doi.org/10.1103/PhysRevLett.77.3865


 -------------------------------------------------------------------------------
 -                                                                             -
 -                                T I M I N G                                  -
 -                                                                             -
 -------------------------------------------------------------------------------
 SUBROUTINE                       CALLS  ASD         SELF TIME        TOTAL TIME
                                MAXIMUM       AVERAGE  MAXIMUM  AVERAGE  MAXIMUM
 CP2K                                 1  1.0    0.006    0.030   12.460   12.461
 qs_energies                          1  2.0    0.000    0.000   12.272   12.272
 scf_env_do_scf                       1  3.0    0.000    0.000   12.123   12.123
 scf_env_do_scf_inner_loop           20  4.0    0.000    0.002   11.053   11.053
 qs_ks_update_qs_env                 22  5.0    0.000    0.000    9.757    9.758
 rebuild_ks_matrix                   20  6.0    0.000    0.000    9.753    9.755
 qs_ks_build_kohn_sham_matrix        20  7.0    0.004    0.005    9.753    9.755
 pw_transfer                        425 10.1    0.039    0.044    3.582    3.992
 fft_wrap_pw1pw2                    365 11.2    0.004    0.005    3.514    3.926
 fft_wrap_pw1pw2_250                242 12.6    0.208    0.257    3.325    3.723
 fft3d_ps                           365 13.2    1.342    1.625    2.780    3.254
 qs_vxc_create                       20  8.0    0.000    0.001    2.928    2.928
 xc_vxc_pw_create                    20  9.0    0.020    0.024    2.927    2.928
 rs_pw_transfer                     204  9.5    0.004    0.005    2.663    2.832
 xc_pw_derive                       120 11.0    0.001    0.001    1.935    2.382
 prepare_gapw_den                    20  8.0    0.001    0.001    2.146    2.171
 qs_rho_update_rho                   21  5.0    0.000    0.000    1.934    1.937
 mp_alltoall_z22v                   365 15.2    1.163    1.914    1.163    1.914
 calculate_rho_elec                  21  6.0    0.011    0.012    1.849    1.850
 xc_pw_divergence                    20 10.0    0.001    0.001    1.353    1.803
 xc_rho_set_and_dset_create          20 10.0    0.021    0.025    1.502    1.793
 mp_sum_d                          1030  6.4    1.556    1.727    1.556    1.727
 sum_up_and_integrate                20  8.0    0.007    0.011    1.680    1.682
 integrate_v_rspace                  20  9.0    0.000    0.001    1.673    1.676
 density_rs2pw                       21  7.0    0.001    0.001    1.504    1.641
 yz_to_x                            163 14.1    0.111    0.178    0.869    1.457
 calculate_vxc_atom                  20  8.0    0.015    0.159    1.318    1.318
 potential_pw2rs                     20 10.0    0.001    0.002    1.216    1.218
 rs_pw_transfer_RS2PW_250            41 10.0    0.522    0.643    1.026    1.165
 mp_waitany                        3564 11.5    0.773    1.093    0.773    1.093
 gaVxcgb_GC                          40  9.0    0.061    1.085    0.061    1.085
 init_scf_loop                        2  4.0    0.000    0.000    1.069    1.069
 calculate_rho_atom                  40  9.0    0.424    1.054    0.424    1.054
 rs_pw_transfer_PW2RS_250            40 11.0    0.529    0.623    0.992    1.040
 integrate_vhg0_rspace               20  8.0    0.133    0.168    1.023    1.035
 xc_functional_eval                 100 10.8    0.000    0.001    0.587    0.846
 pbe_lda_eval                       100 11.8    0.587    0.846    0.587    0.846
 put_rho0_on_grid                    20  9.0    0.013    0.016    0.805    0.830
 mp_sum_dv                          582 12.9    0.540    0.736    0.540    0.736
 x_to_yz                            161 14.6    0.139    0.191    0.541    0.649
 mp_waitall_1                     35110 13.9    0.482    0.588    0.482    0.588
 grid_collocate_task_list            21  7.0    0.295    0.579    0.295    0.579
 calculate_rho0_atom                 40  9.0    0.380    0.518    0.380    0.518
 mp_alltoall_d11v                   494 11.7    0.375    0.469    0.375    0.469
 rs_gather_matrices                  20 10.0    0.000    0.001    0.362    0.456
 grid_integrate_task_list            20 10.0    0.094    0.454    0.094    0.454
 qs_scf_new_mos                      20  5.0    0.000    0.000    0.436    0.438
 qs_scf_loop_do_ot                   20  6.0    0.000    0.000    0.436    0.438
 ot_scf_mini                         20  7.0    0.000    0.000    0.419    0.421
 dbcsr_multiply_generic             475 10.1    0.013    0.013    0.402    0.411
 mp_sum_dm                          248  7.6    0.326    0.380    0.326    0.380
 pw_gather_p                        184 12.8    0.252    0.323    0.252    0.323
 rs_pw_transfer_PW2RS_90             20 12.0    0.059    0.070    0.271    0.309
 pw_scatter_p                       181 13.7    0.260    0.286    0.260    0.286
 ot_mini                             20  8.0    0.000    0.000    0.259    0.261
 -------------------------------------------------------------------------------

 The number of warnings for this run is : 0
 
 -------------------------------------------------------------------------------
  **** **** ******  **  PROGRAM ENDED AT                 2022-05-09 20:41:57.692
 ***** ** ***  *** **   PROGRAM RAN ON                                   tcopt10
 **    ****   ******    PROGRAM RAN BY                                    hutter
 ***** **    ** ** **   PROGRAM PROCESS ID                                 48331
  **** **  *******  **  PROGRAM STOPPED IN /data/hutter/GITHUB/BASIS/scMOLOPT/PB
                                           E/hbcnof
