 DBCSR| CPU Multiplication driver                                           XSMM
 DBCSR| Multrec recursion limit                                              512
 DBCSR| Multiplication stack size                                           1000
 DBCSR| Maximum elements for images                                    UNLIMITED
 DBCSR| Multiplicative factor virtual images                                   1
 DBCSR| Use multiplication densification                                       T
 DBCSR| Multiplication size stacks                                             3
 DBCSR| Use memory pool for CPU allocation                                     F
 DBCSR| Number of 3D layers                                               SINGLE
 DBCSR| Use MPI memory allocation                                              F
 DBCSR| Use RMA algorithm                                                      F
 DBCSR| Use Communication thread                                               T
 DBCSR| Communication thread load                                             87
 DBCSR| MPI: My node id                                                        0
 DBCSR| MPI: Number of nodes                                                  36
 DBCSR| OMP: Current number of threads                                         1
 DBCSR| OMP: Max number of threads                                             1
 DBCSR| Split modifier for TAS multiplication algorithm                  1.0E+00


  **** **** ******  **  PROGRAM STARTED AT               2022-05-09 20:35:59.704
 ***** ** ***  *** **   PROGRAM STARTED ON                               tcopt10
 **    ****   ******    PROGRAM STARTED BY                                hutter
 ***** **    ** ** **   PROGRAM PROCESS ID                                 44748
  **** **  *******  **  PROGRAM STARTED IN /data/hutter/GITHUB/BASIS/scMOLOPT/PB
                                           E/hbcnof

 CP2K| version string:                   CP2K version 10.0 (Development Version)
 CP2K| source code revision number:                                  git:57d9aec
 CP2K| cp2kflags: omp libint fftw3 libxc elpa parallel mpi3 scalapack cosma xsmm
 CP2K|             spglib sirius libvori libbqb
 CP2K| is freely available from                            https://www.cp2k.org/
 CP2K| Program compiled at                      Fri 06 May 2022 02:09:00 PM CEST
 CP2K| Program compiled on                                               tcopt10
 CP2K| Program compiled for                                                local
 CP2K| Data directory path                   /data/hutter/GITHUB/TDLRI/cp2k/data
 CP2K| Input file name                                               BH3-ref.inp

 GLOBAL| Force Environment number                                              1
 GLOBAL| Basis set file name                                        ../def2QZVPP
 GLOBAL| Potential file name                                        ../POTENTIAL
 GLOBAL| MM Potential file name                                     MM_POTENTIAL
 GLOBAL| Coordinate file name                                      __STD_INPUT__
 GLOBAL| Method name                                                        CP2K
 GLOBAL| Project name                                                     refBH3
 GLOBAL| Run type                                                         ENERGY
 GLOBAL| FFT library                                                       FFTW3
 GLOBAL| Diagonalization library                                       ScaLAPACK
 GLOBAL| Orthonormality check for eigenvectors                          DISABLED
 GLOBAL| Matrix multiplication library                                     COSMA
 GLOBAL| All-to-all communication in single precision                          F
 GLOBAL| FFTs using library dependent lengths                                  F
 GLOBAL| Grid backend                                                       AUTO
 GLOBAL| Global print level                                                  LOW
 GLOBAL| MPI I/O enabled                                                       T
 GLOBAL| Total number of message passing processes                            36
 GLOBAL| Number of threads for this process                                    1
 GLOBAL| This output is from process                                           0
 GLOBAL| Stack size for threads created by OpenMP (OMP_STACKSIZE)        default
 GLOBAL| CPU model name                          AMD EPYC 7401 24-Core Processor
 GLOBAL| CPUID                                                              1002

 MEMORY| system memory details [Kb]
 MEMORY|                        rank 0           min           max       average
 MEMORY| MemTotal            263969136     263969136     263969136     263969136
 MEMORY| MemFree             245278856     245278856     245278856     245278856
 MEMORY| Buffers                   136           136           136           136
 MEMORY| Cached               12532284      12532284      12532284      12532284
 MEMORY| Slab                  1358828       1358828       1358828       1358828
 MEMORY| SReclaimable           822544        822544        822544        822544
 MEMORY| MemLikelyFree       258633820     258633820     258633820     258633820


 GENERATE|  Preliminary Number of Bonds generated:                             2
 GENERATE|  Achieved consistency in connectivity generation.
 GENERATE|  Number of Bonds generated:                                         2
 GENERATE|  Preliminary Number of Bends generated:                             1
 GENERATE|  Number of Bends generated:                                         1
 GENERATE|  Number of UB generated:                                            1
 GENERATE|  Preliminary Number of Torsions generated:                          0

 *******************************************************************************
 *******************************************************************************
 **                                                                           **
 **     #####                         ##              ##                      **
 **    ##   ##            ##          ##              ##                      **
 **   ##     ##                       ##            ######                    **
 **   ##     ##  ##   ##  ##   #####  ##  ##   ####   ##    #####    #####    **
 **   ##     ##  ##   ##  ##  ##      ## ##   ##      ##   ##   ##  ##   ##   **
 **   ##  ## ##  ##   ##  ##  ##      ####     ###    ##   ######   ######    **
 **    ##  ###   ##   ##  ##  ##      ## ##      ##   ##   ##       ##        **
 **     #######   #####   ##   #####  ##  ##  ####    ##    #####   ##        **
 **           ##                                                    ##        **
 **                                                                           **
 **                                                ... make the atoms dance   **
 **                                                                           **
 **            Copyright (C) by CP2K developers group (2000-2022)             **
 **                      J. Chem. Phys. 152, 194103 (2020)                    **
 **                                                                           **
 *******************************************************************************


 TOTAL NUMBERS AND MAXIMUM NUMBERS

  Total number of            - Atomic kinds:                                   2
                             - Atoms:                                          4
                             - Shell sets:                                    47
                             - Shells:                                        47
                             - Primitive Cartesian functions:                 68
                             - Cartesian basis functions:                    177
                             - Spherical basis functions:                    147

  Maximum angular momentum of the orbital basis functions:                     4


 SCF PARAMETERS         Density guess:                                    ATOMIC
                        --------------------------------------------------------
                        max_scf:                                              10
                        max_scf_history:                                       0
                        max_diis:                                              4
                        --------------------------------------------------------
                        eps_scf:                                        1.00E-07
                        eps_scf_history:                                0.00E+00
                        eps_diis:                                       1.00E-01
                        eps_eigval:                                     1.00E-05
                        --------------------------------------------------------
                        level_shift [a.u.]:                                 0.00
                        --------------------------------------------------------
                        Outer loop SCF in use 
                        No variables optimised in outer loop
                        eps_scf                                         1.00E-07
                        max_scf                                               10
                        No outer loop optimization
                        step_size                                       5.00E-01

 Number of electrons:                                                          8
 Number of occupied orbitals:                                                  4
 Number of molecular orbitals:                                                 4

 Number of orbital functions:                                                147
 Number of independent orbital functions:                                    147

 Extrapolation method: initial_guess


 SCF WAVEFUNCTION OPTIMIZATION

  ----------------------------------- OT ---------------------------------------
  Minimizer      : DIIS                : direct inversion
                                         in the iterative subspace
                                         using   7 DIIS vectors
                                         safer DIIS on
  Preconditioner : FULL_ALL            : diagonalization, state selective
  Precond_solver : DEFAULT
  stepsize       :    0.15000000                  energy_gap     :    0.08000000
  eps_taylor     :   0.10000E-15                  max_taylor     :             4
  ----------------------------------- OT ---------------------------------------

  Step     Update method      Time    Convergence         Total energy    Change
  ------------------------------------------------------------------------------
     1 OT DIIS     0.15E+00    0.5     0.11432828       -25.7722533794 -2.58E+01
     2 OT DIIS     0.15E+00    0.5     0.04505100       -26.4261331408 -6.54E-01
     3 OT DIIS     0.15E+00    0.5     0.02073136       -26.5234626776 -9.73E-02
     4 OT DIIS     0.15E+00    0.5     0.00771776       -26.5498726995 -2.64E-02
     5 OT DIIS     0.15E+00    0.5     0.00333947       -26.5539478188 -4.08E-03
     6 OT DIIS     0.15E+00    0.5     0.00121561       -26.5550031779 -1.06E-03
     7 OT DIIS     0.15E+00    0.5     0.00038113       -26.5551455382 -1.42E-04
     8 OT DIIS     0.15E+00    0.5     0.00010599       -26.5551571892 -1.17E-05
     9 OT DIIS     0.15E+00    0.5     0.00003538       -26.5551580493 -8.60E-07
    10 OT DIIS     0.15E+00    0.5     0.00000995       -26.5551581520 -1.03E-07

  Leaving inner SCF loop after reaching    10 steps.


  Electronic density on regular grids:         -6.4609406831        1.5390593169
  Core density on regular grids:                8.0000000000       -0.0000000000
  Hard and soft densities (Lebedev):          -22.6690216605      -21.1299622987
  Total Rho_soft + Rho1_hard - Rho1_soft       -8.0000000449
  Total charge density (r-space):              -0.0000000449
  Total Rho_soft + Rho0_soft (g-space):        -0.0000000572

  Overlap energy of the core charge distribution:               0.00001048427116
  Self energy of the core charge distribution:                -20.48375968541510
  Core Hamiltonian energy:                                     -5.06161435055040
  Hartree energy:                                               9.62397246302975
  Exchange-correlation energy:                                 -2.40881242092946

  GAPW| Exc from hard and soft atomic rho1:                    -2.63842220219805
  GAPW| local Eh = 1 center integrals:                         -5.58653244025448

  Total energy:                                               -26.55515815204657

  outer SCF iter =    1 RMS gradient =   0.10E-04 energy =        -26.5551581520

  ----------------------------------- OT ---------------------------------------
  Minimizer      : DIIS                : direct inversion
                                         in the iterative subspace
                                         using   7 DIIS vectors
                                         safer DIIS on
  Preconditioner : FULL_ALL            : diagonalization, state selective
  Precond_solver : DEFAULT
  stepsize       :    0.15000000                  energy_gap     :    0.08000000
  eps_taylor     :   0.10000E-15                  max_taylor     :             4
  ----------------------------------- OT ---------------------------------------

  Step     Update method      Time    Convergence         Total energy    Change
  ------------------------------------------------------------------------------
     1 OT DIIS     0.15E+00    1.1     0.00000472       -26.5551581606 -8.54E-09
     2 OT DIIS     0.15E+00    0.5     0.00000179       -26.5551581619 -1.35E-09
     3 OT DIIS     0.15E+00    0.5     0.00000019       -26.5551581622 -2.34E-10
     4 OT DIIS     0.15E+00    0.5     0.00000005       -26.5551581622 -3.84E-12

  *** SCF run converged in     4 steps ***


  Electronic density on regular grids:         -6.4609377676        1.5390622324
  Core density on regular grids:                8.0000000000       -0.0000000000
  Hard and soft densities (Lebedev):          -22.6690502533      -21.1299879760
  Total Rho_soft + Rho1_hard - Rho1_soft       -8.0000000449
  Total charge density (r-space):              -0.0000000449
  Total Rho_soft + Rho0_soft (g-space):        -0.0000000572

  Overlap energy of the core charge distribution:               0.00001048427116
  Self energy of the core charge distribution:                -20.48375968541510
  Core Hamiltonian energy:                                     -5.06161573906385
  Hartree energy:                                               9.62397515377724
  Exchange-correlation energy:                                 -2.40880897909447

  GAPW| Exc from hard and soft atomic rho1:                    -2.63842745311881
  GAPW| local Eh = 1 center integrals:                         -5.58653194352289

  Total energy:                                               -26.55515816216673

  outer SCF iter =    2 RMS gradient =   0.47E-07 energy =        -26.5551581622
  outer SCF loop converged in   2 iterations or   14 steps


 ENERGY| Total FORCE_EVAL ( QS ) energy [a.u.]:              -26.555158162166730

 -------------------------------------------------------------------------------
 -                                                                             -
 -                                DBCSR STATISTICS                             -
 -                                                                             -
 -------------------------------------------------------------------------------
 COUNTER                                    TOTAL       BLAS       SMM       ACC
 flops     4 x     4 x     4                11264       0.0%    100.0%      0.0%
 flops     4 x     4 x    57               105792       0.0%    100.0%      0.0%
 flops    57 x     4 x     4               131328       0.0%    100.0%      0.0%
 flops     4 x     4 x    30               167040       0.0%    100.0%      0.0%
 flops    57 x    30 x     4               205200       0.0%    100.0%      0.0%
 flops    30 x     4 x     4               207360       0.0%    100.0%      0.0%
 flops    57 x    57 x     4               389880       0.0%    100.0%      0.0%
 flops    30 x    57 x     4               410400       0.0%    100.0%      0.0%
 flops    30 x    30 x     4               648000       0.0%    100.0%      0.0%
 flops    57 x     4 x    57              1923408       0.0%    100.0%      0.0%
 flops    57 x     4 x    30              3036960       0.0%    100.0%      0.0%
 flops    30 x     4 x    57              3036960       0.0%    100.0%      0.0%
 flops    30 x     4 x    30              4795200       0.0%    100.0%      0.0%
 flops inhomo. stacks                           0       0.0%      0.0%      0.0%
 flops total                        15.068792E+06       0.0%    100.0%      0.0%
 flops max/rank                      5.765672E+06       0.0%    100.0%      0.0%
 matmuls inhomo. stacks                         0       0.0%      0.0%      0.0%
 matmuls total                               1942       0.0%    100.0%      0.0%
 number of processed stacks                  1942       0.0%    100.0%      0.0%
 average stack size                                     0.0       1.0       0.0
 marketing flops                    16.017806E+06
 -------------------------------------------------------------------------------
 # multiplications                            309
 max memory usage/rank             298.401792E+06
 # max total images/rank                        1
 # max 3D layers                                1
 # MPI messages exchanged                  111240
 MPI messages size (bytes):
  total size                        70.989200E+06
  min size                           0.000000E+00
  max size                          25.992000E+03
  average size                     638.162537E+00
 MPI breakdown and total messages size (bytes):
             size <=      128               99480                   158720
       128 < size <=     8192                9170                 30843840
      8192 < size <=    32768                2590                 39986640
     32768 < size <=   131072                   0                        0
    131072 < size <=  4194304                   0                        0
   4194304 < size <= 16777216                   0                        0
  16777216 < size                               0                        0
 -------------------------------------------------------------------------------
 -                                                                             -
 -                      DBCSR MESSAGE PASSING PERFORMANCE                      -
 -                                                                             -
 -------------------------------------------------------------------------------
 ROUTINE             CALLS      AVE VOLUME [Bytes]
 MP_Bcast               14                     12.
 MP_Allreduce         1648                      8.
 MP_Alltoall          1386                   2691.
 MP_ISend             7408                    877.
 MP_IRecv             7408                    540.
 -------------------------------------------------------------------------------

 -------------------------------------------------------------------------------
 -                                                                             -
 -                                GRID STATISTICS                              -
 -                                                                             -
 -------------------------------------------------------------------------------
 LP    KERNEL             BACKEND                              COUNT     PERCENT
 1     collocate ortho    REF                                   6420      11.68%
 2     collocate ortho    REF                                   6225      11.32%
 1     integrate ortho    REF                                   5992      10.90%
 2     integrate ortho    REF                                   5810      10.57%
 3     collocate ortho    REF                                   4815       8.76%
 3     integrate ortho    REF                                   4494       8.17%
 0     collocate ortho    REF                                   4080       7.42%
 0     integrate ortho    REF                                   3808       6.93%
 4     collocate ortho    REF                                   2955       5.37%
 4     integrate ortho    REF                                   2758       5.02%
 2     collocate general  REF                                   2016       3.67%
 2     integrate general  REF                                   2016       3.67%
 5     collocate ortho    REF                                   1320       2.40%
 5     integrate ortho    REF                                   1232       2.24%
 6     collocate ortho    REF                                    420       0.76%
 6     integrate ortho    REF                                    392       0.71%
 7     collocate ortho    REF                                    105       0.19%
 7     integrate ortho    REF                                     98       0.18%
 8     collocate ortho    REF                                     15       0.03%
 8     integrate ortho    REF                                     14       0.03%
 -------------------------------------------------------------------------------

 MEMORY| Estimated peak process memory [MiB]                                 286

 -------------------------------------------------------------------------------
 -                                                                             -
 -                         MESSAGE PASSING PERFORMANCE                         -
 -                                                                             -
 -------------------------------------------------------------------------------

 ROUTINE             CALLS      AVE VOLUME [Bytes]
 MP_Group                4
 MP_Bcast              280                 547711.
 MP_Allreduce         1042                  30256.
 MP_Sync                36
 MP_Alltoall           328               10191503.
 MP_ISendRecv         3045                  92352.
 MP_Wait              5838
 MP_comm_split          16
 MP_ISend             2508                 224113.
 MP_IRecv             2508                 224155.
 MP_Recv                 3                   1176.
 -------------------------------------------------------------------------------


 -------------------------------------------------------------------------------
 -                                                                             -
 -                           R E F E R E N C E S                               -
 -                                                                             -
 -------------------------------------------------------------------------------
 
 CP2K version 10.0 (Development Version), the CP2K developers group (2022).
 CP2K is freely available from https://www.cp2k.org/ .

 Kuehne,Thomas D.; Iannuzzi,Marcella; Del Ben,Mauro;
 Rybkin,Vladimir V.; Seewald,Patrick; Stein,Frederick; Laino,Teodoro;
 Khaliullin,Rustam Z.; Schuett,Ole; Schiffmann,Florian; Golze,Dorothea;
 Wilhelm,Jan; Chulkov,Sergey; Bani-Hashemian,Mohammad Hossein;
 Weber,Valery; Borstnik,Urban; Taillefumier,Mathieu;
 Jakobovits,Alice Shoshana; Lazzaro,Alfio; Pabst,Hans; Mueller,Tiziano;
 Schade,Robert; Guidon,Manuel; Andermatt,Samuel; Holmberg,Nico;
 Schenter,Gregory K.; Hehn,Anna; Bussy,Augustin; Belleflamme,Fabian;
 Tabacchi,Gloria; Gloess,Andreas; Lass,Michael; Bethune,Iain;
 Mundy,Christopher J.; Plessl,Christian; Watkins,Matt;
 VandeVondele,Joost; Krack,Matthias; Hutter,Juerg. 
 The Journal of Chemical Physics, 152 (19), (2020). 
 CP2K: An electronic structure and molecular dynamics software package -
 Quickstep: Efficient and accurate electronic structure calculations.
 https://doi.org/10.1063/5.0007045

 Schuett, Ole; Messmer, Peter; Hutter, Juerg; VandeVondele, Joost. 
 Electronic Structure Calculations on Graphics Processing Units, John
 Wiley & Sons, Ltd, 173-190 (2016). 
 GPU-Accelerated Sparse Matrix-Matrix Multiplication for
 Linear Scaling Density Functional Theory.
 https://doi.org/10.1002/9781118670712.ch8

 Heinecke, A; Henry, G; Hutchinson, M; Pabst, H. 
 Proceedings of Intl. Supercomputing Conference, 981-991 (2016). 
 LIBXSMM: Accelerating Small Matrix Multiplications
 by Runtime Code Generation.
 https://doi.org/10.1109/SC.2016.83

 Borstnik, U; VandeVondele, J; Weber, V; Hutter, J. 
 PARALLEL COMPUTING, 40 (5-6), 47-58 (2014). 
 Sparse matrix multiplication: The distributed block-compressed sparse
 row library.
 https://doi.org/10.1016/j.parco.2014.03.012

 Hutter, J; Iannuzzi, M; Schiffmann, F; VandeVondele, J. 
 WIREs Comput Mol Sci., 4 (1), 15-25 (2014). 
 CP2K: atomistic simulations of condensed matter systems.
 https://doi.org/10.1002/wcms.1159

 Frigo, M; Johnson, SG. 
 PROCEEDINGS OF THE IEEE, 93 (2), 216-231 (2005). 
 The design and implementation of FFTW3.
 https://doi.org/10.1109/JPROC.2004.840301

 VandeVondele, J; Hutter, J. 
 JOURNAL OF CHEMICAL PHYSICS, 118 (10), 4365-4369 (2003). 
 An efficient orbital transformation method for electronic structure
 calculations.
 https://doi.org/10.1063/1.1543154

 Lippert, G; Hutter, J; Parrinello, M. 
 THEORETICAL CHEMISTRY ACCOUNTS, 103 (2), 124-140 (1999). 
 The Gaussian and augmented-plane-wave density functional method for ab
 initio molecular dynamics simulations.
 https://doi.org/10.1007/s002140050523

 Krack, M; Parrinello, M. 
 PHYSICAL CHEMISTRY CHEMICAL PHYSICS, 2 (10), 2105-2112 (2000). 
 All-electron ab-initio molecular dynamics.
 https://doi.org/10.1039/b001167n

 Perdew, JP; Burke, K; Ernzerhof, M. 
 PHYSICAL REVIEW LETTERS, 77 (18), 3865-3868 (1996). 
 Generalized gradient approximation made simple.
 https://doi.org/10.1103/PhysRevLett.77.3865


 -------------------------------------------------------------------------------
 -                                                                             -
 -                                T I M I N G                                  -
 -                                                                             -
 -------------------------------------------------------------------------------
 SUBROUTINE                       CALLS  ASD         SELF TIME        TOTAL TIME
                                MAXIMUM       AVERAGE  MAXIMUM  AVERAGE  MAXIMUM
 CP2K                                 1  1.0    0.006    0.030    7.546    7.547
 qs_energies                          1  2.0    0.000    0.000    7.384    7.384
 scf_env_do_scf                       1  3.0    0.000    0.000    7.258    7.258
 scf_env_do_scf_inner_loop           14  4.0    0.000    0.001    6.373    6.374
 qs_ks_update_qs_env                 16  5.0    0.000    0.000    5.737    5.738
 rebuild_ks_matrix                   14  6.0    0.000    0.000    5.736    5.736
 qs_ks_build_kohn_sham_matrix        14  7.0    0.003    0.003    5.736    5.736
 pw_transfer                        299 10.1    0.028    0.032    2.457    2.768
 fft_wrap_pw1pw2                    257 11.2    0.003    0.003    2.410    2.721
 fft_wrap_pw1pw2_250                170 12.6    0.149    0.186    2.287    2.579
 fft3d_ps                           257 13.2    0.937    1.140    1.889    2.243
 qs_vxc_create                       14  8.0    0.000    0.000    2.014    2.014
 xc_vxc_pw_create                    14  9.0    0.014    0.016    2.014    2.014
 rs_pw_transfer                     144  9.5    0.003    0.004    1.830    1.915
 xc_pw_derive                        84 11.0    0.001    0.001    1.343    1.636
 qs_rho_update_rho                   15  5.0    0.000    0.000    1.289    1.290
 calculate_rho_elec                  15  6.0    0.008    0.009    1.257    1.257
 mp_alltoall_z22v                   257 15.2    0.757    1.241    0.757    1.241
 xc_rho_set_and_dset_create          14 10.0    0.015    0.018    1.031    1.231
 xc_pw_divergence                    14 10.0    0.000    0.000    0.929    1.226
 sum_up_and_integrate                14  8.0    0.005    0.007    1.115    1.117
 integrate_v_rspace                  14  9.0    0.000    0.000    1.110    1.113
 density_rs2pw                       15  7.0    0.001    0.001    1.013    1.074
 prepare_gapw_den                    14  8.0    0.000    0.000    1.028    1.040
 yz_to_x                            115 14.1    0.081    0.124    0.561    0.936
 init_scf_loop                        2  4.0    0.000    0.000    0.883    0.883
 mp_sum_d                           797  5.0    0.752    0.845    0.752    0.845
 potential_pw2rs                     14 10.0    0.001    0.001    0.831    0.833
 rs_pw_transfer_RS2PW_250            29 10.0    0.384    0.483    0.684    0.757
 rs_pw_transfer_PW2RS_250            28 11.0    0.377    0.446    0.697    0.742
 mp_waitany                        2508 11.5    0.484    0.658    0.484    0.658
 calculate_vxc_atom                  14  8.0    0.008    0.090    0.601    0.601
 integrate_vhg0_rspace               14  8.0    0.043    0.054    0.586    0.594
 put_rho0_on_grid                    14  9.0    0.009    0.010    0.558    0.570
 xc_functional_eval                  70 10.8    0.000    0.000    0.388    0.565
 pbe_lda_eval                        70 11.8    0.388    0.565    0.388    0.565
 gaVxcgb_GC                          28  9.0    0.017    0.458    0.017    0.458
 x_to_yz                            113 14.6    0.097    0.133    0.372    0.449
 mp_waitall_1                     23106 13.8    0.326    0.426    0.326    0.426
 calculate_rho_atom                  28  9.0    0.174    0.424    0.174    0.424
 grid_collocate_task_list            15  7.0    0.207    0.380    0.207    0.380
 mp_alltoall_d11v                   389 11.3    0.241    0.288    0.241    0.288
 rs_gather_matrices                  14 10.0    0.000    0.001    0.231    0.278
 grid_integrate_task_list            14 10.0    0.047    0.278    0.047    0.278
 qs_scf_new_mos                      14  5.0    0.000    0.000    0.250    0.251
 qs_scf_loop_do_ot                   14  6.0    0.000    0.000    0.250    0.251
 dbcsr_multiply_generic             309 10.0    0.009    0.009    0.242    0.245
 ot_scf_mini                         14  7.0    0.000    0.000    0.239    0.240
 mp_sum_dv                          182 12.5    0.210    0.236    0.210    0.236
 pw_gather_p                        130 12.8    0.178    0.228    0.178    0.228
 rs_pw_transfer_PW2RS_90             14 12.0    0.040    0.047    0.184    0.218
 pw_scatter_p                       127 13.6    0.183    0.200    0.183    0.200
 rs_grid_zero                        56 10.8    0.151    0.173    0.151    0.173
 mp_sum_dm                          176  7.6    0.120    0.156    0.120    0.156
 ot_mini                             14  8.0    0.000    0.000    0.153    0.154
 -------------------------------------------------------------------------------

 The number of warnings for this run is : 0
 
 -------------------------------------------------------------------------------
  **** **** ******  **  PROGRAM ENDED AT                 2022-05-09 20:36:07.638
 ***** ** ***  *** **   PROGRAM RAN ON                                   tcopt10
 **    ****   ******    PROGRAM RAN BY                                    hutter
 ***** **    ** ** **   PROGRAM PROCESS ID                                 44748
  **** **  *******  **  PROGRAM STOPPED IN /data/hutter/GITHUB/BASIS/scMOLOPT/PB
                                           E/hbcnof
