 DBCSR| CPU Multiplication driver                                           XSMM
 DBCSR| Multrec recursion limit                                              512
 DBCSR| Multiplication stack size                                           1000
 DBCSR| Maximum elements for images                                    UNLIMITED
 DBCSR| Multiplicative factor virtual images                                   1
 DBCSR| Use multiplication densification                                       T
 DBCSR| Multiplication size stacks                                             3
 DBCSR| Use memory pool for CPU allocation                                     F
 DBCSR| Number of 3D layers                                               SINGLE
 DBCSR| Use MPI memory allocation                                              F
 DBCSR| Use RMA algorithm                                                      F
 DBCSR| Use Communication thread                                               T
 DBCSR| Communication thread load                                             87
 DBCSR| MPI: My node id                                                        0
 DBCSR| MPI: Number of nodes                                                  36
 DBCSR| OMP: Current number of threads                                         1
 DBCSR| OMP: Max number of threads                                             1
 DBCSR| Split modifier for TAS multiplication algorithm                  1.0E+00


  **** **** ******  **  PROGRAM STARTED AT               2022-05-09 20:42:49.716
 ***** ** ***  *** **   PROGRAM STARTED ON                               tcopt10
 **    ****   ******    PROGRAM STARTED BY                                hutter
 ***** **    ** ** **   PROGRAM PROCESS ID                                 48999
  **** **  *******  **  PROGRAM STARTED IN /data/hutter/GITHUB/BASIS/scMOLOPT/PB
                                           E/hbcnof

 CP2K| version string:                   CP2K version 10.0 (Development Version)
 CP2K| source code revision number:                                  git:57d9aec
 CP2K| cp2kflags: omp libint fftw3 libxc elpa parallel mpi3 scalapack cosma xsmm
 CP2K|             spglib sirius libvori libbqb
 CP2K| is freely available from                            https://www.cp2k.org/
 CP2K| Program compiled at                      Fri 06 May 2022 02:09:00 PM CEST
 CP2K| Program compiled on                                               tcopt10
 CP2K| Program compiled for                                                local
 CP2K| Data directory path                   /data/hutter/GITHUB/TDLRI/cp2k/data
 CP2K| Input file name                                             BH3CO-ref.inp

 GLOBAL| Force Environment number                                              1
 GLOBAL| Basis set file name                                        ../def2QZVPP
 GLOBAL| Potential file name                                        ../POTENTIAL
 GLOBAL| MM Potential file name                                     MM_POTENTIAL
 GLOBAL| Coordinate file name                                      __STD_INPUT__
 GLOBAL| Method name                                                        CP2K
 GLOBAL| Project name                                                   refBH3CO
 GLOBAL| Run type                                                         ENERGY
 GLOBAL| FFT library                                                       FFTW3
 GLOBAL| Diagonalization library                                       ScaLAPACK
 GLOBAL| Orthonormality check for eigenvectors                          DISABLED
 GLOBAL| Matrix multiplication library                                     COSMA
 GLOBAL| All-to-all communication in single precision                          F
 GLOBAL| FFTs using library dependent lengths                                  F
 GLOBAL| Grid backend                                                       AUTO
 GLOBAL| Global print level                                                  LOW
 GLOBAL| MPI I/O enabled                                                       T
 GLOBAL| Total number of message passing processes                            36
 GLOBAL| Number of threads for this process                                    1
 GLOBAL| This output is from process                                           0
 GLOBAL| Stack size for threads created by OpenMP (OMP_STACKSIZE)        default
 GLOBAL| CPU model name                          AMD EPYC 7401 24-Core Processor
 GLOBAL| CPUID                                                              1002

 MEMORY| system memory details [Kb]
 MEMORY|                        rank 0           min           max       average
 MEMORY| MemTotal            263969136     263969136     263969136     263969136
 MEMORY| MemFree             245277764     245277764     245277764     245277764
 MEMORY| Buffers                   136           136           136           136
 MEMORY| Cached               12534948      12534948      12534948      12534948
 MEMORY| Slab                  1353608       1353608       1353608       1353608
 MEMORY| SReclaimable           819308        819308        819308        819308
 MEMORY| MemLikelyFree       258632156     258632156     258632156     258632156


 GENERATE|  Preliminary Number of Bonds generated:                             2
 GENERATE|  Achieved consistency in connectivity generation.
 GENERATE|  Number of Bonds generated:                                         2
 GENERATE|  Preliminary Number of Bends generated:                             1
 GENERATE|  Number of Bends generated:                                         1
 GENERATE|  Number of UB generated:                                            1
 GENERATE|  Preliminary Number of Torsions generated:                          0

 *******************************************************************************
 *******************************************************************************
 **                                                                           **
 **     #####                         ##              ##                      **
 **    ##   ##            ##          ##              ##                      **
 **   ##     ##                       ##            ######                    **
 **   ##     ##  ##   ##  ##   #####  ##  ##   ####   ##    #####    #####    **
 **   ##     ##  ##   ##  ##  ##      ## ##   ##      ##   ##   ##  ##   ##   **
 **   ##  ## ##  ##   ##  ##  ##      ####     ###    ##   ######   ######    **
 **    ##  ###   ##   ##  ##  ##      ## ##      ##   ##   ##       ##        **
 **     #######   #####   ##   #####  ##  ##  ####    ##    #####   ##        **
 **           ##                                                    ##        **
 **                                                                           **
 **                                                ... make the atoms dance   **
 **                                                                           **
 **            Copyright (C) by CP2K developers group (2000-2022)             **
 **                      J. Chem. Phys. 152, 194103 (2020)                    **
 **                                                                           **
 *******************************************************************************


 TOTAL NUMBERS AND MAXIMUM NUMBERS

  Total number of            - Atomic kinds:                                   4
                             - Atoms:                                          6
                             - Shell sets:                                    81
                             - Shells:                                        81
                             - Primitive Cartesian functions:                126
                             - Cartesian basis functions:                    321
                             - Spherical basis functions:                    261

  Maximum angular momentum of the orbital basis functions:                     4


 SCF PARAMETERS         Density guess:                                    ATOMIC
                        --------------------------------------------------------
                        max_scf:                                              10
                        max_scf_history:                                       0
                        max_diis:                                              4
                        --------------------------------------------------------
                        eps_scf:                                        1.00E-07
                        eps_scf_history:                                0.00E+00
                        eps_diis:                                       1.00E-01
                        eps_eigval:                                     1.00E-05
                        --------------------------------------------------------
                        level_shift [a.u.]:                                 0.00
                        --------------------------------------------------------
                        Outer loop SCF in use 
                        No variables optimised in outer loop
                        eps_scf                                         1.00E-07
                        max_scf                                               10
                        No outer loop optimization
                        step_size                                       5.00E-01

 Number of electrons:                                                         22
 Number of occupied orbitals:                                                 11
 Number of molecular orbitals:                                                11

 Number of orbital functions:                                                261
 Number of independent orbital functions:                                    261

 Extrapolation method: initial_guess


 SCF WAVEFUNCTION OPTIMIZATION

  ----------------------------------- OT ---------------------------------------
  Minimizer      : DIIS                : direct inversion
                                         in the iterative subspace
                                         using   7 DIIS vectors
                                         safer DIIS on
  Preconditioner : FULL_ALL            : diagonalization, state selective
  Precond_solver : DEFAULT
  stepsize       :    0.15000000                  energy_gap     :    0.08000000
  eps_taylor     :   0.10000E-15                  max_taylor     :             4
  ----------------------------------- OT ---------------------------------------

  Step     Update method      Time    Convergence         Total energy    Change
  ------------------------------------------------------------------------------
     1 OT DIIS     0.15E+00    0.6     0.15537085      -132.0890681922 -1.32E+02
     2 OT DIIS     0.15E+00    0.7     0.04310680      -138.1784539119 -6.09E+00
     3 OT DIIS     0.15E+00    0.7     0.02376777      -138.8089895455 -6.31E-01
     4 OT DIIS     0.15E+00    0.7     0.01792172      -139.0842490482 -2.75E-01
     5 OT DIIS     0.15E+00    0.7     0.01432569      -139.2969566378 -2.13E-01
     6 OT DIIS     0.15E+00    0.7     0.01106109      -139.4835283163 -1.87E-01
     7 OT DIIS     0.15E+00    0.7     0.01002278      -139.5763316530 -9.28E-02
     8 OT DIIS     0.15E+00    0.7     0.00866233      -139.6435463495 -6.72E-02
     9 OT DIIS     0.15E+00    0.7     0.00714860      -139.7382639585 -9.47E-02
    10 OT DIIS     0.15E+00    0.7     0.00889562      -139.8101400666 -7.19E-02

  Leaving inner SCF loop after reaching    10 steps.


  Electronic density on regular grids:        -16.3032547700        5.6967452300
  Core density on regular grids:               22.0000000000       -0.0000000000
  Hard and soft densities (Lebedev):          -57.8902802477      -52.1935379103
  Total Rho_soft + Rho1_hard - Rho1_soft      -21.9999971074
  Total charge density (r-space):               0.0000028926
  Total Rho_soft + Rho0_soft (g-space):         0.0000028457

  Overlap energy of the core charge distribution:               0.00001886916554
  Self energy of the core charge distribution:               -122.50662653233485
  Core Hamiltonian energy:                                    -19.06852469257705
  Hartree energy:                                              41.00473438070273
  Exchange-correlation energy:                                 -7.35022535561085

  GAPW| Exc from hard and soft atomic rho1:                   -11.49430093758560
  GAPW| local Eh = 1 center integrals:                        -20.39521579833879

  Total energy:                                              -139.81014006657887

  outer SCF iter =    1 RMS gradient =   0.89E-02 energy =       -139.8101400666

  ----------------------------------- OT ---------------------------------------
  Minimizer      : DIIS                : direct inversion
                                         in the iterative subspace
                                         using   7 DIIS vectors
                                         safer DIIS on
  Preconditioner : FULL_ALL            : diagonalization, state selective
  Precond_solver : DEFAULT
  stepsize       :    0.15000000                  energy_gap     :    0.08000000
  eps_taylor     :   0.10000E-15                  max_taylor     :             4
  ----------------------------------- OT ---------------------------------------

  Step     Update method      Time    Convergence         Total energy    Change
  ------------------------------------------------------------------------------
     1 OT DIIS     0.15E+00    1.4     0.01666450      -139.7965877286  1.36E-02
     2 OT DIIS     0.15E+00    0.7     0.01593439      -139.8396472459 -4.31E-02
     3 OT DIIS     0.15E+00    0.7     0.00840556      -139.8546466280 -1.50E-02
     4 OT DIIS     0.15E+00    0.7     0.00136654      -139.8608999730 -6.25E-03
     5 OT DIIS     0.15E+00    0.7     0.00036274      -139.8611047610 -2.05E-04
     6 OT DIIS     0.15E+00    0.7     0.00009477      -139.8611235140 -1.88E-05
     7 OT DIIS     0.15E+00    0.7     0.00003137      -139.8611260211 -2.51E-06
     8 OT DIIS     0.15E+00    0.7     0.00000794      -139.8611261342 -1.13E-07
     9 OT DIIS     0.15E+00    0.7     0.00000109      -139.8611261426 -8.35E-09
    10 OT DIIS     0.15E+00    0.7     0.00000018      -139.8611261428 -2.35E-10

  Leaving inner SCF loop after reaching    10 steps.


  Electronic density on regular grids:        -16.2847780867        5.7152219133
  Core density on regular grids:               22.0000000000       -0.0000000000
  Hard and soft densities (Lebedev):          -58.2827917404      -52.5675728139
  Total Rho_soft + Rho1_hard - Rho1_soft      -21.9999970132
  Total charge density (r-space):               0.0000029868
  Total Rho_soft + Rho0_soft (g-space):         0.0000029401

  Overlap energy of the core charge distribution:               0.00001886916554
  Self energy of the core charge distribution:               -122.50662653233485
  Core Hamiltonian energy:                                    -18.95000300073084
  Hartree energy:                                              40.80555591878731
  Exchange-correlation energy:                                 -7.36019018916811

  GAPW| Exc from hard and soft atomic rho1:                   -11.52183994345400
  GAPW| local Eh = 1 center integrals:                        -20.32804126508233

  Total energy:                                              -139.86112614281728

  outer SCF iter =    2 RMS gradient =   0.18E-06 energy =       -139.8611261428

  ----------------------------------- OT ---------------------------------------
  Minimizer      : DIIS                : direct inversion
                                         in the iterative subspace
                                         using   7 DIIS vectors
                                         safer DIIS on
  Preconditioner : FULL_ALL            : diagonalization, state selective
  Precond_solver : DEFAULT
  stepsize       :    0.15000000                  energy_gap     :    0.08000000
  eps_taylor     :   0.10000E-15                  max_taylor     :             4
  ----------------------------------- OT ---------------------------------------

  Step     Update method      Time    Convergence         Total energy    Change
  ------------------------------------------------------------------------------
     1 OT DIIS     0.15E+00    1.4     0.00000005      -139.8611261428 -3.67E-12

  *** SCF run converged in     1 steps ***


  Electronic density on regular grids:        -16.2847782065        5.7152217935
  Core density on regular grids:               22.0000000000       -0.0000000000
  Hard and soft densities (Lebedev):          -58.2827881261      -52.5675693194
  Total Rho_soft + Rho1_hard - Rho1_soft      -21.9999970132
  Total charge density (r-space):               0.0000029868
  Total Rho_soft + Rho0_soft (g-space):         0.0000029401

  Overlap energy of the core charge distribution:               0.00001886916554
  Self energy of the core charge distribution:               -122.50662653233485
  Core Hamiltonian energy:                                    -18.95000340486217
  Hartree energy:                                              40.80555651023811
  Exchange-correlation energy:                                 -7.36019022518572

  GAPW| Exc from hard and soft atomic rho1:                   -11.52183989794395
  GAPW| local Eh = 1 center integrals:                        -20.32804146189791

  Total energy:                                              -139.86112614282095

  outer SCF iter =    3 RMS gradient =   0.49E-07 energy =       -139.8611261428
  outer SCF loop converged in   3 iterations or   21 steps


 ENERGY| Total FORCE_EVAL ( QS ) energy [a.u.]:             -139.861126142820950

 -------------------------------------------------------------------------------
 -                                                                             -
 -                                DBCSR STATISTICS                             -
 -                                                                             -
 -------------------------------------------------------------------------------
 COUNTER                                    TOTAL       BLAS       SMM       ACC
 flops    11 x    11 x    11               449878       0.0%    100.0%      0.0%
 flops    11 x    11 x    30              1894860       0.0%    100.0%      0.0%
 flops    30 x    11 x    11              2352240       0.0%    100.0%      0.0%
 flops    30 x    30 x    11              2613600       0.0%    100.0%      0.0%
 flops    57 x    30 x    11              3310560       0.0%    100.0%      0.0%
 flops    11 x    11 x    57              3600234       0.0%    100.0%      0.0%
 flops    30 x    57 x    11              4138200       0.0%    100.0%      0.0%
 flops    57 x    11 x    11              4469256       0.0%    100.0%      0.0%
 flops    57 x    57 x    11              9435096       0.0%    100.0%      0.0%
 flops    30 x    11 x    30             19602000       0.0%    100.0%      0.0%
 flops    57 x    11 x    30             37243800       0.0%    100.0%      0.0%
 flops    30 x    11 x    57             37243800       0.0%    100.0%      0.0%
 flops    57 x    11 x    57             70763220       0.0%    100.0%      0.0%
 flops inhomo. stacks                           0       0.0%      0.0%      0.0%
 flops total                       197.116744E+06       0.0%    100.0%      0.0%
 flops max/rank                     45.009580E+06       0.0%    100.0%      0.0%
 matmuls inhomo. stacks                         0       0.0%      0.0%      0.0%
 matmuls total                               5761       0.0%    100.0%      0.0%
 number of processed stacks                  5761       0.0%    100.0%      0.0%
 average stack size                                     0.0       1.0       0.0
 marketing flops                   210.779648E+06
 -------------------------------------------------------------------------------
 # multiplications                            499
 max memory usage/rank             337.813504E+06
 # max total images/rank                        1
 # max 3D layers                                1
 # MPI messages exchanged                  179640
 MPI messages size (bytes):
  total size                       351.961280E+06
  min size                           0.000000E+00
  max size                          25.992000E+03
  average size                       1.959259E+03
 MPI breakdown and total messages size (bytes):
             size <=      128              144530                        0
       128 < size <=     8192               20260                 87868880
      8192 < size <=    32768               14850                264092400
     32768 < size <=   131072                   0                        0
    131072 < size <=  4194304                   0                        0
   4194304 < size <= 16777216                   0                        0
  16777216 < size                               0                        0
 -------------------------------------------------------------------------------
 -                                                                             -
 -                      DBCSR MESSAGE PASSING PERFORMANCE                      -
 -                                                                             -
 -------------------------------------------------------------------------------
 ROUTINE             CALLS      AVE VOLUME [Bytes]
 MP_Bcast               14                     12.
 MP_Allreduce         2639                      8.
 MP_Alltoall          2184                   3046.
 MP_ISend            11964                   1608.
 MP_IRecv            11964                   1338.
 -------------------------------------------------------------------------------

 -------------------------------------------------------------------------------
 -                                                                             -
 -                                GRID STATISTICS                              -
 -                                                                             -
 -------------------------------------------------------------------------------
 LP    KERNEL             BACKEND                              COUNT     PERCENT
 2     collocate ortho    REF                                  20548      11.49%
 1     collocate ortho    REF                                  19646      10.99%
 2     integrate ortho    REF                                  19614      10.97%
 1     integrate ortho    REF                                  18753      10.49%
 3     collocate ortho    REF                                  16610       9.29%
 3     integrate ortho    REF                                  15855       8.87%
 4     collocate ortho    REF                                  11022       6.16%
 4     integrate ortho    REF                                  10521       5.88%
 0     collocate ortho    REF                                  10340       5.78%
 0     integrate ortho    REF                                   9870       5.52%
 5     collocate ortho    REF                                   5588       3.12%
 5     integrate ortho    REF                                   5334       2.98%
 2     collocate general  REF                                   4536       2.54%
 2     integrate general  REF                                   4536       2.54%
 6     collocate ortho    REF                                   2244       1.25%
 6     integrate ortho    REF                                   2142       1.20%
 7     collocate ortho    REF                                    726       0.41%
 7     integrate ortho    REF                                    693       0.39%
 8     collocate ortho    REF                                    132       0.07%
 8     integrate ortho    REF                                    126       0.07%
 -------------------------------------------------------------------------------

 MEMORY| Estimated peak process memory [MiB]                                 323

 -------------------------------------------------------------------------------
 -                                                                             -
 -                         MESSAGE PASSING PERFORMANCE                         -
 -                                                                             -
 -------------------------------------------------------------------------------

 ROUTINE             CALLS      AVE VOLUME [Bytes]
 MP_Group                4
 MP_Bcast              646                 479280.
 MP_Allreduce         1828                  61197.
 MP_Sync                62
 MP_Alltoall           482                4403855.
 MP_ISendRecv         4515                  92352.
 MP_Wait              8680
 MP_comm_split          29
 MP_ISend             3740                 224120.
 MP_IRecv             3740                 224148.
 MP_Recv                10                   4176.
 -------------------------------------------------------------------------------


 -------------------------------------------------------------------------------
 -                                                                             -
 -                           R E F E R E N C E S                               -
 -                                                                             -
 -------------------------------------------------------------------------------
 
 CP2K version 10.0 (Development Version), the CP2K developers group (2022).
 CP2K is freely available from https://www.cp2k.org/ .

 Kuehne,Thomas D.; Iannuzzi,Marcella; Del Ben,Mauro;
 Rybkin,Vladimir V.; Seewald,Patrick; Stein,Frederick; Laino,Teodoro;
 Khaliullin,Rustam Z.; Schuett,Ole; Schiffmann,Florian; Golze,Dorothea;
 Wilhelm,Jan; Chulkov,Sergey; Bani-Hashemian,Mohammad Hossein;
 Weber,Valery; Borstnik,Urban; Taillefumier,Mathieu;
 Jakobovits,Alice Shoshana; Lazzaro,Alfio; Pabst,Hans; Mueller,Tiziano;
 Schade,Robert; Guidon,Manuel; Andermatt,Samuel; Holmberg,Nico;
 Schenter,Gregory K.; Hehn,Anna; Bussy,Augustin; Belleflamme,Fabian;
 Tabacchi,Gloria; Gloess,Andreas; Lass,Michael; Bethune,Iain;
 Mundy,Christopher J.; Plessl,Christian; Watkins,Matt;
 VandeVondele,Joost; Krack,Matthias; Hutter,Juerg. 
 The Journal of Chemical Physics, 152 (19), (2020). 
 CP2K: An electronic structure and molecular dynamics software package -
 Quickstep: Efficient and accurate electronic structure calculations.
 https://doi.org/10.1063/5.0007045

 Schuett, Ole; Messmer, Peter; Hutter, Juerg; VandeVondele, Joost. 
 Electronic Structure Calculations on Graphics Processing Units, John
 Wiley & Sons, Ltd, 173-190 (2016). 
 GPU-Accelerated Sparse Matrix-Matrix Multiplication for
 Linear Scaling Density Functional Theory.
 https://doi.org/10.1002/9781118670712.ch8

 Heinecke, A; Henry, G; Hutchinson, M; Pabst, H. 
 Proceedings of Intl. Supercomputing Conference, 981-991 (2016). 
 LIBXSMM: Accelerating Small Matrix Multiplications
 by Runtime Code Generation.
 https://doi.org/10.1109/SC.2016.83

 Borstnik, U; VandeVondele, J; Weber, V; Hutter, J. 
 PARALLEL COMPUTING, 40 (5-6), 47-58 (2014). 
 Sparse matrix multiplication: The distributed block-compressed sparse
 row library.
 https://doi.org/10.1016/j.parco.2014.03.012

 Hutter, J; Iannuzzi, M; Schiffmann, F; VandeVondele, J. 
 WIREs Comput Mol Sci., 4 (1), 15-25 (2014). 
 CP2K: atomistic simulations of condensed matter systems.
 https://doi.org/10.1002/wcms.1159

 Frigo, M; Johnson, SG. 
 PROCEEDINGS OF THE IEEE, 93 (2), 216-231 (2005). 
 The design and implementation of FFTW3.
 https://doi.org/10.1109/JPROC.2004.840301

 VandeVondele, J; Hutter, J. 
 JOURNAL OF CHEMICAL PHYSICS, 118 (10), 4365-4369 (2003). 
 An efficient orbital transformation method for electronic structure
 calculations.
 https://doi.org/10.1063/1.1543154

 Lippert, G; Hutter, J; Parrinello, M. 
 THEORETICAL CHEMISTRY ACCOUNTS, 103 (2), 124-140 (1999). 
 The Gaussian and augmented-plane-wave density functional method for ab
 initio molecular dynamics simulations.
 https://doi.org/10.1007/s002140050523

 Krack, M; Parrinello, M. 
 PHYSICAL CHEMISTRY CHEMICAL PHYSICS, 2 (10), 2105-2112 (2000). 
 All-electron ab-initio molecular dynamics.
 https://doi.org/10.1039/b001167n

 Perdew, JP; Burke, K; Ernzerhof, M. 
 PHYSICAL REVIEW LETTERS, 77 (18), 3865-3868 (1996). 
 Generalized gradient approximation made simple.
 https://doi.org/10.1103/PhysRevLett.77.3865


 -------------------------------------------------------------------------------
 -                                                                             -
 -                                T I M I N G                                  -
 -                                                                             -
 -------------------------------------------------------------------------------
 SUBROUTINE                       CALLS  ASD         SELF TIME        TOTAL TIME
                                MAXIMUM       AVERAGE  MAXIMUM  AVERAGE  MAXIMUM
 CP2K                                 1  1.0    0.006    0.025   15.126   15.128
 qs_energies                          1  2.0    0.000    0.000   14.876   14.878
 scf_env_do_scf                       1  3.0    0.000    0.000   14.703   14.705
 scf_env_do_scf_inner_loop           21  4.0    0.000    0.002   12.833   12.834
 qs_ks_update_qs_env                 24  5.0    0.000    0.000   12.032   12.033
 rebuild_ks_matrix                   21  6.0    0.000    0.000   12.028   12.030
 qs_ks_build_kohn_sham_matrix        21  7.0    0.004    0.005   12.028   12.030
 pw_transfer                        446 10.1    0.041    0.049    3.704    4.136
 fft_wrap_pw1pw2                    383 11.2    0.005    0.005    3.632    4.072
 fft_wrap_pw1pw2_250                254 12.6    0.221    0.271    3.449    3.875
 fft3d_ps                           383 13.2    1.410    1.680    2.856    3.329
 qs_vxc_create                       21  8.0    0.001    0.001    3.084    3.084
 xc_vxc_pw_create                    21  9.0    0.021    0.025    3.083    3.084
 rs_pw_transfer                     214  9.5    0.004    0.005    2.885    3.060
 mp_sum_d                          1041  6.3    2.637    2.820    2.637    2.820
 prepare_gapw_den                    21  8.0    0.001    0.001    2.775    2.796
 xc_pw_derive                       126 11.0    0.001    0.001    2.029    2.467
 calculate_vxc_atom                  21  8.0    0.023    0.299    2.273    2.273
 qs_rho_update_rho                   22  5.0    0.000    0.000    2.179    2.182
 calculate_rho_elec                  22  6.0    0.012    0.013    2.079    2.081
 sum_up_and_integrate                21  8.0    0.008    0.011    2.027    2.029
 integrate_v_rspace                  21  9.0    0.001    0.001    2.019    2.022
 mp_alltoall_z22v                   383 15.2    1.155    1.946    1.155    1.946
 xc_rho_set_and_dset_create          21 10.0    0.022    0.026    1.609    1.914
 init_scf_loop                        3  4.0    0.000    0.000    1.869    1.869
 xc_pw_divergence                    21 10.0    0.001    0.001    1.403    1.842
 gaVxcgb_GC                          84  9.0    0.057    1.819    0.057    1.819
 density_rs2pw                       22  7.0    0.001    0.003    1.662    1.810
 calculate_rho_atom                  84  9.0    0.687    1.714    0.687    1.714
 yz_to_x                            171 14.1    0.121    0.192    0.871    1.466
 rs_pw_transfer_RS2PW_250            43 10.0    0.554    0.677    1.181    1.339
 potential_pw2rs                     21 10.0    0.002    0.002    1.249    1.251
 mp_waitany                        3740 11.5    0.910    1.200    0.910    1.200
 rs_pw_transfer_PW2RS_250            42 11.0    0.554    0.660    1.042    1.087
 mp_sum_dv                          521 12.9    0.958    1.084    0.958    1.084
 integrate_vhg0_rspace               21  8.0    0.140    0.189    1.061    1.074
 xc_functional_eval                 189 10.8    0.000    0.001    0.646    0.924
 pbe_lda_eval                       189 11.8    0.645    0.923    0.645    0.923
 put_rho0_on_grid                    21  9.0    0.014    0.019    0.844    0.864
 grid_collocate_task_list            22  7.0    0.358    0.793    0.358    0.793
 mp_alltoall_d11v                   601 11.5    0.625    0.784    0.625    0.784
 rs_gather_matrices                  21 10.0    0.000    0.001    0.609    0.768
 grid_integrate_task_list            21 10.0    0.160    0.767    0.160    0.767
 mp_waitall_1                     36876 13.8    0.497    0.675    0.497    0.675
 x_to_yz                            169 14.6    0.146    0.201    0.548    0.656
 qs_scf_new_mos                      21  5.0    0.000    0.000    0.442    0.444
 qs_scf_loop_do_ot                   21  6.0    0.000    0.000    0.442    0.444
 dbcsr_multiply_generic             499 10.0    0.014    0.014    0.418    0.430
 ot_scf_mini                         21  7.0    0.000    0.000    0.424    0.426
 mp_sum_dm                          390  7.6    0.338    0.416    0.338    0.416
 calculate_rho0_atom                 84  9.0    0.288    0.365    0.288    0.365
 pw_gather_p                        193 12.8    0.266    0.341    0.266    0.341
 Vh_1c_gg_integrals                  21  8.0    0.014    0.312    0.304    0.328
 rs_pw_transfer_PW2RS_90             21 12.0    0.060    0.072    0.272    0.323
 -------------------------------------------------------------------------------

 The number of warnings for this run is : 0
 
 -------------------------------------------------------------------------------
  **** **** ******  **  PROGRAM ENDED AT                 2022-05-09 20:43:05.245
 ***** ** ***  *** **   PROGRAM RAN ON                                   tcopt10
 **    ****   ******    PROGRAM RAN BY                                    hutter
 ***** **    ** ** **   PROGRAM PROCESS ID                                 48999
  **** **  *******  **  PROGRAM STOPPED IN /data/hutter/GITHUB/BASIS/scMOLOPT/PB
                                           E/hbcnof
