 DBCSR| CPU Multiplication driver                                           XSMM
 DBCSR| Multrec recursion limit                                              512
 DBCSR| Multiplication stack size                                           1000
 DBCSR| Maximum elements for images                                    UNLIMITED
 DBCSR| Multiplicative factor virtual images                                   1
 DBCSR| Use multiplication densification                                       T
 DBCSR| Multiplication size stacks                                             3
 DBCSR| Use memory pool for CPU allocation                                     F
 DBCSR| Number of 3D layers                                               SINGLE
 DBCSR| Use MPI memory allocation                                              F
 DBCSR| Use RMA algorithm                                                      F
 DBCSR| Use Communication thread                                               T
 DBCSR| Communication thread load                                             87
 DBCSR| MPI: My node id                                                        0
 DBCSR| MPI: Number of nodes                                                  36
 DBCSR| OMP: Current number of threads                                         1
 DBCSR| OMP: Max number of threads                                             1
 DBCSR| Split modifier for TAS multiplication algorithm                  1.0E+00


  **** **** ******  **  PROGRAM STARTED AT               2022-05-09 20:38:41.255
 ***** ** ***  *** **   PROGRAM STARTED ON                               tcopt10
 **    ****   ******    PROGRAM STARTED BY                                hutter
 ***** **    ** ** **   PROGRAM PROCESS ID                                 46356
  **** **  *******  **  PROGRAM STARTED IN /data/hutter/GITHUB/BASIS/scMOLOPT/PB
                                           E/hbcnof

 CP2K| version string:                   CP2K version 10.0 (Development Version)
 CP2K| source code revision number:                                  git:57d9aec
 CP2K| cp2kflags: omp libint fftw3 libxc elpa parallel mpi3 scalapack cosma xsmm
 CP2K|             spglib sirius libvori libbqb
 CP2K| is freely available from                            https://www.cp2k.org/
 CP2K| Program compiled at                      Fri 06 May 2022 02:09:00 PM CEST
 CP2K| Program compiled on                                               tcopt10
 CP2K| Program compiled for                                                local
 CP2K| Data directory path                   /data/hutter/GITHUB/TDLRI/cp2k/data
 CP2K| Input file name                                              C2H4-ref.inp

 GLOBAL| Force Environment number                                              1
 GLOBAL| Basis set file name                                        ../def2QZVPP
 GLOBAL| Potential file name                                        ../POTENTIAL
 GLOBAL| MM Potential file name                                     MM_POTENTIAL
 GLOBAL| Coordinate file name                                      __STD_INPUT__
 GLOBAL| Method name                                                        CP2K
 GLOBAL| Project name                                                    refC2H4
 GLOBAL| Run type                                                         ENERGY
 GLOBAL| FFT library                                                       FFTW3
 GLOBAL| Diagonalization library                                       ScaLAPACK
 GLOBAL| Orthonormality check for eigenvectors                          DISABLED
 GLOBAL| Matrix multiplication library                                     COSMA
 GLOBAL| All-to-all communication in single precision                          F
 GLOBAL| FFTs using library dependent lengths                                  F
 GLOBAL| Grid backend                                                       AUTO
 GLOBAL| Global print level                                                  LOW
 GLOBAL| MPI I/O enabled                                                       T
 GLOBAL| Total number of message passing processes                            36
 GLOBAL| Number of threads for this process                                    1
 GLOBAL| This output is from process                                           0
 GLOBAL| Stack size for threads created by OpenMP (OMP_STACKSIZE)        default
 GLOBAL| CPU model name                          AMD EPYC 7401 24-Core Processor
 GLOBAL| CPUID                                                              1002

 MEMORY| system memory details [Kb]
 MEMORY|                        rank 0           min           max       average
 MEMORY| MemTotal            263969136     263969136     263969136     263969136
 MEMORY| MemFree             245259040     245259040     245259040     245259040
 MEMORY| Buffers                   136           136           136           136
 MEMORY| Cached               12532852      12532852      12532852      12532852
 MEMORY| Slab                  1356312       1356312       1356312       1356312
 MEMORY| SReclaimable           821296        821296        821296        821296
 MEMORY| MemLikelyFree       258613324     258613324     258613324     258613324


 GENERATE|  Preliminary Number of Bonds generated:                             4
 GENERATE|  Achieved consistency in connectivity generation.
 GENERATE|  Number of Bonds generated:                                         4
 GENERATE|  Preliminary Number of Bends generated:                             2
 GENERATE|  Number of Bends generated:                                         2
 GENERATE|  Number of UB generated:                                            2
 GENERATE|  Preliminary Number of Torsions generated:                          1
 GENERATE|  Number of Torsions generated:                                      1
 GENERATE|  Number of 1-4 interactions generated:                              1

 *******************************************************************************
 *******************************************************************************
 **                                                                           **
 **     #####                         ##              ##                      **
 **    ##   ##            ##          ##              ##                      **
 **   ##     ##                       ##            ######                    **
 **   ##     ##  ##   ##  ##   #####  ##  ##   ####   ##    #####    #####    **
 **   ##     ##  ##   ##  ##  ##      ## ##   ##      ##   ##   ##  ##   ##   **
 **   ##  ## ##  ##   ##  ##  ##      ####     ###    ##   ######   ######    **
 **    ##  ###   ##   ##  ##  ##      ## ##      ##   ##   ##       ##        **
 **     #######   #####   ##   #####  ##  ##  ####    ##    #####   ##        **
 **           ##                                                    ##        **
 **                                                                           **
 **                                                ... make the atoms dance   **
 **                                                                           **
 **            Copyright (C) by CP2K developers group (2000-2022)             **
 **                      J. Chem. Phys. 152, 194103 (2020)                    **
 **                                                                           **
 *******************************************************************************


 TOTAL NUMBERS AND MAXIMUM NUMBERS

  Total number of            - Atomic kinds:                                   2
                             - Atoms:                                          6
                             - Shell sets:                                    74
                             - Shells:                                        74
                             - Primitive Cartesian functions:                110
                             - Cartesian basis functions:                    284
                             - Spherical basis functions:                    234

  Maximum angular momentum of the orbital basis functions:                     4


 SCF PARAMETERS         Density guess:                                    ATOMIC
                        --------------------------------------------------------
                        max_scf:                                              10
                        max_scf_history:                                       0
                        max_diis:                                              4
                        --------------------------------------------------------
                        eps_scf:                                        1.00E-07
                        eps_scf_history:                                0.00E+00
                        eps_diis:                                       1.00E-01
                        eps_eigval:                                     1.00E-05
                        --------------------------------------------------------
                        level_shift [a.u.]:                                 0.00
                        --------------------------------------------------------
                        Outer loop SCF in use 
                        No variables optimised in outer loop
                        eps_scf                                         1.00E-07
                        max_scf                                               10
                        No outer loop optimization
                        step_size                                       5.00E-01

 Number of electrons:                                                         16
 Number of occupied orbitals:                                                  8
 Number of molecular orbitals:                                                 8

 Number of orbital functions:                                                234
 Number of independent orbital functions:                                    234

 Extrapolation method: initial_guess


 SCF WAVEFUNCTION OPTIMIZATION

  ----------------------------------- OT ---------------------------------------
  Minimizer      : DIIS                : direct inversion
                                         in the iterative subspace
                                         using   7 DIIS vectors
                                         safer DIIS on
  Preconditioner : FULL_ALL            : diagonalization, state selective
  Precond_solver : DEFAULT
  stepsize       :    0.15000000                  energy_gap     :    0.08000000
  eps_taylor     :   0.10000E-15                  max_taylor     :             4
  ----------------------------------- OT ---------------------------------------

  Step     Update method      Time    Convergence         Total energy    Change
  ------------------------------------------------------------------------------
     1 OT DIIS     0.15E+00    0.5     0.15884839       -72.7520743388 -7.28E+01
     2 OT DIIS     0.15E+00    0.6     0.04713098       -77.1431713157 -4.39E+00
     3 OT DIIS     0.15E+00    0.5     0.02337677       -77.6225416620 -4.79E-01
     4 OT DIIS     0.15E+00    0.6     0.02053700       -77.7673585408 -1.45E-01
     5 OT DIIS     0.15E+00    0.6     0.01895821       -77.9457776545 -1.78E-01
     6 OT DIIS     0.15E+00    0.5     0.01761518       -78.0968900466 -1.51E-01
     7 OT DIIS     0.15E+00    0.6     0.01392872       -78.2650456293 -1.68E-01
     8 OT DIIS     0.15E+00    0.5     0.01144339       -78.3831829986 -1.18E-01
     9 OT DIIS     0.15E+00    0.5     0.00796049       -78.4564579132 -7.33E-02
    10 OT DIIS     0.15E+00    0.5     0.00499645       -78.4731131541 -1.67E-02

  Leaving inner SCF loop after reaching    10 steps.


  Electronic density on regular grids:        -12.0482651117        3.9517348883
  Core density on regular grids:               16.0000000000       -0.0000000000
  Hard and soft densities (Lebedev):          -44.2130636480      -40.2613286300
  Total Rho_soft + Rho1_hard - Rho1_soft      -16.0000001297
  Total charge density (r-space):              -0.0000001297
  Total Rho_soft + Rho0_soft (g-space):        -0.0000002007

  Overlap energy of the core charge distribution:               0.00000649048778
  Self energy of the core charge distribution:                -63.86738907357999
  Core Hamiltonian energy:                                    -12.68191844587935
  Hartree energy:                                              25.82230288934286
  Exchange-correlation energy:                                 -4.87047682084783

  GAPW| Exc from hard and soft atomic rho1:                    -7.27585098304964
  GAPW| local Eh = 1 center integrals:                        -15.59978721059688

  Total energy:                                               -78.47311315412304

  outer SCF iter =    1 RMS gradient =   0.50E-02 energy =        -78.4731131541

  ----------------------------------- OT ---------------------------------------
  Minimizer      : DIIS                : direct inversion
                                         in the iterative subspace
                                         using   7 DIIS vectors
                                         safer DIIS on
  Preconditioner : FULL_ALL            : diagonalization, state selective
  Precond_solver : DEFAULT
  stepsize       :    0.15000000                  energy_gap     :    0.08000000
  eps_taylor     :   0.10000E-15                  max_taylor     :             4
  ----------------------------------- OT ---------------------------------------

  Step     Update method      Time    Convergence         Total energy    Change
  ------------------------------------------------------------------------------
     1 OT DIIS     0.15E+00    1.1     0.01466807       -78.4633360105  9.78E-03
     2 OT DIIS     0.15E+00    0.5     0.00490332       -78.5020761513 -3.87E-02
     3 OT DIIS     0.15E+00    0.5     0.00234912       -78.5064822191 -4.41E-03
     4 OT DIIS     0.15E+00    0.5     0.00121123       -78.5068340776 -3.52E-04
     5 OT DIIS     0.15E+00    0.5     0.00019188       -78.5069318796 -9.78E-05
     6 OT DIIS     0.15E+00    0.5     0.00004877       -78.5069364666 -4.59E-06
     7 OT DIIS     0.15E+00    0.5     0.00000760       -78.5069368577 -3.91E-07
     8 OT DIIS     0.15E+00    0.5     0.00000158       -78.5069368698 -1.20E-08
     9 OT DIIS     0.15E+00    0.5     0.00000025       -78.5069368703 -5.57E-10
    10 OT DIIS     0.15E+00    0.5     0.00000005       -78.5069368703 -1.33E-11

  *** SCF run converged in    10 steps ***


  Electronic density on regular grids:        -12.0491651886        3.9508348114
  Core density on regular grids:               16.0000000000       -0.0000000000
  Hard and soft densities (Lebedev):          -44.4186583329      -40.4678233917
  Total Rho_soft + Rho1_hard - Rho1_soft      -16.0000001298
  Total charge density (r-space):              -0.0000001298
  Total Rho_soft + Rho0_soft (g-space):        -0.0000002008

  Overlap energy of the core charge distribution:               0.00000649048778
  Self energy of the core charge distribution:                -63.86738907357999
  Core Hamiltonian energy:                                    -12.72668951741865
  Hartree energy:                                              25.84822535167277
  Exchange-correlation energy:                                 -4.87143414325891

  GAPW| Exc from hard and soft atomic rho1:                    -7.27117057630918
  GAPW| local Eh = 1 center integrals:                        -15.61848540193511

  Total energy:                                               -78.50693687034129

  outer SCF iter =    2 RMS gradient =   0.45E-07 energy =        -78.5069368703
  outer SCF loop converged in   2 iterations or   20 steps


 ENERGY| Total FORCE_EVAL ( QS ) energy [a.u.]:              -78.506936870341292

 -------------------------------------------------------------------------------
 -                                                                             -
 -                                DBCSR STATISTICS                             -
 -                                                                             -
 -------------------------------------------------------------------------------
 COUNTER                                    TOTAL       BLAS       SMM       ACC
 flops     8 x     8 x     8               172032       0.0%    100.0%      0.0%
 flops     8 x     8 x    57              1196544       0.0%    100.0%      0.0%
 flops     8 x     8 x    30              1259520       0.0%    100.0%      0.0%
 flops    57 x     8 x     8              1488384       0.0%    100.0%      0.0%
 flops    30 x     8 x     8              1566720       0.0%    100.0%      0.0%
 flops    30 x    57 x     8              2298240       0.0%    100.0%      0.0%
 flops    57 x    30 x     8              2298240       0.0%    100.0%      0.0%
 flops    30 x    30 x     8              3024000       0.0%    100.0%      0.0%
 flops    57 x    57 x     8              3274992       0.0%    100.0%      0.0%
 flops    57 x     8 x    57             20377728       0.0%    100.0%      0.0%
 flops    57 x     8 x    30             21450240       0.0%    100.0%      0.0%
 flops    30 x     8 x    57             21450240       0.0%    100.0%      0.0%
 flops    30 x     8 x    30             22579200       0.0%    100.0%      0.0%
 flops inhomo. stacks                           0       0.0%      0.0%      0.0%
 flops total                       102.436080E+06       0.0%    100.0%      0.0%
 flops max/rank                     25.377936E+06       0.0%    100.0%      0.0%
 matmuls inhomo. stacks                         0       0.0%      0.0%      0.0%
 matmuls total                               5241       0.0%    100.0%      0.0%
 number of processed stacks                  5241       0.0%    100.0%      0.0%
 average stack size                                     0.0       1.0       0.0
 marketing flops                   109.998752E+06
 -------------------------------------------------------------------------------
 # multiplications                            473
 max memory usage/rank             297.934848E+06
 # max total images/rank                        1
 # max 3D layers                                1
 # MPI messages exchanged                  170280
 MPI messages size (bytes):
  total size                       246.166080E+06
  min size                           0.000000E+00
  max size                          25.992000E+03
  average size                       1.445655E+03
 MPI breakdown and total messages size (bytes):
             size <=      128              138270                        0
       128 < size <=     8192               22210                 87970560
      8192 < size <=    32768                9800                158195520
     32768 < size <=   131072                   0                        0
    131072 < size <=  4194304                   0                        0
   4194304 < size <= 16777216                   0                        0
  16777216 < size                               0                        0
 -------------------------------------------------------------------------------
 -                                                                             -
 -                      DBCSR MESSAGE PASSING PERFORMANCE                      -
 -                                                                             -
 -------------------------------------------------------------------------------
 ROUTINE             CALLS      AVE VOLUME [Bytes]
 MP_Bcast               14                     12.
 MP_Allreduce         2519                      8.
 MP_Alltoall          1925                   2592.
 MP_ISend            11344                   1229.
 MP_IRecv            11344                   1016.
 -------------------------------------------------------------------------------

 -------------------------------------------------------------------------------
 -                                                                             -
 -                                GRID STATISTICS                              -
 -                                                                             -
 -------------------------------------------------------------------------------
 LP    KERNEL             BACKEND                              COUNT     PERCENT
 2     collocate ortho    REF                                  16191      11.29%
 1     collocate ortho    REF                                  15876      11.07%
 2     integrate ortho    REF                                  15420      10.75%
 1     integrate ortho    REF                                  15120      10.54%
 3     collocate ortho    REF                                  13104       9.14%
 3     integrate ortho    REF                                  12480       8.70%
 0     collocate ortho    REF                                   9975       6.95%
 0     integrate ortho    REF                                   9500       6.62%
 4     collocate ortho    REF                                   8001       5.58%
 4     integrate ortho    REF                                   7620       5.31%
 2     collocate general  REF                                   4320       3.01%
 2     integrate general  REF                                   4320       3.01%
 5     collocate ortho    REF                                   3906       2.72%
 5     integrate ortho    REF                                   3720       2.59%
 6     collocate ortho    REF                                   1512       1.05%
 6     integrate ortho    REF                                   1440       1.00%
 7     collocate ortho    REF                                    420       0.29%
 7     integrate ortho    REF                                    400       0.28%
 8     collocate ortho    REF                                     63       0.04%
 8     integrate ortho    REF                                     60       0.04%
 -------------------------------------------------------------------------------

 MEMORY| Estimated peak process memory [MiB]                                 286

 -------------------------------------------------------------------------------
 -                                                                             -
 -                         MESSAGE PASSING PERFORMANCE                         -
 -                                                                             -
 -------------------------------------------------------------------------------

 ROUTINE             CALLS      AVE VOLUME [Bytes]
 MP_Group                4
 MP_Bcast              558                 280550.
 MP_Allreduce         1668                  48045.
 MP_Sync                56
 MP_Alltoall           460                4401278.
 MP_ISendRecv         4305                  92352.
 MP_Wait              8274
 MP_comm_split          26
 MP_ISend             3564                 224120.
 MP_IRecv             3564                 224149.
 MP_Recv                 3                   3744.
 -------------------------------------------------------------------------------


 -------------------------------------------------------------------------------
 -                                                                             -
 -                           R E F E R E N C E S                               -
 -                                                                             -
 -------------------------------------------------------------------------------
 
 CP2K version 10.0 (Development Version), the CP2K developers group (2022).
 CP2K is freely available from https://www.cp2k.org/ .

 Kuehne,Thomas D.; Iannuzzi,Marcella; Del Ben,Mauro;
 Rybkin,Vladimir V.; Seewald,Patrick; Stein,Frederick; Laino,Teodoro;
 Khaliullin,Rustam Z.; Schuett,Ole; Schiffmann,Florian; Golze,Dorothea;
 Wilhelm,Jan; Chulkov,Sergey; Bani-Hashemian,Mohammad Hossein;
 Weber,Valery; Borstnik,Urban; Taillefumier,Mathieu;
 Jakobovits,Alice Shoshana; Lazzaro,Alfio; Pabst,Hans; Mueller,Tiziano;
 Schade,Robert; Guidon,Manuel; Andermatt,Samuel; Holmberg,Nico;
 Schenter,Gregory K.; Hehn,Anna; Bussy,Augustin; Belleflamme,Fabian;
 Tabacchi,Gloria; Gloess,Andreas; Lass,Michael; Bethune,Iain;
 Mundy,Christopher J.; Plessl,Christian; Watkins,Matt;
 VandeVondele,Joost; Krack,Matthias; Hutter,Juerg. 
 The Journal of Chemical Physics, 152 (19), (2020). 
 CP2K: An electronic structure and molecular dynamics software package -
 Quickstep: Efficient and accurate electronic structure calculations.
 https://doi.org/10.1063/5.0007045

 Schuett, Ole; Messmer, Peter; Hutter, Juerg; VandeVondele, Joost. 
 Electronic Structure Calculations on Graphics Processing Units, John
 Wiley & Sons, Ltd, 173-190 (2016). 
 GPU-Accelerated Sparse Matrix-Matrix Multiplication for
 Linear Scaling Density Functional Theory.
 https://doi.org/10.1002/9781118670712.ch8

 Heinecke, A; Henry, G; Hutchinson, M; Pabst, H. 
 Proceedings of Intl. Supercomputing Conference, 981-991 (2016). 
 LIBXSMM: Accelerating Small Matrix Multiplications
 by Runtime Code Generation.
 https://doi.org/10.1109/SC.2016.83

 Borstnik, U; VandeVondele, J; Weber, V; Hutter, J. 
 PARALLEL COMPUTING, 40 (5-6), 47-58 (2014). 
 Sparse matrix multiplication: The distributed block-compressed sparse
 row library.
 https://doi.org/10.1016/j.parco.2014.03.012

 Hutter, J; Iannuzzi, M; Schiffmann, F; VandeVondele, J. 
 WIREs Comput Mol Sci., 4 (1), 15-25 (2014). 
 CP2K: atomistic simulations of condensed matter systems.
 https://doi.org/10.1002/wcms.1159

 Frigo, M; Johnson, SG. 
 PROCEEDINGS OF THE IEEE, 93 (2), 216-231 (2005). 
 The design and implementation of FFTW3.
 https://doi.org/10.1109/JPROC.2004.840301

 VandeVondele, J; Hutter, J. 
 JOURNAL OF CHEMICAL PHYSICS, 118 (10), 4365-4369 (2003). 
 An efficient orbital transformation method for electronic structure
 calculations.
 https://doi.org/10.1063/1.1543154

 Lippert, G; Hutter, J; Parrinello, M. 
 THEORETICAL CHEMISTRY ACCOUNTS, 103 (2), 124-140 (1999). 
 The Gaussian and augmented-plane-wave density functional method for ab
 initio molecular dynamics simulations.
 https://doi.org/10.1007/s002140050523

 Krack, M; Parrinello, M. 
 PHYSICAL CHEMISTRY CHEMICAL PHYSICS, 2 (10), 2105-2112 (2000). 
 All-electron ab-initio molecular dynamics.
 https://doi.org/10.1039/b001167n

 Perdew, JP; Burke, K; Ernzerhof, M. 
 PHYSICAL REVIEW LETTERS, 77 (18), 3865-3868 (1996). 
 Generalized gradient approximation made simple.
 https://doi.org/10.1103/PhysRevLett.77.3865


 -------------------------------------------------------------------------------
 -                                                                             -
 -                                T I M I N G                                  -
 -                                                                             -
 -------------------------------------------------------------------------------
 SUBROUTINE                       CALLS  ASD         SELF TIME        TOTAL TIME
                                MAXIMUM       AVERAGE  MAXIMUM  AVERAGE  MAXIMUM
 CP2K                                 1  1.0    0.006    0.030   11.307   11.309
 qs_energies                          1  2.0    0.000    0.000   11.145   11.147
 scf_env_do_scf                       1  3.0    0.000    0.000   10.995   10.996
 scf_env_do_scf_inner_loop           20  4.0    0.000    0.002   10.049   10.050
 qs_ks_update_qs_env                 22  5.0    0.000    0.000    8.555    8.555
 rebuild_ks_matrix                   20  6.0    0.000    0.000    8.552    8.553
 qs_ks_build_kohn_sham_matrix        20  7.0    0.004    0.005    8.552    8.553
 pw_transfer                        425 10.1    0.039    0.044    3.550    3.999
 fft_wrap_pw1pw2                    365 11.2    0.004    0.005    3.482    3.932
 fft_wrap_pw1pw2_250                242 12.6    0.213    0.263    3.308    3.737
 fft3d_ps                           365 13.2    1.341    1.624    2.741    3.266
 rs_pw_transfer                     204  9.5    0.004    0.005    2.758    2.936
 qs_vxc_create                       20  8.0    0.000    0.001    2.887    2.888
 xc_vxc_pw_create                    20  9.0    0.021    0.023    2.887    2.887
 xc_pw_derive                       120 11.0    0.001    0.001    1.952    2.384
 qs_rho_update_rho                   21  5.0    0.000    0.000    2.044    2.044
 calculate_rho_elec                  21  6.0    0.011    0.012    1.978    1.979
 sum_up_and_integrate                20  8.0    0.007    0.011    1.939    1.941
 integrate_v_rspace                  20  9.0    0.000    0.001    1.932    1.936
 mp_alltoall_z22v                   365 15.2    1.120    1.863    1.120    1.863
 xc_pw_divergence                    20 10.0    0.001    0.001    1.356    1.792
 xc_rho_set_and_dset_create          20 10.0    0.022    0.026    1.458    1.761
 density_rs2pw                       21  7.0    0.001    0.001    1.591    1.730
 prepare_gapw_den                    20  8.0    0.000    0.001    1.511    1.526
 yz_to_x                            163 14.1    0.117    0.186    0.833    1.401
 rs_pw_transfer_RS2PW_250            41 10.0    0.521    0.637    1.130    1.299
 mp_waitany                        3564 11.5    0.879    1.199    0.879    1.199
 potential_pw2rs                     20 10.0    0.001    0.002    1.187    1.189
 mp_sum_d                          1000  6.1    0.875    1.041    0.875    1.041
 rs_pw_transfer_PW2RS_250            40 11.0    0.527    0.620    0.991    1.035
 integrate_vhg0_rspace               20  8.0    0.104    0.125    0.953    0.968
 init_scf_loop                        2  4.0    0.000    0.000    0.945    0.945
 xc_functional_eval                  60 10.8    0.000    0.001    0.531    0.822
 pbe_lda_eval                        60 11.8    0.530    0.822    0.530    0.822
 put_rho0_on_grid                    20  9.0    0.013    0.018    0.801    0.817
 grid_collocate_task_list            21  7.0    0.327    0.759    0.327    0.759
 mp_alltoall_d11v                   500 11.7    0.631    0.756    0.631    0.756
 rs_gather_matrices                  20 10.0    0.000    0.001    0.618    0.743
 grid_integrate_task_list            20 10.0    0.126    0.742    0.126    0.742
 calculate_vxc_atom                  20  8.0    0.016    0.083    0.667    0.667
 x_to_yz                            161 14.6    0.140    0.207    0.541    0.642
 mp_waitall_1                     34982 13.9    0.470    0.642    0.470    0.642
 calculate_rho_atom                  40  9.0    0.260    0.599    0.260    0.599
 gaVxcgb_GC                          20  9.0    0.042    0.543    0.042    0.543
 qs_scf_new_mos                      20  5.0    0.000    0.000    0.410    0.411
 qs_scf_loop_do_ot                   20  6.0    0.000    0.000    0.410    0.411
 ot_scf_mini                         20  7.0    0.000    0.000    0.394    0.395
 dbcsr_multiply_generic             473 10.1    0.013    0.014    0.380    0.386
 pw_gather_p                        184 12.8    0.254    0.334    0.254    0.334
 mp_sum_dm                          372  7.6    0.266    0.330    0.266    0.330
 rs_pw_transfer_PW2RS_90             20 12.0    0.058    0.071    0.267    0.316
 calculate_rho0_atom                 40  9.0    0.219    0.299    0.219    0.299
 pw_scatter_p                       181 13.7    0.260    0.284    0.260    0.284
 mp_sum_dv                          438 12.8    0.232    0.280    0.232    0.280
 rs_grid_zero                        80 10.8    0.216    0.247    0.216    0.247
 ot_mini                             20  8.0    0.000    0.000    0.243    0.244
 -------------------------------------------------------------------------------

 The number of warnings for this run is : 0
 
 -------------------------------------------------------------------------------
  **** **** ******  **  PROGRAM ENDED AT                 2022-05-09 20:38:52.968
 ***** ** ***  *** **   PROGRAM RAN ON                                   tcopt10
 **    ****   ******    PROGRAM RAN BY                                    hutter
 ***** **    ** ** **   PROGRAM PROCESS ID                                 46356
  **** **  *******  **  PROGRAM STOPPED IN /data/hutter/GITHUB/BASIS/scMOLOPT/PB
                                           E/hbcnof
