 DBCSR| CPU Multiplication driver                                           XSMM
 DBCSR| Multrec recursion limit                                              512
 DBCSR| Multiplication stack size                                           1000
 DBCSR| Maximum elements for images                                    UNLIMITED
 DBCSR| Multiplicative factor virtual images                                   1
 DBCSR| Use multiplication densification                                       T
 DBCSR| Multiplication size stacks                                             3
 DBCSR| Use memory pool for CPU allocation                                     F
 DBCSR| Number of 3D layers                                               SINGLE
 DBCSR| Use MPI memory allocation                                              F
 DBCSR| Use RMA algorithm                                                      F
 DBCSR| Use Communication thread                                               T
 DBCSR| Communication thread load                                             87
 DBCSR| MPI: My node id                                                        0
 DBCSR| MPI: Number of nodes                                                  36
 DBCSR| OMP: Current number of threads                                         1
 DBCSR| OMP: Max number of threads                                             1
 DBCSR| Split modifier for TAS multiplication algorithm                  1.0E+00


  **** **** ******  **  PROGRAM STARTED AT               2022-05-09 20:40:52.683
 ***** ** ***  *** **   PROGRAM STARTED ON                               tcopt10
 **    ****   ******    PROGRAM STARTED BY                                hutter
 ***** **    ** ** **   PROGRAM PROCESS ID                                 47802
  **** **  *******  **  PROGRAM STARTED IN /data/hutter/GITHUB/BASIS/scMOLOPT/PB
                                           E/hbcnof

 CP2K| version string:                   CP2K version 10.0 (Development Version)
 CP2K| source code revision number:                                  git:57d9aec
 CP2K| cp2kflags: omp libint fftw3 libxc elpa parallel mpi3 scalapack cosma xsmm
 CP2K|             spglib sirius libvori libbqb
 CP2K| is freely available from                            https://www.cp2k.org/
 CP2K| Program compiled at                      Fri 06 May 2022 02:09:00 PM CEST
 CP2K| Program compiled on                                               tcopt10
 CP2K| Program compiled for                                                local
 CP2K| Data directory path                   /data/hutter/GITHUB/TDLRI/cp2k/data
 CP2K| Input file name                                              C4H4-ref.inp

 GLOBAL| Force Environment number                                              1
 GLOBAL| Basis set file name                                        ../def2QZVPP
 GLOBAL| Potential file name                                        ../POTENTIAL
 GLOBAL| MM Potential file name                                     MM_POTENTIAL
 GLOBAL| Coordinate file name                                      __STD_INPUT__
 GLOBAL| Method name                                                        CP2K
 GLOBAL| Project name                                                    refC4H4
 GLOBAL| Run type                                                         ENERGY
 GLOBAL| FFT library                                                       FFTW3
 GLOBAL| Diagonalization library                                       ScaLAPACK
 GLOBAL| Orthonormality check for eigenvectors                          DISABLED
 GLOBAL| Matrix multiplication library                                     COSMA
 GLOBAL| All-to-all communication in single precision                          F
 GLOBAL| FFTs using library dependent lengths                                  F
 GLOBAL| Grid backend                                                       AUTO
 GLOBAL| Global print level                                                  LOW
 GLOBAL| MPI I/O enabled                                                       T
 GLOBAL| Total number of message passing processes                            36
 GLOBAL| Number of threads for this process                                    1
 GLOBAL| This output is from process                                           0
 GLOBAL| Stack size for threads created by OpenMP (OMP_STACKSIZE)        default
 GLOBAL| CPU model name                          AMD EPYC 7401 24-Core Processor
 GLOBAL| CPUID                                                              1002

 MEMORY| system memory details [Kb]
 MEMORY|                        rank 0           min           max       average
 MEMORY| MemTotal            263969136     263969136     263969136     263969136
 MEMORY| MemFree             245251420     245251420     245251420     245251420
 MEMORY| Buffers                   136           136           136           136
 MEMORY| Cached               12533320      12533320      12533320      12533320
 MEMORY| Slab                  1355292       1355292       1355292       1355292
 MEMORY| SReclaimable           820184        820184        820184        820184
 MEMORY| MemLikelyFree       258605060     258605060     258605060     258605060


 GENERATE|  Preliminary Number of Bonds generated:                             6
 GENERATE|  Achieved consistency in connectivity generation.
 GENERATE|  Number of Bonds generated:                                         6
 GENERATE|  Preliminary Number of Bends generated:                            12
 GENERATE|  Number of Bends generated:                                        12
 GENERATE|  Number of UB generated:                                           12
 GENERATE|  Preliminary Number of Torsions generated:                         12
 GENERATE|  Number of Torsions generated:                                     12
 GENERATE|  Number of Impropers generated:                                     4

 *******************************************************************************
 *******************************************************************************
 **                                                                           **
 **     #####                         ##              ##                      **
 **    ##   ##            ##          ##              ##                      **
 **   ##     ##                       ##            ######                    **
 **   ##     ##  ##   ##  ##   #####  ##  ##   ####   ##    #####    #####    **
 **   ##     ##  ##   ##  ##  ##      ## ##   ##      ##   ##   ##  ##   ##   **
 **   ##  ## ##  ##   ##  ##  ##      ####     ###    ##   ######   ######    **
 **    ##  ###   ##   ##  ##  ##      ## ##      ##   ##   ##       ##        **
 **     #######   #####   ##   #####  ##  ##  ####    ##    #####   ##        **
 **           ##                                                    ##        **
 **                                                                           **
 **                                                ... make the atoms dance   **
 **                                                                           **
 **            Copyright (C) by CP2K developers group (2000-2022)             **
 **                      J. Chem. Phys. 152, 194103 (2020)                    **
 **                                                                           **
 *******************************************************************************


 TOTAL NUMBERS AND MAXIMUM NUMBERS

  Total number of            - Atomic kinds:                                   2
                             - Atoms:                                          8
                             - Shell sets:                                   108
                             - Shells:                                       108
                             - Primitive Cartesian functions:                168
                             - Cartesian basis functions:                    428
                             - Spherical basis functions:                    348

  Maximum angular momentum of the orbital basis functions:                     4


 SCF PARAMETERS         Density guess:                                    ATOMIC
                        --------------------------------------------------------
                        max_scf:                                              10
                        max_scf_history:                                       0
                        max_diis:                                              4
                        --------------------------------------------------------
                        eps_scf:                                        1.00E-07
                        eps_scf_history:                                0.00E+00
                        eps_diis:                                       1.00E-01
                        eps_eigval:                                     1.00E-05
                        --------------------------------------------------------
                        level_shift [a.u.]:                                 0.00
                        --------------------------------------------------------
                        Outer loop SCF in use 
                        No variables optimised in outer loop
                        eps_scf                                         1.00E-07
                        max_scf                                               10
                        No outer loop optimization
                        step_size                                       5.00E-01

 Number of electrons:                                                         28
 Number of occupied orbitals:                                                 14
 Number of molecular orbitals:                                                14

 Number of orbital functions:                                                348
 Number of independent orbital functions:                                    348

 Extrapolation method: initial_guess


 SCF WAVEFUNCTION OPTIMIZATION

  ----------------------------------- OT ---------------------------------------
  Minimizer      : DIIS                : direct inversion
                                         in the iterative subspace
                                         using   7 DIIS vectors
                                         safer DIIS on
  Preconditioner : FULL_ALL            : diagonalization, state selective
  Precond_solver : DEFAULT
  stepsize       :    0.15000000                  energy_gap     :    0.08000000
  eps_taylor     :   0.10000E-15                  max_taylor     :             4
  ----------------------------------- OT ---------------------------------------

  Step     Update method      Time    Convergence         Total energy    Change
  ------------------------------------------------------------------------------
     1 OT DIIS     0.15E+00    0.6     0.09141031      -149.4018906900 -1.49E+02
     2 OT DIIS     0.15E+00    0.6     0.03961103      -153.3209177854 -3.92E+00
     3 OT DIIS     0.15E+00    0.6     0.02052471      -154.0866352909 -7.66E-01
     4 OT DIIS     0.15E+00    0.6     0.01202025      -154.3029489388 -2.16E-01
     5 OT DIIS     0.15E+00    0.6     0.00788294      -154.4236545249 -1.21E-01
     6 OT DIIS     0.15E+00    0.6     0.00447688      -154.4777455364 -5.41E-02
     7 OT DIIS     0.15E+00    0.6     0.00358830      -154.4956040779 -1.79E-02
     8 OT DIIS     0.15E+00    0.6     0.00163431      -154.5075536776 -1.19E-02
     9 OT DIIS     0.15E+00    0.6     0.00097140      -154.5111976390 -3.64E-03
    10 OT DIIS     0.15E+00    0.6     0.00051364      -154.5127375291 -1.54E-03

  Leaving inner SCF loop after reaching    10 steps.


  Electronic density on regular grids:        -20.2098778375        7.7901221625
  Core density on regular grids:               28.0000000000       -0.0000000000
  Hard and soft densities (Lebedev):          -85.9013698355      -78.1112475890
  Total Rho_soft + Rho1_hard - Rho1_soft      -28.0000000840
  Total charge density (r-space):              -0.0000000840
  Total Rho_soft + Rho0_soft (g-space):        -0.0000002124

  Overlap energy of the core charge distribution:               0.00000465770698
  Self energy of the core charge distribution:               -122.09288231168242
  Core Hamiltonian energy:                                    -27.23894489024251
  Hartree energy:                                              49.51836979054603
  Exchange-correlation energy:                                 -8.47992362744775

  GAPW| Exc from hard and soft atomic rho1:                   -14.45028431569423
  GAPW| local Eh = 1 center integrals:                        -31.76907683229448

  Total energy:                                              -154.51273752910839

  outer SCF iter =    1 RMS gradient =   0.51E-03 energy =       -154.5127375291

  ----------------------------------- OT ---------------------------------------
  Minimizer      : DIIS                : direct inversion
                                         in the iterative subspace
                                         using   7 DIIS vectors
                                         safer DIIS on
  Preconditioner : FULL_ALL            : diagonalization, state selective
  Precond_solver : DEFAULT
  stepsize       :    0.15000000                  energy_gap     :    0.08000000
  eps_taylor     :   0.10000E-15                  max_taylor     :             4
  ----------------------------------- OT ---------------------------------------

  Step     Update method      Time    Convergence         Total energy    Change
  ------------------------------------------------------------------------------
     1 OT DIIS     0.15E+00    1.3     0.00058144      -154.5130154162 -2.78E-04
     2 OT DIIS     0.15E+00    0.6     0.00022921      -154.5131861175 -1.71E-04
     3 OT DIIS     0.15E+00    0.6     0.00005014      -154.5132173044 -3.12E-05
     4 OT DIIS     0.15E+00    0.6     0.00001323      -154.5132178501 -5.46E-07
     5 OT DIIS     0.15E+00    0.6     0.00000263      -154.5132178900 -3.99E-08
     6 OT DIIS     0.15E+00    0.6     0.00000081      -154.5132178919 -1.91E-09
     7 OT DIIS     0.15E+00    0.6     0.00000013      -154.5132178921 -2.59E-10
     8 OT DIIS     0.15E+00    0.6     0.00000002      -154.5132178922 -1.90E-11

  *** SCF run converged in     8 steps ***


  Electronic density on regular grids:        -20.2096667453        7.7903332547
  Core density on regular grids:               28.0000000000       -0.0000000000
  Hard and soft densities (Lebedev):          -85.8922562847      -78.1019229468
  Total Rho_soft + Rho1_hard - Rho1_soft      -28.0000000832
  Total charge density (r-space):              -0.0000000832
  Total Rho_soft + Rho0_soft (g-space):        -0.0000002116

  Overlap energy of the core charge distribution:               0.00000465770698
  Self energy of the core charge distribution:               -122.09288231168242
  Core Hamiltonian energy:                                    -27.24341180238813
  Hartree energy:                                              49.52206699627564
  Exchange-correlation energy:                                 -8.47912518706491

  GAPW| Exc from hard and soft atomic rho1:                   -14.45020079852012
  GAPW| local Eh = 1 center integrals:                        -31.76966944648068

  Total energy:                                              -154.51321789215365

  outer SCF iter =    2 RMS gradient =   0.23E-07 energy =       -154.5132178922
  outer SCF loop converged in   2 iterations or   18 steps


 ENERGY| Total FORCE_EVAL ( QS ) energy [a.u.]:             -154.513217892153648

 -------------------------------------------------------------------------------
 -                                                                             -
 -                                DBCSR STATISTICS                             -
 -                                                                             -
 -------------------------------------------------------------------------------
 COUNTER                                    TOTAL       BLAS       SMM       ACC
 flops    14 x    14 x    14               702464       0.0%    100.0%      0.0%
 flops    14 x    14 x    60              3480960       0.0%    100.0%      0.0%
 flops    60 x    14 x    14              4327680       0.0%    100.0%      0.0%
 flops    30 x    30 x    14              4788000       0.0%    100.0%      0.0%
 flops    14 x    14 x    57              6613824       0.0%    100.0%      0.0%
 flops    30 x    57 x    14              7277760       0.0%    100.0%      0.0%
 flops    57 x    30 x    14              7277760       0.0%    100.0%      0.0%
 flops    57 x    14 x    14              8222592       0.0%    100.0%      0.0%
 flops    60 x    14 x    60             16128000       0.0%    100.0%      0.0%
 flops    57 x    57 x    14             17284680       0.0%    100.0%      0.0%
 flops    30 x    14 x    30             20160000       0.0%    100.0%      0.0%
 flops    57 x    14 x    60             30643200       0.0%    100.0%      0.0%
 flops    60 x    14 x    57             30643200       0.0%    100.0%      0.0%
 flops    57 x    14 x    30             38304000       0.0%    100.0%      0.0%
 flops    30 x    14 x    57             38304000       0.0%    100.0%      0.0%
 flops    57 x    14 x    57            130999680       0.0%    100.0%      0.0%
 flops inhomo. stacks                           0       0.0%      0.0%      0.0%
 flops total                       365.157800E+06       0.0%    100.0%      0.0%
 flops max/rank                     64.568084E+06       0.0%    100.0%      0.0%
 matmuls inhomo. stacks                         0       0.0%      0.0%      0.0%
 matmuls total                               6448       0.0%    100.0%      0.0%
 number of processed stacks                  4934       0.0%    100.0%      0.0%
 average stack size                                     0.0       1.3       0.0
 marketing flops                   393.229184E+06
 -------------------------------------------------------------------------------
 # multiplications                            405
 max memory usage/rank             299.442176E+06
 # max total images/rank                        1
 # max 3D layers                                1
 # MPI messages exchanged                  145800
 MPI messages size (bytes):
  total size                       510.418560E+06
  min size                           0.000000E+00
  max size                          28.800000E+03
  average size                       3.500813E+03
 MPI breakdown and total messages size (bytes):
             size <=      128              116820                        0
       128 < size <=     8192               12780                 74444160
      8192 < size <=    32768               16200                435974400
     32768 < size <=   131072                   0                        0
    131072 < size <=  4194304                   0                        0
   4194304 < size <= 16777216                   0                        0
  16777216 < size                               0                        0
 -------------------------------------------------------------------------------
 -                                                                             -
 -                      DBCSR MESSAGE PASSING PERFORMANCE                      -
 -                                                                             -
 -------------------------------------------------------------------------------
 ROUTINE             CALLS      AVE VOLUME [Bytes]
 MP_Bcast               17                     12.
 MP_Allreduce         2167                      8.
 MP_Alltoall          1634                   3041.
 MP_ISend             9712                   2207.
 MP_IRecv             9712                   2086.
 -------------------------------------------------------------------------------

 -------------------------------------------------------------------------------
 -                                                                             -
 -                                GRID STATISTICS                              -
 -                                                                             -
 -------------------------------------------------------------------------------
 LP    KERNEL             BACKEND                              COUNT     PERCENT
 1     collocate ortho    REF                                  29184      11.41%
 2     collocate ortho    REF                                  29146      11.39%
 1     integrate ortho    REF                                  27648      10.81%
 2     integrate ortho    REF                                  27612      10.79%
 3     collocate ortho    REF                                  24472       9.57%
 3     integrate ortho    REF                                  23184       9.06%
 4     collocate ortho    REF                                  15656       6.12%
 0     collocate ortho    REF                                  15048       5.88%
 4     integrate ortho    REF                                  14832       5.80%
 0     integrate ortho    REF                                  14256       5.57%
 5     collocate ortho    REF                                   7980       3.12%
 5     integrate ortho    REF                                   7560       2.96%
 2     collocate general  REF                                   5184       2.03%
 2     integrate general  REF                                   5184       2.03%
 6     collocate ortho    REF                                   3306       1.29%
 6     integrate ortho    REF                                   3132       1.22%
 7     collocate ortho    REF                                   1064       0.42%
 7     integrate ortho    REF                                   1008       0.39%
 8     collocate ortho    REF                                    190       0.07%
 8     integrate ortho    REF                                    180       0.07%
 -------------------------------------------------------------------------------

 MEMORY| Estimated peak process memory [MiB]                                 286

 -------------------------------------------------------------------------------
 -                                                                             -
 -                         MESSAGE PASSING PERFORMANCE                         -
 -                                                                             -
 -------------------------------------------------------------------------------

 ROUTINE             CALLS      AVE VOLUME [Bytes]
 MP_Group                4
 MP_Bcast              670                 237967.
 MP_Allreduce         1869                  68408.
 MP_Sync                36
 MP_Alltoall           416
 MP_ISendRecv         3885                  92352.
 MP_Wait              7462
 MP_comm_split          16
 MP_ISend             3212                 224118.
 MP_IRecv             3212                 224151.
 MP_Recv                 4                   8352.
 -------------------------------------------------------------------------------


 -------------------------------------------------------------------------------
 -                                                                             -
 -                           R E F E R E N C E S                               -
 -                                                                             -
 -------------------------------------------------------------------------------
 
 CP2K version 10.0 (Development Version), the CP2K developers group (2022).
 CP2K is freely available from https://www.cp2k.org/ .

 Kuehne,Thomas D.; Iannuzzi,Marcella; Del Ben,Mauro;
 Rybkin,Vladimir V.; Seewald,Patrick; Stein,Frederick; Laino,Teodoro;
 Khaliullin,Rustam Z.; Schuett,Ole; Schiffmann,Florian; Golze,Dorothea;
 Wilhelm,Jan; Chulkov,Sergey; Bani-Hashemian,Mohammad Hossein;
 Weber,Valery; Borstnik,Urban; Taillefumier,Mathieu;
 Jakobovits,Alice Shoshana; Lazzaro,Alfio; Pabst,Hans; Mueller,Tiziano;
 Schade,Robert; Guidon,Manuel; Andermatt,Samuel; Holmberg,Nico;
 Schenter,Gregory K.; Hehn,Anna; Bussy,Augustin; Belleflamme,Fabian;
 Tabacchi,Gloria; Gloess,Andreas; Lass,Michael; Bethune,Iain;
 Mundy,Christopher J.; Plessl,Christian; Watkins,Matt;
 VandeVondele,Joost; Krack,Matthias; Hutter,Juerg. 
 The Journal of Chemical Physics, 152 (19), (2020). 
 CP2K: An electronic structure and molecular dynamics software package -
 Quickstep: Efficient and accurate electronic structure calculations.
 https://doi.org/10.1063/5.0007045

 Schuett, Ole; Messmer, Peter; Hutter, Juerg; VandeVondele, Joost. 
 Electronic Structure Calculations on Graphics Processing Units, John
 Wiley & Sons, Ltd, 173-190 (2016). 
 GPU-Accelerated Sparse Matrix-Matrix Multiplication for
 Linear Scaling Density Functional Theory.
 https://doi.org/10.1002/9781118670712.ch8

 Heinecke, A; Henry, G; Hutchinson, M; Pabst, H. 
 Proceedings of Intl. Supercomputing Conference, 981-991 (2016). 
 LIBXSMM: Accelerating Small Matrix Multiplications
 by Runtime Code Generation.
 https://doi.org/10.1109/SC.2016.83

 Borstnik, U; VandeVondele, J; Weber, V; Hutter, J. 
 PARALLEL COMPUTING, 40 (5-6), 47-58 (2014). 
 Sparse matrix multiplication: The distributed block-compressed sparse
 row library.
 https://doi.org/10.1016/j.parco.2014.03.012

 Hutter, J; Iannuzzi, M; Schiffmann, F; VandeVondele, J. 
 WIREs Comput Mol Sci., 4 (1), 15-25 (2014). 
 CP2K: atomistic simulations of condensed matter systems.
 https://doi.org/10.1002/wcms.1159

 Frigo, M; Johnson, SG. 
 PROCEEDINGS OF THE IEEE, 93 (2), 216-231 (2005). 
 The design and implementation of FFTW3.
 https://doi.org/10.1109/JPROC.2004.840301

 VandeVondele, J; Hutter, J. 
 JOURNAL OF CHEMICAL PHYSICS, 118 (10), 4365-4369 (2003). 
 An efficient orbital transformation method for electronic structure
 calculations.
 https://doi.org/10.1063/1.1543154

 Lippert, G; Hutter, J; Parrinello, M. 
 THEORETICAL CHEMISTRY ACCOUNTS, 103 (2), 124-140 (1999). 
 The Gaussian and augmented-plane-wave density functional method for ab
 initio molecular dynamics simulations.
 https://doi.org/10.1007/s002140050523

 Krack, M; Parrinello, M. 
 PHYSICAL CHEMISTRY CHEMICAL PHYSICS, 2 (10), 2105-2112 (2000). 
 All-electron ab-initio molecular dynamics.
 https://doi.org/10.1039/b001167n

 Perdew, JP; Burke, K; Ernzerhof, M. 
 PHYSICAL REVIEW LETTERS, 77 (18), 3865-3868 (1996). 
 Generalized gradient approximation made simple.
 https://doi.org/10.1103/PhysRevLett.77.3865


 -------------------------------------------------------------------------------
 -                                                                             -
 -                                T I M I N G                                  -
 -                                                                             -
 -------------------------------------------------------------------------------
 SUBROUTINE                       CALLS  ASD         SELF TIME        TOTAL TIME
                                MAXIMUM       AVERAGE  MAXIMUM  AVERAGE  MAXIMUM
 CP2K                                 1  1.0    0.006    0.026   11.165   11.165
 qs_energies                          1  2.0    0.000    0.000   11.006   11.006
 scf_env_do_scf                       1  3.0    0.000    0.000   10.820   10.820
 scf_env_do_scf_inner_loop           18  4.0    0.000    0.002    9.753    9.753
 qs_ks_update_qs_env                 20  5.0    0.000    0.000    8.402    8.403
 rebuild_ks_matrix                   18  6.0    0.000    0.000    8.400    8.401
 qs_ks_build_kohn_sham_matrix        18  7.0    0.004    0.006    8.400    8.401
 pw_transfer                        383 10.1    0.035    0.042    3.175    3.523
 fft_wrap_pw1pw2                    329 11.2    0.004    0.004    3.114    3.461
 fft_wrap_pw1pw2_250                218 12.6    0.189    0.242    2.966    3.290
 fft3d_ps                           329 13.2    1.202    1.480    2.446    2.853
 rs_pw_transfer                     184  9.5    0.004    0.004    2.564    2.686
 qs_vxc_create                       18  8.0    0.000    0.001    2.654    2.654
 xc_vxc_pw_create                    18  9.0    0.018    0.021    2.653    2.653
 xc_pw_derive                       108 11.0    0.001    0.001    1.752    2.102
 qs_rho_update_rho                   19  5.0    0.000    0.000    2.031    2.031
 calculate_rho_elec                  19  6.0    0.010    0.011    1.932    1.932
 sum_up_and_integrate                18  8.0    0.007    0.010    1.928    1.930
 integrate_v_rspace                  18  9.0    0.000    0.001    1.921    1.925
 mp_alltoall_z22v                   329 15.2    0.994    1.661    0.994    1.661
 xc_rho_set_and_dset_create          18 10.0    0.019    0.022    1.376    1.642
 density_rs2pw                       19  7.0    0.001    0.001    1.515    1.624
 xc_pw_divergence                    18 10.0    0.000    0.001    1.210    1.563
 prepare_gapw_den                    18  8.0    0.000    0.000    1.472    1.487
 yz_to_x                            147 14.1    0.104    0.164    0.735    1.227
 rs_pw_transfer_RS2PW_250            37 10.0    0.471    0.589    1.094    1.202
 mp_waitany                        3212 11.5    0.862    1.145    0.862    1.145
 mp_sum_d                           993  6.2    0.924    1.115    0.924    1.115
 init_scf_loop                        2  4.0    0.000    0.000    1.066    1.067
 potential_pw2rs                     18 10.0    0.001    0.001    1.056    1.058
 integrate_vhg0_rspace               18  8.0    0.151    0.176    1.024    1.035
 rs_pw_transfer_PW2RS_250            36 11.0    0.481    0.566    0.898    0.932
 grid_integrate_task_list            18 10.0    0.223    0.863    0.223    0.863
 grid_collocate_task_list            19  7.0    0.370    0.843    0.370    0.843
 xc_functional_eval                  90 10.7    0.000    0.000    0.538    0.835
 pbe_lda_eval                        90 11.7    0.537    0.834    0.537    0.834
 calculate_vxc_atom                  18  8.0    0.018    0.120    0.779    0.779
 mp_alltoall_d11v                   421 11.4    0.654    0.737    0.654    0.737
 put_rho0_on_grid                    18  9.0    0.012    0.016    0.720    0.735
 rs_gather_matrices                  18 10.0    0.000    0.001    0.642    0.723
 x_to_yz                            145 14.6    0.125    0.174    0.486    0.591
 gaVxcgb_GC                          36  9.0    0.065    0.590    0.065    0.590
 calculate_rho_atom                  36  9.0    0.253    0.565    0.253    0.565
 mp_waitall_1                     30170 13.8    0.441    0.556    0.441    0.556
 calculate_rho0_atom                 36  9.0    0.362    0.526    0.362    0.526
 mp_sum_dm                          448  7.6    0.371    0.439    0.371    0.439
 qs_scf_new_mos                      18  5.0    0.000    0.000    0.368    0.369
 qs_scf_loop_do_ot                   18  6.0    0.000    0.000    0.368    0.369
 dbcsr_multiply_generic             405 10.0    0.011    0.012    0.353    0.368
 ot_scf_mini                         18  7.0    0.000    0.000    0.352    0.353
 mp_sum_dv                          594 13.0    0.141    0.338    0.141    0.338
 pw_gather_p                        166 12.8    0.231    0.336    0.231    0.336
 rs_pw_transfer_PW2RS_90             18 12.0    0.051    0.060    0.235    0.286
 pw_scatter_p                       163 13.7    0.236    0.256    0.236    0.256
 ot_mini                             18  8.0    0.000    0.000    0.227    0.228
 -------------------------------------------------------------------------------

 The number of warnings for this run is : 0
 
 -------------------------------------------------------------------------------
  **** **** ******  **  PROGRAM ENDED AT                 2022-05-09 20:41:04.233
 ***** ** ***  *** **   PROGRAM RAN ON                                   tcopt10
 **    ****   ******    PROGRAM RAN BY                                    hutter
 ***** **    ** ** **   PROGRAM PROCESS ID                                 47802
  **** **  *******  **  PROGRAM STOPPED IN /data/hutter/GITHUB/BASIS/scMOLOPT/PB
                                           E/hbcnof
