 DBCSR| CPU Multiplication driver                                           XSMM
 DBCSR| Multrec recursion limit                                              512
 DBCSR| Multiplication stack size                                           1000
 DBCSR| Maximum elements for images                                    UNLIMITED
 DBCSR| Multiplicative factor virtual images                                   1
 DBCSR| Use multiplication densification                                       T
 DBCSR| Multiplication size stacks                                             3
 DBCSR| Use memory pool for CPU allocation                                     F
 DBCSR| Number of 3D layers                                               SINGLE
 DBCSR| Use MPI memory allocation                                              F
 DBCSR| Use RMA algorithm                                                      F
 DBCSR| Use Communication thread                                               T
 DBCSR| Communication thread load                                             87
 DBCSR| MPI: My node id                                                        0
 DBCSR| MPI: Number of nodes                                                  36
 DBCSR| OMP: Current number of threads                                         1
 DBCSR| OMP: Max number of threads                                             1
 DBCSR| Split modifier for TAS multiplication algorithm                  1.0E+00


  **** **** ******  **  PROGRAM STARTED AT               2022-05-09 20:40:03.182
 ***** ** ***  *** **   PROGRAM STARTED ON                               tcopt10
 **    ****   ******    PROGRAM STARTED BY                                hutter
 ***** **    ** ** **   PROGRAM PROCESS ID                                 47269
  **** **  *******  **  PROGRAM STARTED IN /data/hutter/GITHUB/BASIS/scMOLOPT/PB
                                           E/hbcnof

 CP2K| version string:                   CP2K version 10.0 (Development Version)
 CP2K| source code revision number:                                  git:57d9aec
 CP2K| cp2kflags: omp libint fftw3 libxc elpa parallel mpi3 scalapack cosma xsmm
 CP2K|             spglib sirius libvori libbqb
 CP2K| is freely available from                            https://www.cp2k.org/
 CP2K| Program compiled at                      Fri 06 May 2022 02:09:00 PM CEST
 CP2K| Program compiled on                                               tcopt10
 CP2K| Program compiled for                                                local
 CP2K| Data directory path                   /data/hutter/GITHUB/TDLRI/cp2k/data
 CP2K| Input file name                                            C4H4N2-ref.inp

 GLOBAL| Force Environment number                                              1
 GLOBAL| Basis set file name                                        ../def2QZVPP
 GLOBAL| Potential file name                                        ../POTENTIAL
 GLOBAL| MM Potential file name                                     MM_POTENTIAL
 GLOBAL| Coordinate file name                                      __STD_INPUT__
 GLOBAL| Method name                                                        CP2K
 GLOBAL| Project name                                                  refC4H4N2
 GLOBAL| Run type                                                         ENERGY
 GLOBAL| FFT library                                                       FFTW3
 GLOBAL| Diagonalization library                                       ScaLAPACK
 GLOBAL| Orthonormality check for eigenvectors                          DISABLED
 GLOBAL| Matrix multiplication library                                     COSMA
 GLOBAL| All-to-all communication in single precision                          F
 GLOBAL| FFTs using library dependent lengths                                  F
 GLOBAL| Grid backend                                                       AUTO
 GLOBAL| Global print level                                                  LOW
 GLOBAL| MPI I/O enabled                                                       T
 GLOBAL| Total number of message passing processes                            36
 GLOBAL| Number of threads for this process                                    1
 GLOBAL| This output is from process                                           0
 GLOBAL| Stack size for threads created by OpenMP (OMP_STACKSIZE)        default
 GLOBAL| CPU model name                          AMD EPYC 7401 24-Core Processor
 GLOBAL| CPUID                                                              1002

 MEMORY| system memory details [Kb]
 MEMORY|                        rank 0           min           max       average
 MEMORY| MemTotal            263969136     263969136     263969136     263969136
 MEMORY| MemFree             245231120     245231120     245231120     245231120
 MEMORY| Buffers                   136           136           136           136
 MEMORY| Cached               12534104      12534104      12534104      12534104
 MEMORY| Slab                  1357220       1357220       1357220       1357220
 MEMORY| SReclaimable           820024        820024        820024        820024
 MEMORY| MemLikelyFree       258585384     258585384     258585384     258585384


 GENERATE|  Preliminary Number of Bonds generated:                             0
 GENERATE|  Achieved consistency in connectivity generation.

 *******************************************************************************
 *******************************************************************************
 **                                                                           **
 **     #####                         ##              ##                      **
 **    ##   ##            ##          ##              ##                      **
 **   ##     ##                       ##            ######                    **
 **   ##     ##  ##   ##  ##   #####  ##  ##   ####   ##    #####    #####    **
 **   ##     ##  ##   ##  ##  ##      ## ##   ##      ##   ##   ##  ##   ##   **
 **   ##  ## ##  ##   ##  ##  ##      ####     ###    ##   ######   ######    **
 **    ##  ###   ##   ##  ##  ##      ## ##      ##   ##   ##       ##        **
 **     #######   #####   ##   #####  ##  ##  ####    ##    #####   ##        **
 **           ##                                                    ##        **
 **                                                                           **
 **                                                ... make the atoms dance   **
 **                                                                           **
 **            Copyright (C) by CP2K developers group (2000-2022)             **
 **                      J. Chem. Phys. 152, 194103 (2020)                    **
 **                                                                           **
 *******************************************************************************


 TOTAL NUMBERS AND MAXIMUM NUMBERS

  Total number of            - Atomic kinds:                                   3
                             - Atoms:                                         10
                             - Shell sets:                                   142
                             - Shells:                                       142
                             - Primitive Cartesian functions:                226
                             - Cartesian basis functions:                    572
                             - Spherical basis functions:                    462

  Maximum angular momentum of the orbital basis functions:                     4


 SCF PARAMETERS         Density guess:                                    ATOMIC
                        --------------------------------------------------------
                        max_scf:                                              10
                        max_scf_history:                                       0
                        max_diis:                                              4
                        --------------------------------------------------------
                        eps_scf:                                        1.00E-07
                        eps_scf_history:                                0.00E+00
                        eps_diis:                                       1.00E-01
                        eps_eigval:                                     1.00E-05
                        --------------------------------------------------------
                        level_shift [a.u.]:                                 0.00
                        --------------------------------------------------------
                        Outer loop SCF in use 
                        No variables optimised in outer loop
                        eps_scf                                         1.00E-07
                        max_scf                                               10
                        No outer loop optimization
                        step_size                                       5.00E-01

 Number of electrons:                                                         42
 Number of occupied orbitals:                                                 21
 Number of molecular orbitals:                                                21

 Number of orbital functions:                                                462
 Number of independent orbital functions:                                    462

 Extrapolation method: initial_guess


 SCF WAVEFUNCTION OPTIMIZATION

  ----------------------------------- OT ---------------------------------------
  Minimizer      : DIIS                : direct inversion
                                         in the iterative subspace
                                         using   7 DIIS vectors
                                         safer DIIS on
  Preconditioner : FULL_ALL            : diagonalization, state selective
  Precond_solver : DEFAULT
  stepsize       :    0.15000000                  energy_gap     :    0.08000000
  eps_taylor     :   0.10000E-15                  max_taylor     :             4
  ----------------------------------- OT ---------------------------------------

  Step     Update method      Time    Convergence         Total energy    Change
  ------------------------------------------------------------------------------
     1 OT DIIS     0.15E+00    0.6     0.08500736      -255.3360098300 -2.55E+02
     2 OT DIIS     0.15E+00    0.7     0.03547697      -262.1042880449 -6.77E+00
     3 OT DIIS     0.15E+00    0.7     0.01803352      -263.2584642679 -1.15E+00
     4 OT DIIS     0.15E+00    0.7     0.01019780      -263.5319562561 -2.73E-01
     5 OT DIIS     0.15E+00    0.7     0.00829705      -263.6795994260 -1.48E-01
     6 OT DIIS     0.15E+00    0.7     0.00647704      -263.8128458493 -1.33E-01
     7 OT DIIS     0.15E+00    0.7     0.00561505      -263.8926561796 -7.98E-02
     8 OT DIIS     0.15E+00    0.7     0.00412102      -263.9899814404 -9.73E-02
     9 OT DIIS     0.15E+00    0.7     0.00304793      -264.0424960448 -5.25E-02
    10 OT DIIS     0.15E+00    0.7     0.00174599      -264.0862237318 -4.37E-02

  Leaving inner SCF loop after reaching    10 steps.


  Electronic density on regular grids:        -30.4028663704       11.5971336296
  Core density on regular grids:               42.0000000000       -0.0000000000
  Hard and soft densities (Lebedev):         -111.1135824122      -99.5164484310
  Total Rho_soft + Rho1_hard - Rho1_soft      -42.0000003516
  Total charge density (r-space):              -0.0000003516
  Total Rho_soft + Rho0_soft (g-space):        -0.0000005170

  Overlap energy of the core charge distribution:               0.00000715102573
  Self energy of the core charge distribution:               -217.69203579805162
  Core Hamiltonian energy:                                    -41.92214906320646
  Hartree energy:                                              82.20852649807335
  Exchange-correlation energy:                                -13.67920949338907

  GAPW| Exc from hard and soft atomic rho1:                   -22.96205479878596
  GAPW| local Eh = 1 center integrals:                        -50.03930822742863

  Total energy:                                              -264.08622373176269

  outer SCF iter =    1 RMS gradient =   0.17E-02 energy =       -264.0862237318

  ----------------------------------- OT ---------------------------------------
  Minimizer      : DIIS                : direct inversion
                                         in the iterative subspace
                                         using   7 DIIS vectors
                                         safer DIIS on
  Preconditioner : FULL_ALL            : diagonalization, state selective
  Precond_solver : DEFAULT
  stepsize       :    0.15000000                  energy_gap     :    0.08000000
  eps_taylor     :   0.10000E-15                  max_taylor     :             4
  ----------------------------------- OT ---------------------------------------

  Step     Update method      Time    Convergence         Total energy    Change
  ------------------------------------------------------------------------------
     1 OT DIIS     0.15E+00    1.4     0.00360883      -264.0967039774 -1.05E-02
     2 OT DIIS     0.15E+00    0.7     0.00134699      -264.1088142926 -1.21E-02
     3 OT DIIS     0.15E+00    0.7     0.00102604      -264.1101645813 -1.35E-03
     4 OT DIIS     0.15E+00    0.7     0.00022108      -264.1105560498 -3.91E-04
     5 OT DIIS     0.15E+00    0.7     0.00010783      -264.1105738454 -1.78E-05
     6 OT DIIS     0.15E+00    0.7     0.00002511      -264.1105780888 -4.24E-06
     7 OT DIIS     0.15E+00    0.7     0.00001321      -264.1105783093 -2.21E-07
     8 OT DIIS     0.15E+00    0.7     0.00000365      -264.1105783714 -6.21E-08
     9 OT DIIS     0.15E+00    0.7     0.00000125      -264.1105783766 -5.21E-09
    10 OT DIIS     0.15E+00    0.7     0.00000033      -264.1105783774 -7.20E-10

  Leaving inner SCF loop after reaching    10 steps.


  Electronic density on regular grids:        -30.4028543807       11.5971456193
  Core density on regular grids:               42.0000000000       -0.0000000000
  Hard and soft densities (Lebedev):         -111.1637224003      -99.5665764310
  Total Rho_soft + Rho1_hard - Rho1_soft      -42.0000003500
  Total charge density (r-space):              -0.0000003500
  Total Rho_soft + Rho0_soft (g-space):        -0.0000005153

  Overlap energy of the core charge distribution:               0.00000715102573
  Self energy of the core charge distribution:               -217.69203579805162
  Core Hamiltonian energy:                                    -41.94847576266115
  Hartree energy:                                              82.21787777367727
  Exchange-correlation energy:                                -13.68270073514383

  GAPW| Exc from hard and soft atomic rho1:                   -22.96162577116434
  GAPW| local Eh = 1 center integrals:                        -50.04362523503635

  Total energy:                                              -264.11057837735427

  outer SCF iter =    2 RMS gradient =   0.33E-06 energy =       -264.1105783774

  ----------------------------------- OT ---------------------------------------
  Minimizer      : DIIS                : direct inversion
                                         in the iterative subspace
                                         using   7 DIIS vectors
                                         safer DIIS on
  Preconditioner : FULL_ALL            : diagonalization, state selective
  Precond_solver : DEFAULT
  stepsize       :    0.15000000                  energy_gap     :    0.08000000
  eps_taylor     :   0.10000E-15                  max_taylor     :             4
  ----------------------------------- OT ---------------------------------------

  Step     Update method      Time    Convergence         Total energy    Change
  ------------------------------------------------------------------------------
     1 OT DIIS     0.15E+00    1.4     0.00000012      -264.1105783774 -9.31E-11
     2 OT DIIS     0.15E+00    0.7     0.00000011      -264.1105783775 -4.89E-12
     3 OT DIIS     0.15E+00    0.7     0.00000003      -264.1105783775 -7.67E-12

  *** SCF run converged in     3 steps ***


  Electronic density on regular grids:        -30.4028544367       11.5971455633
  Core density on regular grids:               42.0000000000       -0.0000000000
  Hard and soft densities (Lebedev):         -111.1637154030      -99.5665694898
  Total Rho_soft + Rho1_hard - Rho1_soft      -42.0000003500
  Total charge density (r-space):              -0.0000003500
  Total Rho_soft + Rho0_soft (g-space):        -0.0000005153

  Overlap energy of the core charge distribution:               0.00000715102573
  Self energy of the core charge distribution:               -217.69203579805162
  Core Hamiltonian energy:                                    -41.94848347137615
  Hartree energy:                                              82.21788437830787
  Exchange-correlation energy:                                -13.68269937262540

  GAPW| Exc from hard and soft atomic rho1:                   -22.96162550960234
  GAPW| local Eh = 1 center integrals:                        -50.04362575513802

  Total energy:                                              -264.11057837745994

  outer SCF iter =    3 RMS gradient =   0.27E-07 energy =       -264.1105783775
  outer SCF loop converged in   3 iterations or   23 steps


 ENERGY| Total FORCE_EVAL ( QS ) energy [a.u.]:             -264.110578377459944

 -------------------------------------------------------------------------------
 -                                                                             -
 -                                DBCSR STATISTICS                             -
 -                                                                             -
 -------------------------------------------------------------------------------
 COUNTER                                    TOTAL       BLAS       SMM       ACC
 flops    21 x    21 x    21              3167262       0.0%    100.0%      0.0%
 flops    30 x    30 x    21              9072000       0.0%    100.0%      0.0%
 flops    21 x    21 x    57              9552060       0.0%    100.0%      0.0%
 flops    57 x    21 x    21             11864664       0.0%    100.0%      0.0%
 flops    57 x    30 x    21             20684160       0.0%    100.0%      0.0%
 flops    30 x    57 x    21             20684160       0.0%    100.0%      0.0%
 flops    21 x    21 x    87             29158920       0.0%    100.0%      0.0%
 flops    87 x    21 x    21             36218448       0.0%    100.0%      0.0%
 flops    30 x    21 x    30             39916800       0.0%    100.0%      0.0%
 flops    57 x    57 x    21             68774832       0.0%    100.0%      0.0%
 flops    87 x    21 x    57             86643648       0.0%    100.0%      0.0%
 flops    57 x    21 x    87             86643648       0.0%    100.0%      0.0%
 flops    57 x    21 x    30            113762880       0.0%    100.0%      0.0%
 flops    30 x    21 x    57            113762880       0.0%    100.0%      0.0%
 flops    87 x    21 x    87            264491136       0.0%    100.0%      0.0%
 flops    57 x    21 x    57            352607472       0.0%    100.0%      0.0%
 flops inhomo. stacks                           0       0.0%      0.0%      0.0%
 flops total                         1.267005E+09       0.0%    100.0%      0.0%
 flops max/rank                    256.040190E+06       0.0%    100.0%      0.0%
 matmuls inhomo. stacks                         0       0.0%      0.0%      0.0%
 matmuls total                              11241       0.0%    100.0%      0.0%
 number of processed stacks                 11241       0.0%    100.0%      0.0%
 average stack size                                     0.0       1.0       0.0
 marketing flops                     1.364164E+09
 -------------------------------------------------------------------------------
 # multiplications                            529
 max memory usage/rank             318.324736E+06
 # max total images/rank                        1
 # max 3D layers                                1
 # MPI messages exchanged                  190440
 MPI messages size (bytes):
  total size                         1.199520E+09
  min size                           0.000000E+00
  max size                          60.552000E+03
  average size                       6.298677E+03
 MPI breakdown and total messages size (bytes):
             size <=      128              152680                        0
       128 < size <=     8192                2300                  8114400
      8192 < size <=    32768               16580                245291040
     32768 < size <=   131072               18880                946114560
    131072 < size <=  4194304                   0                        0
   4194304 < size <= 16777216                   0                        0
  16777216 < size                               0                        0
 -------------------------------------------------------------------------------
 -                                                                             -
 -                      DBCSR MESSAGE PASSING PERFORMANCE                      -
 -                                                                             -
 -------------------------------------------------------------------------------
 ROUTINE             CALLS      AVE VOLUME [Bytes]
 MP_Bcast               17                     12.
 MP_Allreduce         2804                      8.
 MP_Alltoall          2272                   4515.
 MP_ISend            12684                   4338.
 MP_IRecv            12684                   4018.
 -------------------------------------------------------------------------------

 -------------------------------------------------------------------------------
 -                                                                             -
 -                                GRID STATISTICS                              -
 -                                                                             -
 -------------------------------------------------------------------------------
 LP    KERNEL             BACKEND                              COUNT     PERCENT
 2     collocate ortho    REF                                  59880      11.64%
 2     integrate ortho    REF                                  57385      11.16%
 1     collocate ortho    REF                                  56640      11.01%
 1     integrate ortho    REF                                  54280      10.55%
 3     collocate ortho    REF                                  49008       9.53%
 3     integrate ortho    REF                                  46966       9.13%
 4     collocate ortho    REF                                  33024       6.42%
 4     integrate ortho    REF                                  31648       6.15%
 0     collocate ortho    REF                                  27600       5.37%
 0     integrate ortho    REF                                  26450       5.14%
 5     collocate ortho    REF                                  17424       3.39%
 5     integrate ortho    REF                                  16698       3.25%
 2     collocate general  REF                                   8280       1.61%
 2     integrate general  REF                                   8280       1.61%
 6     collocate ortho    REF                                   7488       1.46%
 6     integrate ortho    REF                                   7176       1.40%
 7     collocate ortho    REF                                   2592       0.50%
 7     integrate ortho    REF                                   2484       0.48%
 8     collocate ortho    REF                                    504       0.10%
 8     integrate ortho    REF                                    483       0.09%
 -------------------------------------------------------------------------------

 MEMORY| Estimated peak process memory [MiB]                                 305

 -------------------------------------------------------------------------------
 -                                                                             -
 -                         MESSAGE PASSING PERFORMANCE                         -
 -                                                                             -
 -------------------------------------------------------------------------------

 ROUTINE             CALLS      AVE VOLUME [Bytes]
 MP_Group                4
 MP_Bcast             1048                 230637.
 MP_Allreduce         2678                  87449.
 MP_Sync                62
 MP_Alltoall           526                2424978.
 MP_ISendRecv         4935                  92352.
 MP_Wait              9492
 MP_comm_split          29
 MP_ISend             4092                 224122.
 MP_IRecv             4092                 224147.
 MP_Recv                10                  14784.
 -------------------------------------------------------------------------------


 -------------------------------------------------------------------------------
 -                                                                             -
 -                           R E F E R E N C E S                               -
 -                                                                             -
 -------------------------------------------------------------------------------
 
 CP2K version 10.0 (Development Version), the CP2K developers group (2022).
 CP2K is freely available from https://www.cp2k.org/ .

 Kuehne,Thomas D.; Iannuzzi,Marcella; Del Ben,Mauro;
 Rybkin,Vladimir V.; Seewald,Patrick; Stein,Frederick; Laino,Teodoro;
 Khaliullin,Rustam Z.; Schuett,Ole; Schiffmann,Florian; Golze,Dorothea;
 Wilhelm,Jan; Chulkov,Sergey; Bani-Hashemian,Mohammad Hossein;
 Weber,Valery; Borstnik,Urban; Taillefumier,Mathieu;
 Jakobovits,Alice Shoshana; Lazzaro,Alfio; Pabst,Hans; Mueller,Tiziano;
 Schade,Robert; Guidon,Manuel; Andermatt,Samuel; Holmberg,Nico;
 Schenter,Gregory K.; Hehn,Anna; Bussy,Augustin; Belleflamme,Fabian;
 Tabacchi,Gloria; Gloess,Andreas; Lass,Michael; Bethune,Iain;
 Mundy,Christopher J.; Plessl,Christian; Watkins,Matt;
 VandeVondele,Joost; Krack,Matthias; Hutter,Juerg. 
 The Journal of Chemical Physics, 152 (19), (2020). 
 CP2K: An electronic structure and molecular dynamics software package -
 Quickstep: Efficient and accurate electronic structure calculations.
 https://doi.org/10.1063/5.0007045

 Schuett, Ole; Messmer, Peter; Hutter, Juerg; VandeVondele, Joost. 
 Electronic Structure Calculations on Graphics Processing Units, John
 Wiley & Sons, Ltd, 173-190 (2016). 
 GPU-Accelerated Sparse Matrix-Matrix Multiplication for
 Linear Scaling Density Functional Theory.
 https://doi.org/10.1002/9781118670712.ch8

 Heinecke, A; Henry, G; Hutchinson, M; Pabst, H. 
 Proceedings of Intl. Supercomputing Conference, 981-991 (2016). 
 LIBXSMM: Accelerating Small Matrix Multiplications
 by Runtime Code Generation.
 https://doi.org/10.1109/SC.2016.83

 Borstnik, U; VandeVondele, J; Weber, V; Hutter, J. 
 PARALLEL COMPUTING, 40 (5-6), 47-58 (2014). 
 Sparse matrix multiplication: The distributed block-compressed sparse
 row library.
 https://doi.org/10.1016/j.parco.2014.03.012

 Hutter, J; Iannuzzi, M; Schiffmann, F; VandeVondele, J. 
 WIREs Comput Mol Sci., 4 (1), 15-25 (2014). 
 CP2K: atomistic simulations of condensed matter systems.
 https://doi.org/10.1002/wcms.1159

 Frigo, M; Johnson, SG. 
 PROCEEDINGS OF THE IEEE, 93 (2), 216-231 (2005). 
 The design and implementation of FFTW3.
 https://doi.org/10.1109/JPROC.2004.840301

 VandeVondele, J; Hutter, J. 
 JOURNAL OF CHEMICAL PHYSICS, 118 (10), 4365-4369 (2003). 
 An efficient orbital transformation method for electronic structure
 calculations.
 https://doi.org/10.1063/1.1543154

 Lippert, G; Hutter, J; Parrinello, M. 
 THEORETICAL CHEMISTRY ACCOUNTS, 103 (2), 124-140 (1999). 
 The Gaussian and augmented-plane-wave density functional method for ab
 initio molecular dynamics simulations.
 https://doi.org/10.1007/s002140050523

 Krack, M; Parrinello, M. 
 PHYSICAL CHEMISTRY CHEMICAL PHYSICS, 2 (10), 2105-2112 (2000). 
 All-electron ab-initio molecular dynamics.
 https://doi.org/10.1039/b001167n

 Perdew, JP; Burke, K; Ernzerhof, M. 
 PHYSICAL REVIEW LETTERS, 77 (18), 3865-3868 (1996). 
 Generalized gradient approximation made simple.
 https://doi.org/10.1103/PhysRevLett.77.3865


 -------------------------------------------------------------------------------
 -                                                                             -
 -                                T I M I N G                                  -
 -                                                                             -
 -------------------------------------------------------------------------------
 SUBROUTINE                       CALLS  ASD         SELF TIME        TOTAL TIME
                                MAXIMUM       AVERAGE  MAXIMUM  AVERAGE  MAXIMUM
 CP2K                                 1  1.0    0.006    0.029   15.893   15.894
 qs_energies                          1  2.0    0.000    0.000   15.683   15.684
 scf_env_do_scf                       1  3.0    0.000    0.000   15.422   15.422
 scf_env_do_scf_inner_loop           23  4.0    0.000    0.002   13.612   13.612
 qs_ks_update_qs_env                 26  5.0    0.000    0.000   11.776   11.779
 rebuild_ks_matrix                   23  6.0    0.000    0.000   11.774   11.776
 qs_ks_build_kohn_sham_matrix        23  7.0    0.004    0.005   11.773   11.776
 pw_transfer                        488 10.1    0.045    0.053    4.087    4.814
 fft_wrap_pw1pw2                    419 11.3    0.005    0.006    4.009    4.726
 fft_wrap_pw1pw2_250                278 12.6    0.245    0.302    3.814    4.565
 rs_pw_transfer                     234  9.5    0.005    0.006    3.401    3.804
 fft3d_ps                           419 13.3    1.541    1.908    3.157    3.731
 qs_vxc_create                       23  8.0    0.001    0.001    3.461    3.462
 xc_vxc_pw_create                    23  9.0    0.024    0.029    3.461    3.461
 xc_pw_derive                       138 11.0    0.001    0.002    2.281    2.963
 qs_rho_update_rho                   24  5.0    0.000    0.001    2.954    2.955
 calculate_rho_elec                  24  6.0    0.013    0.014    2.760    2.761
 sum_up_and_integrate                23  8.0    0.008    0.012    2.643    2.647
 integrate_v_rspace                  23  9.0    0.001    0.001    2.634    2.638
 density_rs2pw                       24  7.0    0.001    0.002    2.044    2.452
 prepare_gapw_den                    23  8.0    0.001    0.001    2.424    2.445
 xc_pw_divergence                    23 10.0    0.001    0.001    1.601    2.274
 xc_rho_set_and_dset_create          23 10.0    0.025    0.030    1.772    2.172
 mp_alltoall_z22v                   419 15.3    1.299    2.171    1.299    2.171
 rs_pw_transfer_RS2PW_250            47 10.0    0.560    0.694    1.532    1.917
 init_scf_loop                        3  4.0    0.000    0.000    1.809    1.809
 mp_waitany                        4092 11.5    1.278    1.746    1.278    1.746
 yz_to_x                            187 14.1    0.132    0.208    0.999    1.702
 integrate_vhg0_rspace               23  8.0    0.267    0.314    1.506    1.520
 mp_sum_d                          1178  6.9    1.128    1.410    1.128    1.410
 grid_collocate_task_list            24  7.0    0.656    1.390    0.656    1.390
 potential_pw2rs                     23 10.0    0.002    0.002    1.360    1.362
 grid_integrate_task_list            23 10.0    0.488    1.271    0.488    1.271
 rs_pw_transfer_PW2RS_250            46 11.0    0.612    0.739    1.138    1.202
 mp_alltoall_d11v                   617 11.5    0.805    1.187    0.805    1.187
 rs_gather_matrices                  23 10.0    0.001    0.002    0.786    1.169
 xc_functional_eval                 115 10.6    0.000    0.001    0.723    1.136
 pbe_lda_eval                       115 11.6    0.722    1.135    0.722    1.135
 calculate_vxc_atom                  23  8.0    0.031    0.153    0.991    0.991
 calculate_rho_atom                  69  9.0    0.570    0.963    0.570    0.963
 put_rho0_on_grid                    23  9.0    0.016    0.024    0.918    0.939
 calculate_rho0_atom                 69  9.0    0.632    0.913    0.632    0.913
 mp_waitall_1                     39256 13.8    0.578    0.799    0.578    0.799
 gaVxcgb_GC                          46  9.0    0.118    0.750    0.118    0.750
 mp_sum_dm                          710  7.6    0.655    0.749    0.655    0.749
 x_to_yz                            185 14.6    0.159    0.222    0.589    0.713
 dbcsr_multiply_generic             529 10.0    0.014    0.015    0.531    0.560
 qs_scf_new_mos                      23  5.0    0.000    0.000    0.542    0.545
 qs_scf_loop_do_ot                   23  6.0    0.000    0.000    0.542    0.545
 mp_sum_dv                          929 13.0    0.309    0.545    0.309    0.545
 ot_scf_mini                         23  7.0    0.000    0.000    0.520    0.524
 pw_gather_p                        211 12.9    0.291    0.390    0.291    0.390
 rs_pw_transfer_PW2RS_90             23 12.0    0.068    0.078    0.307    0.366
 pw_scatter_p                       208 13.7    0.300    0.339    0.300    0.339
 ot_mini                             23  8.0    0.000    0.000    0.322    0.325
 -------------------------------------------------------------------------------

 The number of warnings for this run is : 0
 
 -------------------------------------------------------------------------------
  **** **** ******  **  PROGRAM ENDED AT                 2022-05-09 20:40:19.458
 ***** ** ***  *** **   PROGRAM RAN ON                                   tcopt10
 **    ****   ******    PROGRAM RAN BY                                    hutter
 ***** **    ** ** **   PROGRAM PROCESS ID                                 47269
  **** **  *******  **  PROGRAM STOPPED IN /data/hutter/GITHUB/BASIS/scMOLOPT/PB
                                           E/hbcnof
