 DBCSR| CPU Multiplication driver                                           XSMM
 DBCSR| Multrec recursion limit                                              512
 DBCSR| Multiplication stack size                                           1000
 DBCSR| Maximum elements for images                                    UNLIMITED
 DBCSR| Multiplicative factor virtual images                                   1
 DBCSR| Use multiplication densification                                       T
 DBCSR| Multiplication size stacks                                             3
 DBCSR| Use memory pool for CPU allocation                                     F
 DBCSR| Number of 3D layers                                               SINGLE
 DBCSR| Use MPI memory allocation                                              F
 DBCSR| Use RMA algorithm                                                      F
 DBCSR| Use Communication thread                                               T
 DBCSR| Communication thread load                                             87
 DBCSR| MPI: My node id                                                        0
 DBCSR| MPI: Number of nodes                                                  36
 DBCSR| OMP: Current number of threads                                         1
 DBCSR| OMP: Max number of threads                                             1
 DBCSR| Split modifier for TAS multiplication algorithm                  1.0E+00


  **** **** ******  **  PROGRAM STARTED AT               2022-05-09 20:41:57.955
 ***** ** ***  *** **   PROGRAM STARTED ON                               tcopt10
 **    ****   ******    PROGRAM STARTED BY                                hutter
 ***** **    ** ** **   PROGRAM PROCESS ID                                 48461
  **** **  *******  **  PROGRAM STARTED IN /data/hutter/GITHUB/BASIS/scMOLOPT/PB
                                           E/hbcnof

 CP2K| version string:                   CP2K version 10.0 (Development Version)
 CP2K| source code revision number:                                  git:57d9aec
 CP2K| cp2kflags: omp libint fftw3 libxc elpa parallel mpi3 scalapack cosma xsmm
 CP2K|             spglib sirius libvori libbqb
 CP2K| is freely available from                            https://www.cp2k.org/
 CP2K| Program compiled at                      Fri 06 May 2022 02:09:00 PM CEST
 CP2K| Program compiled on                                               tcopt10
 CP2K| Program compiled for                                                local
 CP2K| Data directory path                   /data/hutter/GITHUB/TDLRI/cp2k/data
 CP2K| Input file name                                             C5H5N-ref.inp

 GLOBAL| Force Environment number                                              1
 GLOBAL| Basis set file name                                        ../def2QZVPP
 GLOBAL| Potential file name                                        ../POTENTIAL
 GLOBAL| MM Potential file name                                     MM_POTENTIAL
 GLOBAL| Coordinate file name                                      __STD_INPUT__
 GLOBAL| Method name                                                        CP2K
 GLOBAL| Project name                                                   refC5H5N
 GLOBAL| Run type                                                         ENERGY
 GLOBAL| FFT library                                                       FFTW3
 GLOBAL| Diagonalization library                                       ScaLAPACK
 GLOBAL| Orthonormality check for eigenvectors                          DISABLED
 GLOBAL| Matrix multiplication library                                     COSMA
 GLOBAL| All-to-all communication in single precision                          F
 GLOBAL| FFTs using library dependent lengths                                  F
 GLOBAL| Grid backend                                                       AUTO
 GLOBAL| Global print level                                                  LOW
 GLOBAL| MPI I/O enabled                                                       T
 GLOBAL| Total number of message passing processes                            36
 GLOBAL| Number of threads for this process                                    1
 GLOBAL| This output is from process                                           0
 GLOBAL| Stack size for threads created by OpenMP (OMP_STACKSIZE)        default
 GLOBAL| CPU model name                          AMD EPYC 7401 24-Core Processor
 GLOBAL| CPUID                                                              1002

 MEMORY| system memory details [Kb]
 MEMORY|                        rank 0           min           max       average
 MEMORY| MemTotal            263969136     263969136     263969136     263969136
 MEMORY| MemFree             245284000     245284000     245284000     245284000
 MEMORY| Buffers                   136           136           136           136
 MEMORY| Cached               12533956      12533956      12533956      12533956
 MEMORY| Slab                  1354276       1354276       1354276       1354276
 MEMORY| SReclaimable           820052        820052        820052        820052
 MEMORY| MemLikelyFree       258638144     258638144     258638144     258638144


 GENERATE|  Preliminary Number of Bonds generated:                             0
 GENERATE|  Achieved consistency in connectivity generation.

 *******************************************************************************
 *******************************************************************************
 **                                                                           **
 **     #####                         ##              ##                      **
 **    ##   ##            ##          ##              ##                      **
 **   ##     ##                       ##            ######                    **
 **   ##     ##  ##   ##  ##   #####  ##  ##   ####   ##    #####    #####    **
 **   ##     ##  ##   ##  ##  ##      ## ##   ##      ##   ##   ##  ##   ##   **
 **   ##  ## ##  ##   ##  ##  ##      ####     ###    ##   ######   ######    **
 **    ##  ###   ##   ##  ##  ##      ## ##      ##   ##   ##       ##        **
 **     #######   #####   ##   #####  ##  ##  ####    ##    #####   ##        **
 **           ##                                                    ##        **
 **                                                                           **
 **                                                ... make the atoms dance   **
 **                                                                           **
 **            Copyright (C) by CP2K developers group (2000-2022)             **
 **                      J. Chem. Phys. 152, 194103 (2020)                    **
 **                                                                           **
 *******************************************************************************


 TOTAL NUMBERS AND MAXIMUM NUMBERS

  Total number of            - Atomic kinds:                                   3
                             - Atoms:                                         11
                             - Shell sets:                                   152
                             - Shells:                                       152
                             - Primitive Cartesian functions:                239
                             - Cartesian basis functions:                    607
                             - Spherical basis functions:                    492

  Maximum angular momentum of the orbital basis functions:                     4


 SCF PARAMETERS         Density guess:                                    ATOMIC
                        --------------------------------------------------------
                        max_scf:                                              10
                        max_scf_history:                                       0
                        max_diis:                                              4
                        --------------------------------------------------------
                        eps_scf:                                        1.00E-07
                        eps_scf_history:                                0.00E+00
                        eps_diis:                                       1.00E-01
                        eps_eigval:                                     1.00E-05
                        --------------------------------------------------------
                        level_shift [a.u.]:                                 0.00
                        --------------------------------------------------------
                        Outer loop SCF in use 
                        No variables optimised in outer loop
                        eps_scf                                         1.00E-07
                        max_scf                                               10
                        No outer loop optimization
                        step_size                                       5.00E-01

 Number of electrons:                                                         42
 Number of occupied orbitals:                                                 21
 Number of molecular orbitals:                                                21

 Number of orbital functions:                                                492
 Number of independent orbital functions:                                    492

 Extrapolation method: initial_guess


 SCF WAVEFUNCTION OPTIMIZATION

  ----------------------------------- OT ---------------------------------------
  Minimizer      : DIIS                : direct inversion
                                         in the iterative subspace
                                         using   7 DIIS vectors
                                         safer DIIS on
  Preconditioner : FULL_ALL            : diagonalization, state selective
  Precond_solver : DEFAULT
  stepsize       :    0.15000000                  energy_gap     :    0.08000000
  eps_taylor     :   0.10000E-15                  max_taylor     :             4
  ----------------------------------- OT ---------------------------------------

  Step     Update method      Time    Convergence         Total energy    Change
  ------------------------------------------------------------------------------
     1 OT DIIS     0.15E+00    0.7     0.09474004      -237.2557334332 -2.37E+02
     2 OT DIIS     0.15E+00    0.7     0.03400952      -245.7960553849 -8.54E+00
     3 OT DIIS     0.15E+00    0.7     0.01624815      -246.9883542557 -1.19E+00
     4 OT DIIS     0.15E+00    0.7     0.01046770      -247.2976372692 -3.09E-01
     5 OT DIIS     0.15E+00    0.7     0.00811526      -247.5169028319 -2.19E-01
     6 OT DIIS     0.15E+00    0.7     0.00641667      -247.6704136642 -1.54E-01
     7 OT DIIS     0.15E+00    0.7     0.00520846      -247.7990114427 -1.29E-01
     8 OT DIIS     0.15E+00    0.7     0.00394839      -247.9043721105 -1.05E-01
     9 OT DIIS     0.15E+00    0.7     0.00374896      -247.9654808070 -6.11E-02
    10 OT DIIS     0.15E+00    0.7     0.00245292      -248.0095821026 -4.41E-02

  Leaving inner SCF loop after reaching    10 steps.


  Electronic density on regular grids:        -30.3637544912       11.6362455088
  Core density on regular grids:               42.0000000000       -0.0000000000
  Hard and soft densities (Lebedev):         -115.9230463688     -104.2868004721
  Total Rho_soft + Rho1_hard - Rho1_soft      -42.0000003878
  Total charge density (r-space):              -0.0000003878
  Total Rho_soft + Rho0_soft (g-space):        -0.0000005635

  Overlap energy of the core charge distribution:               0.00000990016619
  Self energy of the core charge distribution:               -200.41567963278760
  Core Hamiltonian energy:                                    -41.36731757312602
  Hartree energy:                                              78.15869091701188
  Exchange-correlation energy:                                -13.21086966892309

  GAPW| Exc from hard and soft atomic rho1:                   -22.32328032078210
  GAPW| local Eh = 1 center integrals:                        -48.85113572414019

  Total energy:                                              -248.00958210258094

  outer SCF iter =    1 RMS gradient =   0.25E-02 energy =       -248.0095821026

  ----------------------------------- OT ---------------------------------------
  Minimizer      : DIIS                : direct inversion
                                         in the iterative subspace
                                         using   7 DIIS vectors
                                         safer DIIS on
  Preconditioner : FULL_ALL            : diagonalization, state selective
  Precond_solver : DEFAULT
  stepsize       :    0.15000000                  energy_gap     :    0.08000000
  eps_taylor     :   0.10000E-15                  max_taylor     :             4
  ----------------------------------- OT ---------------------------------------

  Step     Update method      Time    Convergence         Total energy    Change
  ------------------------------------------------------------------------------
     1 OT DIIS     0.15E+00    1.5     0.00671182      -248.0305935830 -2.10E-02
     2 OT DIIS     0.15E+00    0.7     0.00295553      -248.0700484127 -3.95E-02
     3 OT DIIS     0.15E+00    0.7     0.00248651      -248.0728933998 -2.84E-03
     4 OT DIIS     0.15E+00    0.7     0.00045434      -248.0751899179 -2.30E-03
     5 OT DIIS     0.15E+00    0.7     0.00020105      -248.0752632979 -7.34E-05
     6 OT DIIS     0.15E+00    0.7     0.00004970      -248.0752819176 -1.86E-05
     7 OT DIIS     0.15E+00    0.7     0.00003980      -248.0752829722 -1.05E-06
     8 OT DIIS     0.15E+00    0.7     0.00000743      -248.0752835379 -5.66E-07
     9 OT DIIS     0.15E+00    0.7     0.00000255      -248.0752835625 -2.46E-08
    10 OT DIIS     0.15E+00    0.7     0.00000046      -248.0752835661 -3.58E-09

  Leaving inner SCF loop after reaching    10 steps.


  Electronic density on regular grids:        -30.3640835223       11.6359164777
  Core density on regular grids:               42.0000000000       -0.0000000000
  Hard and soft densities (Lebedev):         -116.1705707424     -104.5346538820
  Total Rho_soft + Rho1_hard - Rho1_soft      -42.0000003827
  Total charge density (r-space):              -0.0000003827
  Total Rho_soft + Rho0_soft (g-space):        -0.0000005584

  Overlap energy of the core charge distribution:               0.00000990016619
  Self energy of the core charge distribution:               -200.41567963278760
  Core Hamiltonian energy:                                    -41.39187518488703
  Hartree energy:                                              78.14012017779658
  Exchange-correlation energy:                                -13.22695169337036

  GAPW| Exc from hard and soft atomic rho1:                   -22.32666642986676
  GAPW| local Eh = 1 center integrals:                        -48.85424070316262

  Total energy:                                              -248.07528356611158

  outer SCF iter =    2 RMS gradient =   0.46E-06 energy =       -248.0752835661

  ----------------------------------- OT ---------------------------------------
  Minimizer      : DIIS                : direct inversion
                                         in the iterative subspace
                                         using   7 DIIS vectors
                                         safer DIIS on
  Preconditioner : FULL_ALL            : diagonalization, state selective
  Precond_solver : DEFAULT
  stepsize       :    0.15000000                  energy_gap     :    0.08000000
  eps_taylor     :   0.10000E-15                  max_taylor     :             4
  ----------------------------------- OT ---------------------------------------

  Step     Update method      Time    Convergence         Total energy    Change
  ------------------------------------------------------------------------------
     1 OT DIIS     0.15E+00    1.5     0.00000020      -248.0752835663 -1.66E-10
     2 OT DIIS     0.15E+00    0.7     0.00000017      -248.0752835663 -8.13E-12
     3 OT DIIS     0.15E+00    0.7     0.00000004      -248.0752835663 -9.72E-12

  *** SCF run converged in     3 steps ***


  Electronic density on regular grids:        -30.3640835052       11.6359164948
  Core density on regular grids:               42.0000000000       -0.0000000000
  Hard and soft densities (Lebedev):         -116.1705694385     -104.5346525609
  Total Rho_soft + Rho1_hard - Rho1_soft      -42.0000003827
  Total charge density (r-space):              -0.0000003827
  Total Rho_soft + Rho0_soft (g-space):        -0.0000005584

  Overlap energy of the core charge distribution:               0.00000990016619
  Self energy of the core charge distribution:               -200.41567963278760
  Core Hamiltonian energy:                                    -41.39188392796744
  Hartree energy:                                              78.14012892371147
  Exchange-correlation energy:                                -13.22695018641813

  GAPW| Exc from hard and soft atomic rho1:                   -22.32666572316522
  GAPW| local Eh = 1 center integrals:                        -48.85424291983453

  Total energy:                                              -248.07528356629524

  outer SCF iter =    3 RMS gradient =   0.40E-07 energy =       -248.0752835663
  outer SCF loop converged in   3 iterations or   23 steps


 ENERGY| Total FORCE_EVAL ( QS ) energy [a.u.]:             -248.075283566295241

 -------------------------------------------------------------------------------
 -                                                                             -
 -                                DBCSR STATISTICS                             -
 -                                                                             -
 -------------------------------------------------------------------------------
 COUNTER                                    TOTAL       BLAS       SMM       ACC
 flops    21 x    21 x    21              3167262       0.0%    100.0%      0.0%
 flops    21 x    21 x    57              4776030       0.0%    100.0%      0.0%
 flops    57 x    21 x    21              5932332       0.0%    100.0%      0.0%
 flops    30 x    30 x    21             13608000       0.0%    100.0%      0.0%
 flops    30 x    57 x    21             25855200       0.0%    100.0%      0.0%
 flops    57 x    30 x    21             25855200       0.0%    100.0%      0.0%
 flops    21 x    21 x    87             36448650       0.0%    100.0%      0.0%
 flops    87 x    21 x    21             45273060       0.0%    100.0%      0.0%
 flops    87 x    21 x    57             54152280       0.0%    100.0%      0.0%
 flops    57 x    21 x    87             54152280       0.0%    100.0%      0.0%
 flops    30 x    21 x    30             62370000       0.0%    100.0%      0.0%
 flops    57 x    57 x    21             68774832       0.0%    100.0%      0.0%
 flops    57 x    21 x    30            142203600       0.0%    100.0%      0.0%
 flops    30 x    21 x    57            142203600       0.0%    100.0%      0.0%
 flops    57 x    21 x    57            331320024       0.0%    100.0%      0.0%
 flops    87 x    21 x    87            413267400       0.0%    100.0%      0.0%
 flops inhomo. stacks                           0       0.0%      0.0%      0.0%
 flops total                         1.429360E+09       0.0%    100.0%      0.0%
 flops max/rank                    271.489050E+06       0.0%    100.0%      0.0%
 matmuls inhomo. stacks                         0       0.0%      0.0%      0.0%
 matmuls total                              12891       0.0%    100.0%      0.0%
 number of processed stacks                 12891       0.0%    100.0%      0.0%
 average stack size                                     0.0       1.0       0.0
 marketing flops                     1.540570E+09
 -------------------------------------------------------------------------------
 # multiplications                            529
 max memory usage/rank             319.692800E+06
 # max total images/rank                        1
 # max 3D layers                                1
 # MPI messages exchanged                  190440
 MPI messages size (bytes):
  total size                         1.346551E+09
  min size                           0.000000E+00
  max size                          60.552000E+03
  average size                       7.070738E+03
 MPI breakdown and total messages size (bytes):
             size <=      128              152680                        0
       128 < size <=     8192                2300                  8114400
      8192 < size <=    32768               14810                211230000
     32768 < size <=   131072               20650               1127206800
    131072 < size <=  4194304                   0                        0
   4194304 < size <= 16777216                   0                        0
  16777216 < size                               0                        0
 -------------------------------------------------------------------------------
 -                                                                             -
 -                      DBCSR MESSAGE PASSING PERFORMANCE                      -
 -                                                                             -
 -------------------------------------------------------------------------------
 ROUTINE             CALLS      AVE VOLUME [Bytes]
 MP_Bcast               17                     12.
 MP_Allreduce         2804                      8.
 MP_Alltoall          2272                   4502.
 MP_ISend            12684                   4655.
 MP_IRecv            12684                   4335.
 -------------------------------------------------------------------------------

 -------------------------------------------------------------------------------
 -                                                                             -
 -                                GRID STATISTICS                              -
 -                                                                             -
 -------------------------------------------------------------------------------
 LP    KERNEL             BACKEND                              COUNT     PERCENT
 2     collocate ortho    REF                                  69984      11.66%
 1     collocate ortho    REF                                  67416      11.24%
 2     integrate ortho    REF                                  67068      11.18%
 1     integrate ortho    REF                                  64607      10.77%
 3     collocate ortho    REF                                  57048       9.51%
 3     integrate ortho    REF                                  54671       9.11%
 4     collocate ortho    REF                                  37536       6.26%
 4     integrate ortho    REF                                  35972       6.00%
 0     collocate ortho    REF                                  34392       5.73%
 0     integrate ortho    REF                                  32959       5.49%
 5     collocate ortho    REF                                  19392       3.23%
 5     integrate ortho    REF                                  18584       3.10%
 2     collocate general  REF                                   9108       1.52%
 2     integrate general  REF                                   9108       1.52%
 6     collocate ortho    REF                                   8088       1.35%
 6     integrate ortho    REF                                   7751       1.29%
 7     collocate ortho    REF                                   2736       0.46%
 7     integrate ortho    REF                                   2622       0.44%
 8     collocate ortho    REF                                    504       0.08%
 8     integrate ortho    REF                                    483       0.08%
 -------------------------------------------------------------------------------

 MEMORY| Estimated peak process memory [MiB]                                 306

 -------------------------------------------------------------------------------
 -                                                                             -
 -                         MESSAGE PASSING PERFORMANCE                         -
 -                                                                             -
 -------------------------------------------------------------------------------

 ROUTINE             CALLS      AVE VOLUME [Bytes]
 MP_Group                4
 MP_Bcast             1112                 217726.
 MP_Allreduce         2794                  85655.
 MP_Sync                62
 MP_Alltoall           526                6645538.
 MP_ISendRecv         4935                  92352.
 MP_Wait              9492
 MP_comm_split          29
 MP_ISend             4092                 224122.
 MP_IRecv             4092                 224147.
 MP_Recv                10                  15744.
 -------------------------------------------------------------------------------


 -------------------------------------------------------------------------------
 -                                                                             -
 -                           R E F E R E N C E S                               -
 -                                                                             -
 -------------------------------------------------------------------------------
 
 CP2K version 10.0 (Development Version), the CP2K developers group (2022).
 CP2K is freely available from https://www.cp2k.org/ .

 Kuehne,Thomas D.; Iannuzzi,Marcella; Del Ben,Mauro;
 Rybkin,Vladimir V.; Seewald,Patrick; Stein,Frederick; Laino,Teodoro;
 Khaliullin,Rustam Z.; Schuett,Ole; Schiffmann,Florian; Golze,Dorothea;
 Wilhelm,Jan; Chulkov,Sergey; Bani-Hashemian,Mohammad Hossein;
 Weber,Valery; Borstnik,Urban; Taillefumier,Mathieu;
 Jakobovits,Alice Shoshana; Lazzaro,Alfio; Pabst,Hans; Mueller,Tiziano;
 Schade,Robert; Guidon,Manuel; Andermatt,Samuel; Holmberg,Nico;
 Schenter,Gregory K.; Hehn,Anna; Bussy,Augustin; Belleflamme,Fabian;
 Tabacchi,Gloria; Gloess,Andreas; Lass,Michael; Bethune,Iain;
 Mundy,Christopher J.; Plessl,Christian; Watkins,Matt;
 VandeVondele,Joost; Krack,Matthias; Hutter,Juerg. 
 The Journal of Chemical Physics, 152 (19), (2020). 
 CP2K: An electronic structure and molecular dynamics software package -
 Quickstep: Efficient and accurate electronic structure calculations.
 https://doi.org/10.1063/5.0007045

 Schuett, Ole; Messmer, Peter; Hutter, Juerg; VandeVondele, Joost. 
 Electronic Structure Calculations on Graphics Processing Units, John
 Wiley & Sons, Ltd, 173-190 (2016). 
 GPU-Accelerated Sparse Matrix-Matrix Multiplication for
 Linear Scaling Density Functional Theory.
 https://doi.org/10.1002/9781118670712.ch8

 Heinecke, A; Henry, G; Hutchinson, M; Pabst, H. 
 Proceedings of Intl. Supercomputing Conference, 981-991 (2016). 
 LIBXSMM: Accelerating Small Matrix Multiplications
 by Runtime Code Generation.
 https://doi.org/10.1109/SC.2016.83

 Borstnik, U; VandeVondele, J; Weber, V; Hutter, J. 
 PARALLEL COMPUTING, 40 (5-6), 47-58 (2014). 
 Sparse matrix multiplication: The distributed block-compressed sparse
 row library.
 https://doi.org/10.1016/j.parco.2014.03.012

 Hutter, J; Iannuzzi, M; Schiffmann, F; VandeVondele, J. 
 WIREs Comput Mol Sci., 4 (1), 15-25 (2014). 
 CP2K: atomistic simulations of condensed matter systems.
 https://doi.org/10.1002/wcms.1159

 Frigo, M; Johnson, SG. 
 PROCEEDINGS OF THE IEEE, 93 (2), 216-231 (2005). 
 The design and implementation of FFTW3.
 https://doi.org/10.1109/JPROC.2004.840301

 VandeVondele, J; Hutter, J. 
 JOURNAL OF CHEMICAL PHYSICS, 118 (10), 4365-4369 (2003). 
 An efficient orbital transformation method for electronic structure
 calculations.
 https://doi.org/10.1063/1.1543154

 Lippert, G; Hutter, J; Parrinello, M. 
 THEORETICAL CHEMISTRY ACCOUNTS, 103 (2), 124-140 (1999). 
 The Gaussian and augmented-plane-wave density functional method for ab
 initio molecular dynamics simulations.
 https://doi.org/10.1007/s002140050523

 Krack, M; Parrinello, M. 
 PHYSICAL CHEMISTRY CHEMICAL PHYSICS, 2 (10), 2105-2112 (2000). 
 All-electron ab-initio molecular dynamics.
 https://doi.org/10.1039/b001167n

 Perdew, JP; Burke, K; Ernzerhof, M. 
 PHYSICAL REVIEW LETTERS, 77 (18), 3865-3868 (1996). 
 Generalized gradient approximation made simple.
 https://doi.org/10.1103/PhysRevLett.77.3865


 -------------------------------------------------------------------------------
 -                                                                             -
 -                                T I M I N G                                  -
 -                                                                             -
 -------------------------------------------------------------------------------
 SUBROUTINE                       CALLS  ASD         SELF TIME        TOTAL TIME
                                MAXIMUM       AVERAGE  MAXIMUM  AVERAGE  MAXIMUM
 CP2K                                 1  1.0    0.006    0.030   17.236   17.237
 qs_energies                          1  2.0    0.000    0.000   16.994   16.994
 scf_env_do_scf                       1  3.0    0.000    0.000   16.740   16.740
 scf_env_do_scf_inner_loop           23  4.0    0.000    0.002   14.747   14.747
 qs_ks_update_qs_env                 26  5.0    0.000    0.000   13.033   13.035
 rebuild_ks_matrix                   23  6.0    0.000    0.000   13.030   13.032
 qs_ks_build_kohn_sham_matrix        23  7.0    0.004    0.005   13.030   13.032
 pw_transfer                        488 10.1    0.045    0.053    4.159    4.905
 fft_wrap_pw1pw2                    419 11.3    0.005    0.006    4.080    4.823
 fft_wrap_pw1pw2_250                278 12.6    0.246    0.298    3.884    4.647
 fft3d_ps                           419 13.3    1.541    1.864    3.224    3.874
 rs_pw_transfer                     234  9.5    0.005    0.006    3.380    3.637
 qs_vxc_create                       23  8.0    0.001    0.001    3.513    3.514
 xc_vxc_pw_create                    23  9.0    0.024    0.028    3.513    3.513
 xc_pw_derive                       138 11.0    0.001    0.002    2.319    3.018
 qs_rho_update_rho                   24  5.0    0.000    0.001    2.988    2.989
 calculate_rho_elec                  24  6.0    0.013    0.015    2.795    2.796
 sum_up_and_integrate                23  8.0    0.008    0.013    2.722    2.726
 integrate_v_rspace                  23  9.0    0.001    0.001    2.713    2.716
 prepare_gapw_den                    23  8.0    0.001    0.001    2.653    2.676
 density_rs2pw                       24  7.0    0.001    0.002    2.023    2.324
 xc_pw_divergence                    23 10.0    0.001    0.001    1.627    2.306
 mp_sum_d                          1187  7.0    1.982    2.280    1.982    2.280
 mp_alltoall_z22v                   419 15.3    1.366    2.222    1.366    2.222
 xc_rho_set_and_dset_create          23 10.0    0.025    0.030    1.799    2.191
 init_scf_loop                        3  4.0    0.000    0.000    1.992    1.992
 rs_pw_transfer_RS2PW_250            47 10.0    0.550    0.668    1.500    1.789
 calculate_vxc_atom                  23  8.0    0.032    0.240    1.737    1.737
 yz_to_x                            187 14.1    0.131    0.223    1.030    1.727
 mp_waitany                        4092 11.5    1.256    1.582    1.256    1.582
 integrate_vhg0_rspace               23  8.0    0.278    0.345    1.539    1.553
 grid_collocate_task_list            24  7.0    0.702    1.403    0.702    1.403
 potential_pw2rs                     23 10.0    0.002    0.002    1.385    1.388
 gaVxcgb_GC                          69  9.0    0.121    1.369    0.121    1.369
 calculate_rho_atom                  69  9.0    0.568    1.343    0.568    1.343
 grid_integrate_task_list            23 10.0    0.546    1.325    0.546    1.325
 rs_pw_transfer_PW2RS_250            46 11.0    0.609    0.719    1.133    1.197
 xc_functional_eval                 161 10.6    0.000    0.001    0.740    1.145
 pbe_lda_eval                       161 11.6    0.739    1.145    0.739    1.145
 mp_alltoall_d11v                   617 11.5    0.802    1.058    0.802    1.058
 rs_gather_matrices                  23 10.0    0.001    0.002    0.781    1.039
 put_rho0_on_grid                    23  9.0    0.017    0.024    0.922    0.945
 calculate_rho0_atom                 69  9.0    0.635    0.814    0.635    0.814
 mp_sum_dv                          965 13.0    0.532    0.782    0.532    0.782
 x_to_yz                            185 14.6    0.158    0.222    0.623    0.745
 mp_sum_dm                          781  7.6    0.673    0.740    0.673    0.740
 mp_waitall_1                     39256 13.8    0.595    0.724    0.595    0.724
 dbcsr_multiply_generic             529 10.0    0.015    0.015    0.528    0.551
 qs_scf_new_mos                      23  5.0    0.000    0.000    0.548    0.550
 qs_scf_loop_do_ot                   23  6.0    0.000    0.000    0.548    0.550
 ot_scf_mini                         23  7.0    0.000    0.000    0.527    0.529
 pw_gather_p                        211 12.9    0.292    0.392    0.292    0.392
 rs_pw_transfer_PW2RS_90             23 12.0    0.068    0.079    0.307    0.356
 -------------------------------------------------------------------------------

 The number of warnings for this run is : 0
 
 -------------------------------------------------------------------------------
  **** **** ******  **  PROGRAM ENDED AT                 2022-05-09 20:42:15.573
 ***** ** ***  *** **   PROGRAM RAN ON                                   tcopt10
 **    ****   ******    PROGRAM RAN BY                                    hutter
 ***** **    ** ** **   PROGRAM PROCESS ID                                 48461
  **** **  *******  **  PROGRAM STOPPED IN /data/hutter/GITHUB/BASIS/scMOLOPT/PB
                                           E/hbcnof
