 DBCSR| CPU Multiplication driver                                           XSMM
 DBCSR| Multrec recursion limit                                              512
 DBCSR| Multiplication stack size                                           1000
 DBCSR| Maximum elements for images                                    UNLIMITED
 DBCSR| Multiplicative factor virtual images                                   1
 DBCSR| Use multiplication densification                                       T
 DBCSR| Multiplication size stacks                                             3
 DBCSR| Use memory pool for CPU allocation                                     F
 DBCSR| Number of 3D layers                                               SINGLE
 DBCSR| Use MPI memory allocation                                              F
 DBCSR| Use RMA algorithm                                                      F
 DBCSR| Use Communication thread                                               T
 DBCSR| Communication thread load                                             87
 DBCSR| MPI: My node id                                                        0
 DBCSR| MPI: Number of nodes                                                  36
 DBCSR| OMP: Current number of threads                                         1
 DBCSR| OMP: Max number of threads                                             1
 DBCSR| Split modifier for TAS multiplication algorithm                  1.0E+00


  **** **** ******  **  PROGRAM STARTED AT               2022-05-09 20:38:53.223
 ***** ** ***  *** **   PROGRAM STARTED ON                               tcopt10
 **    ****   ******    PROGRAM STARTED BY                                hutter
 ***** **    ** ** **   PROGRAM PROCESS ID                                 46486
  **** **  *******  **  PROGRAM STARTED IN /data/hutter/GITHUB/BASIS/scMOLOPT/PB
                                           E/hbcnof

 CP2K| version string:                   CP2K version 10.0 (Development Version)
 CP2K| source code revision number:                                  git:57d9aec
 CP2K| cp2kflags: omp libint fftw3 libxc elpa parallel mpi3 scalapack cosma xsmm
 CP2K|             spglib sirius libvori libbqb
 CP2K| is freely available from                            https://www.cp2k.org/
 CP2K| Program compiled at                      Fri 06 May 2022 02:09:00 PM CEST
 CP2K| Program compiled on                                               tcopt10
 CP2K| Program compiled for                                                local
 CP2K| Data directory path                   /data/hutter/GITHUB/TDLRI/cp2k/data
 CP2K| Input file name                                             CH2O2-ref.inp

 GLOBAL| Force Environment number                                              1
 GLOBAL| Basis set file name                                        ../def2QZVPP
 GLOBAL| Potential file name                                        ../POTENTIAL
 GLOBAL| MM Potential file name                                     MM_POTENTIAL
 GLOBAL| Coordinate file name                                      __STD_INPUT__
 GLOBAL| Method name                                                        CP2K
 GLOBAL| Project name                                                   refCH2O2
 GLOBAL| Run type                                                         ENERGY
 GLOBAL| FFT library                                                       FFTW3
 GLOBAL| Diagonalization library                                       ScaLAPACK
 GLOBAL| Orthonormality check for eigenvectors                          DISABLED
 GLOBAL| Matrix multiplication library                                     COSMA
 GLOBAL| All-to-all communication in single precision                          F
 GLOBAL| FFTs using library dependent lengths                                  F
 GLOBAL| Grid backend                                                       AUTO
 GLOBAL| Global print level                                                  LOW
 GLOBAL| MPI I/O enabled                                                       T
 GLOBAL| Total number of message passing processes                            36
 GLOBAL| Number of threads for this process                                    1
 GLOBAL| This output is from process                                           0
 GLOBAL| Stack size for threads created by OpenMP (OMP_STACKSIZE)        default
 GLOBAL| CPU model name                          AMD EPYC 7401 24-Core Processor
 GLOBAL| CPUID                                                              1002

 MEMORY| system memory details [Kb]
 MEMORY|                        rank 0           min           max       average
 MEMORY| MemTotal            263969136     263969136     263969136     263969136
 MEMORY| MemFree             245268448     245268448     245268448     245268448
 MEMORY| Buffers                   136           136           136           136
 MEMORY| Cached               12533144      12533144      12533144      12533144
 MEMORY| Slab                  1357400       1357400       1357400       1357400
 MEMORY| SReclaimable           821432        821432        821432        821432
 MEMORY| MemLikelyFree       258623160     258623160     258623160     258623160


 GENERATE|  Preliminary Number of Bonds generated:                             2
 GENERATE|  Achieved consistency in connectivity generation.
 GENERATE|  Number of Bonds generated:                                         2
 GENERATE|  Preliminary Number of Bends generated:                             0
 GENERATE|  Preliminary Number of Torsions generated:                          0

 *******************************************************************************
 *******************************************************************************
 **                                                                           **
 **     #####                         ##              ##                      **
 **    ##   ##            ##          ##              ##                      **
 **   ##     ##                       ##            ######                    **
 **   ##     ##  ##   ##  ##   #####  ##  ##   ####   ##    #####    #####    **
 **   ##     ##  ##   ##  ##  ##      ## ##   ##      ##   ##   ##  ##   ##   **
 **   ##  ## ##  ##   ##  ##  ##      ####     ###    ##   ######   ######    **
 **    ##  ###   ##   ##  ##  ##      ## ##      ##   ##   ##       ##        **
 **     #######   #####   ##   #####  ##  ##  ####    ##    #####   ##        **
 **           ##                                                    ##        **
 **                                                                           **
 **                                                ... make the atoms dance   **
 **                                                                           **
 **            Copyright (C) by CP2K developers group (2000-2022)             **
 **                      J. Chem. Phys. 152, 194103 (2020)                    **
 **                                                                           **
 *******************************************************************************


 TOTAL NUMBERS AND MAXIMUM NUMBERS

  Total number of            - Atomic kinds:                                   3
                             - Atoms:                                          5
                             - Shell sets:                                    71
                             - Shells:                                        71
                             - Primitive Cartesian functions:                113
                             - Cartesian basis functions:                    286
                             - Spherical basis functions:                    231

  Maximum angular momentum of the orbital basis functions:                     4


 SCF PARAMETERS         Density guess:                                    ATOMIC
                        --------------------------------------------------------
                        max_scf:                                              10
                        max_scf_history:                                       0
                        max_diis:                                              4
                        --------------------------------------------------------
                        eps_scf:                                        1.00E-07
                        eps_scf_history:                                0.00E+00
                        eps_diis:                                       1.00E-01
                        eps_eigval:                                     1.00E-05
                        --------------------------------------------------------
                        level_shift [a.u.]:                                 0.00
                        --------------------------------------------------------
                        Outer loop SCF in use 
                        No variables optimised in outer loop
                        eps_scf                                         1.00E-07
                        max_scf                                               10
                        No outer loop optimization
                        step_size                                       5.00E-01

 Number of electrons:                                                         24
 Number of occupied orbitals:                                                 12
 Number of molecular orbitals:                                                12

 Number of orbital functions:                                                231
 Number of independent orbital functions:                                    231

 Extrapolation method: initial_guess


 SCF WAVEFUNCTION OPTIMIZATION

  ----------------------------------- OT ---------------------------------------
  Minimizer      : DIIS                : direct inversion
                                         in the iterative subspace
                                         using   7 DIIS vectors
                                         safer DIIS on
  Preconditioner : FULL_ALL            : diagonalization, state selective
  Precond_solver : DEFAULT
  stepsize       :    0.15000000                  energy_gap     :    0.08000000
  eps_taylor     :   0.10000E-15                  max_taylor     :             4
  ----------------------------------- OT ---------------------------------------

  Step     Update method      Time    Convergence         Total energy    Change
  ------------------------------------------------------------------------------
     1 OT DIIS     0.15E+00    0.5     0.11128662      -184.5704998412 -1.85E+02
     2 OT DIIS     0.15E+00    0.6     0.04786655      -188.1067016086 -3.54E+00
     3 OT DIIS     0.15E+00    0.6     0.02021273      -188.8987109715 -7.92E-01
     4 OT DIIS     0.15E+00    0.6     0.01521009      -189.0318582580 -1.33E-01
     5 OT DIIS     0.15E+00    0.6     0.01264753      -189.1578580238 -1.26E-01
     6 OT DIIS     0.15E+00    0.6     0.01062974      -189.2679136875 -1.10E-01
     7 OT DIIS     0.15E+00    0.6     0.00895879      -189.3530071495 -8.51E-02
     8 OT DIIS     0.15E+00    0.6     0.00671124      -189.4309772113 -7.80E-02
     9 OT DIIS     0.15E+00    0.6     0.00534975      -189.4623079230 -3.13E-02
    10 OT DIIS     0.15E+00    0.6     0.00355505      -189.5038264733 -4.15E-02

  Leaving inner SCF loop after reaching    10 steps.


  Electronic density on regular grids:        -17.5071907888        6.4928092112
  Core density on regular grids:               24.0000000000       -0.0000000000
  Hard and soft densities (Lebedev):          -48.4195577638      -41.9267475681
  Total Rho_soft + Rho1_hard - Rho1_soft      -24.0000009845
  Total charge density (r-space):              -0.0000009845
  Total Rho_soft + Rho0_soft (g-space):        -0.0000010283

  Overlap energy of the core charge distribution:               0.00000103440279
  Self energy of the core charge distribution:               -177.75393499252706
  Core Hamiltonian energy:                                    -19.36844397537370
  Hartree energy:                                              51.89111151831044
  Exchange-correlation energy:                                 -8.81887048177517

  GAPW| Exc from hard and soft atomic rho1:                   -14.18909678707044
  GAPW| local Eh = 1 center integrals:                        -21.26459278924135

  Total energy:                                              -189.50382647327450

  outer SCF iter =    1 RMS gradient =   0.36E-02 energy =       -189.5038264733

  ----------------------------------- OT ---------------------------------------
  Minimizer      : DIIS                : direct inversion
                                         in the iterative subspace
                                         using   7 DIIS vectors
                                         safer DIIS on
  Preconditioner : FULL_ALL            : diagonalization, state selective
  Precond_solver : DEFAULT
  stepsize       :    0.15000000                  energy_gap     :    0.08000000
  eps_taylor     :   0.10000E-15                  max_taylor     :             4
  ----------------------------------- OT ---------------------------------------

  Step     Update method      Time    Convergence         Total energy    Change
  ------------------------------------------------------------------------------
     1 OT DIIS     0.15E+00    1.2     0.00629397      -189.5056345179 -1.81E-03
     2 OT DIIS     0.15E+00    0.6     0.00211640      -189.5164479839 -1.08E-02
     3 OT DIIS     0.15E+00    0.6     0.00125046      -189.5176976064 -1.25E-03
     4 OT DIIS     0.15E+00    0.6     0.00043054      -189.5178182646 -1.21E-04
     5 OT DIIS     0.15E+00    0.6     0.00017452      -189.5178349854 -1.67E-05
     6 OT DIIS     0.15E+00    0.6     0.00001706      -189.5178383940 -3.41E-06
     7 OT DIIS     0.15E+00    0.6     0.00000274      -189.5178384776 -8.36E-08
     8 OT DIIS     0.15E+00    0.6     0.00000082      -189.5178384793 -1.74E-09
     9 OT DIIS     0.15E+00    0.6     0.00000020      -189.5178384794 -1.36E-10
    10 OT DIIS     0.15E+00    0.6     0.00000004      -189.5178384795 -3.52E-11

  *** SCF run converged in    10 steps ***


  Electronic density on regular grids:        -17.5097273204        6.4902726796
  Core density on regular grids:               24.0000000000       -0.0000000000
  Hard and soft densities (Lebedev):          -48.4286306565      -41.9383569400
  Total Rho_soft + Rho1_hard - Rho1_soft      -24.0000010370
  Total charge density (r-space):              -0.0000010370
  Total Rho_soft + Rho0_soft (g-space):        -0.0000010808

  Overlap energy of the core charge distribution:               0.00000103440279
  Self energy of the core charge distribution:               -177.75393499252706
  Core Hamiltonian energy:                                    -19.41965962710963
  Hartree energy:                                              51.94297155158769
  Exchange-correlation energy:                                 -8.81740751073138

  GAPW| Exc from hard and soft atomic rho1:                   -14.18896964357740
  GAPW| local Eh = 1 center integrals:                        -21.28083929152556

  Total energy:                                              -189.51783847948056

  outer SCF iter =    2 RMS gradient =   0.37E-07 energy =       -189.5178384795
  outer SCF loop converged in   2 iterations or   20 steps


 ENERGY| Total FORCE_EVAL ( QS ) energy [a.u.]:             -189.517838479480559

 -------------------------------------------------------------------------------
 -                                                                             -
 -                                DBCSR STATISTICS                             -
 -                                                                             -
 -------------------------------------------------------------------------------
 COUNTER                                    TOTAL       BLAS       SMM       ACC
 flops    12 x    12 x    12               604800       0.0%    100.0%      0.0%
 flops    30 x    30 x    12              1360800       0.0%    100.0%      0.0%
 flops    12 x    12 x    30              1416960       0.0%    100.0%      0.0%
 flops    30 x    12 x    12              1762560       0.0%    100.0%      0.0%
 flops    30 x    57 x    12              2585520       0.0%    100.0%      0.0%
 flops    57 x    30 x    12              2585520       0.0%    100.0%      0.0%
 flops    12 x    12 x    57              4038336       0.0%    100.0%      0.0%
 flops    57 x    12 x    12              5023296       0.0%    100.0%      0.0%
 flops    30 x    12 x    30              8467200       0.0%    100.0%      0.0%
 flops    57 x    57 x    12              9824976       0.0%    100.0%      0.0%
 flops    57 x    12 x    30             24131520       0.0%    100.0%      0.0%
 flops    30 x    12 x    57             24131520       0.0%    100.0%      0.0%
 flops    57 x    12 x    57             68774832       0.0%    100.0%      0.0%
 flops inhomo. stacks                           0       0.0%      0.0%      0.0%
 flops total                       154.707840E+06       0.0%    100.0%      0.0%
 flops max/rank                     40.340808E+06       0.0%    100.0%      0.0%
 matmuls inhomo. stacks                         0       0.0%      0.0%      0.0%
 matmuls total                               3860       0.0%    100.0%      0.0%
 number of processed stacks                  3860       0.0%    100.0%      0.0%
 average stack size                                     0.0       1.0       0.0
 marketing flops                   165.378016E+06
 -------------------------------------------------------------------------------
 # multiplications                            480
 max memory usage/rank             316.276736E+06
 # max total images/rank                        1
 # max 3D layers                                1
 # MPI messages exchanged                  172800
 MPI messages size (bytes):
  total size                       256.795920E+06
  min size                           0.000000E+00
  max size                          25.992000E+03
  average size                       1.486088E+03
 MPI breakdown and total messages size (bytes):
             size <=      128              148140                        0
       128 < size <=     8192               14370                 61732800
      8192 < size <=    32768               10290                195063120
     32768 < size <=   131072                   0                        0
    131072 < size <=  4194304                   0                        0
   4194304 < size <= 16777216                   0                        0
  16777216 < size                               0                        0
 -------------------------------------------------------------------------------
 -                                                                             -
 -                      DBCSR MESSAGE PASSING PERFORMANCE                      -
 -                                                                             -
 -------------------------------------------------------------------------------
 ROUTINE             CALLS      AVE VOLUME [Bytes]
 MP_Bcast               14                     12.
 MP_Allreduce         2554                      8.
 MP_Alltoall          1927                   2747.
 MP_ISend            11512                   1573.
 MP_IRecv            11512                   1112.
 -------------------------------------------------------------------------------

 -------------------------------------------------------------------------------
 -                                                                             -
 -                                GRID STATISTICS                              -
 -                                                                             -
 -------------------------------------------------------------------------------
 LP    KERNEL             BACKEND                              COUNT     PERCENT
 2     collocate ortho    REF                                  11550      10.80%
 2     integrate ortho    REF                                  11000      10.29%
 1     collocate ortho    REF                                  10206       9.55%
 3     collocate ortho    REF                                  10164       9.51%
 1     integrate ortho    REF                                   9720       9.09%
 3     integrate ortho    REF                                   9680       9.05%
 4     collocate ortho    REF                                   7350       6.87%
 4     integrate ortho    REF                                   7000       6.55%
 0     collocate ortho    REF                                   5103       4.77%
 0     integrate ortho    REF                                   4860       4.55%
 5     collocate ortho    REF                                   4116       3.85%
 5     integrate ortho    REF                                   3920       3.67%
 2     collocate general  REF                                   3600       3.37%
 2     integrate general  REF                                   3600       3.37%
 6     collocate ortho    REF                                   1827       1.71%
 6     integrate ortho    REF                                   1740       1.63%
 7     collocate ortho    REF                                    630       0.59%
 7     integrate ortho    REF                                    600       0.56%
 8     collocate ortho    REF                                    126       0.12%
 8     integrate ortho    REF                                    120       0.11%
 -------------------------------------------------------------------------------

 MEMORY| Estimated peak process memory [MiB]                                 302

 -------------------------------------------------------------------------------
 -                                                                             -
 -                         MESSAGE PASSING PERFORMANCE                         -
 -                                                                             -
 -------------------------------------------------------------------------------

 ROUTINE             CALLS      AVE VOLUME [Bytes]
 MP_Group                4
 MP_Bcast              593                 393479.
 MP_Allreduce         1756                  58158.
 MP_Sync                54
 MP_Alltoall           460                3937880.
 MP_ISendRecv         4305                  92352.
 MP_Wait              8274
 MP_comm_split          25
 MP_ISend             3564                 224120.
 MP_IRecv             3564                 224149.
 MP_Recv                 5                   3696.
 -------------------------------------------------------------------------------


 -------------------------------------------------------------------------------
 -                                                                             -
 -                           R E F E R E N C E S                               -
 -                                                                             -
 -------------------------------------------------------------------------------
 
 CP2K version 10.0 (Development Version), the CP2K developers group (2022).
 CP2K is freely available from https://www.cp2k.org/ .

 Kuehne,Thomas D.; Iannuzzi,Marcella; Del Ben,Mauro;
 Rybkin,Vladimir V.; Seewald,Patrick; Stein,Frederick; Laino,Teodoro;
 Khaliullin,Rustam Z.; Schuett,Ole; Schiffmann,Florian; Golze,Dorothea;
 Wilhelm,Jan; Chulkov,Sergey; Bani-Hashemian,Mohammad Hossein;
 Weber,Valery; Borstnik,Urban; Taillefumier,Mathieu;
 Jakobovits,Alice Shoshana; Lazzaro,Alfio; Pabst,Hans; Mueller,Tiziano;
 Schade,Robert; Guidon,Manuel; Andermatt,Samuel; Holmberg,Nico;
 Schenter,Gregory K.; Hehn,Anna; Bussy,Augustin; Belleflamme,Fabian;
 Tabacchi,Gloria; Gloess,Andreas; Lass,Michael; Bethune,Iain;
 Mundy,Christopher J.; Plessl,Christian; Watkins,Matt;
 VandeVondele,Joost; Krack,Matthias; Hutter,Juerg. 
 The Journal of Chemical Physics, 152 (19), (2020). 
 CP2K: An electronic structure and molecular dynamics software package -
 Quickstep: Efficient and accurate electronic structure calculations.
 https://doi.org/10.1063/5.0007045

 Schuett, Ole; Messmer, Peter; Hutter, Juerg; VandeVondele, Joost. 
 Electronic Structure Calculations on Graphics Processing Units, John
 Wiley & Sons, Ltd, 173-190 (2016). 
 GPU-Accelerated Sparse Matrix-Matrix Multiplication for
 Linear Scaling Density Functional Theory.
 https://doi.org/10.1002/9781118670712.ch8

 Heinecke, A; Henry, G; Hutchinson, M; Pabst, H. 
 Proceedings of Intl. Supercomputing Conference, 981-991 (2016). 
 LIBXSMM: Accelerating Small Matrix Multiplications
 by Runtime Code Generation.
 https://doi.org/10.1109/SC.2016.83

 Borstnik, U; VandeVondele, J; Weber, V; Hutter, J. 
 PARALLEL COMPUTING, 40 (5-6), 47-58 (2014). 
 Sparse matrix multiplication: The distributed block-compressed sparse
 row library.
 https://doi.org/10.1016/j.parco.2014.03.012

 Hutter, J; Iannuzzi, M; Schiffmann, F; VandeVondele, J. 
 WIREs Comput Mol Sci., 4 (1), 15-25 (2014). 
 CP2K: atomistic simulations of condensed matter systems.
 https://doi.org/10.1002/wcms.1159

 Frigo, M; Johnson, SG. 
 PROCEEDINGS OF THE IEEE, 93 (2), 216-231 (2005). 
 The design and implementation of FFTW3.
 https://doi.org/10.1109/JPROC.2004.840301

 VandeVondele, J; Hutter, J. 
 JOURNAL OF CHEMICAL PHYSICS, 118 (10), 4365-4369 (2003). 
 An efficient orbital transformation method for electronic structure
 calculations.
 https://doi.org/10.1063/1.1543154

 Lippert, G; Hutter, J; Parrinello, M. 
 THEORETICAL CHEMISTRY ACCOUNTS, 103 (2), 124-140 (1999). 
 The Gaussian and augmented-plane-wave density functional method for ab
 initio molecular dynamics simulations.
 https://doi.org/10.1007/s002140050523

 Krack, M; Parrinello, M. 
 PHYSICAL CHEMISTRY CHEMICAL PHYSICS, 2 (10), 2105-2112 (2000). 
 All-electron ab-initio molecular dynamics.
 https://doi.org/10.1039/b001167n

 Perdew, JP; Burke, K; Ernzerhof, M. 
 PHYSICAL REVIEW LETTERS, 77 (18), 3865-3868 (1996). 
 Generalized gradient approximation made simple.
 https://doi.org/10.1103/PhysRevLett.77.3865


 -------------------------------------------------------------------------------
 -                                                                             -
 -                                T I M I N G                                  -
 -                                                                             -
 -------------------------------------------------------------------------------
 SUBROUTINE                       CALLS  ASD         SELF TIME        TOTAL TIME
                                MAXIMUM       AVERAGE  MAXIMUM  AVERAGE  MAXIMUM
 CP2K                                 1  1.0    0.007    0.031   12.172   12.173
 qs_energies                          1  2.0    0.000    0.000   11.961   11.961
 scf_env_do_scf                       1  3.0    0.000    0.000   11.804   11.804
 scf_env_do_scf_inner_loop           20  4.0    0.000    0.002   10.793   10.793
 qs_ks_update_qs_env                 22  5.0    0.000    0.000    9.198    9.199
 rebuild_ks_matrix                   20  6.0    0.000    0.000    9.196    9.197
 qs_ks_build_kohn_sham_matrix        20  7.0    0.004    0.005    9.195    9.197
 pw_transfer                        425 10.1    0.039    0.043    3.603    4.003
 fft_wrap_pw1pw2                    365 11.2    0.004    0.005    3.536    3.937
 fft_wrap_pw1pw2_250                242 12.6    0.212    0.261    3.359    3.753
 fft3d_ps                           365 13.2    1.341    1.621    2.797    3.249
 rs_pw_transfer                     204  9.5    0.004    0.005    2.881    3.046
 qs_vxc_create                       20  8.0    0.001    0.001    2.819    2.819
 xc_vxc_pw_create                    20  9.0    0.020    0.023    2.819    2.819
 xc_pw_derive                       120 11.0    0.001    0.001    1.982    2.375
 qs_rho_update_rho                   21  5.0    0.000    0.000    2.185    2.186
 calculate_rho_elec                  21  6.0    0.011    0.012    2.110    2.110
 sum_up_and_integrate                20  8.0    0.007    0.011    2.093    2.096
 integrate_v_rspace                  20  9.0    0.001    0.001    2.085    2.091
 density_rs2pw                       21  7.0    0.001    0.001    1.750    1.894
 mp_alltoall_z22v                   365 15.2    1.180    1.855    1.180    1.855
 prepare_gapw_den                    20  8.0    0.001    0.001    1.816    1.833
 xc_pw_divergence                    20 10.0    0.001    0.001    1.380    1.769
 xc_rho_set_and_dset_create          20 10.0    0.021    0.026    1.369    1.693
 yz_to_x                            163 14.1    0.113    0.176    0.886    1.401
 rs_pw_transfer_RS2PW_250            41 10.0    0.526    0.643    1.249    1.391
 mp_waitany                        3564 11.5    0.984    1.328    0.984    1.328
 mp_sum_d                          1027  6.3    1.065    1.232    1.065    1.232
 potential_pw2rs                     20 10.0    0.001    0.002    1.189    1.191
 rs_pw_transfer_PW2RS_250            40 11.0    0.530    0.625    0.985    1.036
 init_scf_loop                        2  4.0    0.000    0.000    1.010    1.010
 integrate_vhg0_rspace               20  8.0    0.120    0.142    0.988    1.003
 mp_alltoall_d11v                   494 11.7    0.799    0.909    0.799    0.909
 rs_gather_matrices                  20 10.0    0.000    0.001    0.786    0.896
 grid_integrate_task_list            20 10.0    0.110    0.894    0.110    0.894
 calculate_vxc_atom                  20  8.0    0.018    0.132    0.866    0.866
 grid_collocate_task_list            21  7.0    0.304    0.862    0.304    0.862
 put_rho0_on_grid                    20  9.0    0.013    0.016    0.793    0.810
 calculate_rho_atom                  60  9.0    0.459    0.808    0.459    0.809
 xc_functional_eval                 100 10.8    0.000    0.001    0.440    0.763
 pbe_lda_eval                       100 11.8    0.440    0.762    0.440    0.762
 x_to_yz                            161 14.6    0.139    0.192    0.543    0.658
 gaVxcgb_GC                          40  9.0    0.052    0.654    0.052    0.654
 mp_waitall_1                     35430 13.9    0.484    0.611    0.484    0.611
 qs_scf_new_mos                      20  5.0    0.000    0.000    0.438    0.440
 qs_scf_loop_do_ot                   20  6.0    0.000    0.000    0.438    0.440
 ot_scf_mini                         20  7.0    0.000    0.000    0.421    0.423
 dbcsr_multiply_generic             480 10.1    0.013    0.014    0.403    0.411
 calculate_rho0_atom                 60  9.0    0.291    0.383    0.291    0.383
 mp_sum_dv                          562 12.9    0.277    0.377    0.277    0.377
 mp_sum_dm                          310  7.6    0.292    0.356    0.292    0.356
 pw_gather_p                        184 12.8    0.253    0.342    0.253    0.342
 rs_pw_transfer_PW2RS_90             20 12.0    0.059    0.067    0.270    0.317
 pw_scatter_p                       181 13.7    0.260    0.287    0.260    0.287
 ot_mini                             20  8.0    0.000    0.000    0.260    0.262
 rs_grid_zero                        80 10.8    0.217    0.251    0.217    0.251
 -------------------------------------------------------------------------------

 The number of warnings for this run is : 0
 
 -------------------------------------------------------------------------------
  **** **** ******  **  PROGRAM ENDED AT                 2022-05-09 20:39:05.780
 ***** ** ***  *** **   PROGRAM RAN ON                                   tcopt10
 **    ****   ******    PROGRAM RAN BY                                    hutter
 ***** **    ** ** **   PROGRAM PROCESS ID                                 46486
  **** **  *******  **  PROGRAM STOPPED IN /data/hutter/GITHUB/BASIS/scMOLOPT/PB
                                           E/hbcnof
