 DBCSR| CPU Multiplication driver                                           XSMM
 DBCSR| Multrec recursion limit                                              512
 DBCSR| Multiplication stack size                                           1000
 DBCSR| Maximum elements for images                                    UNLIMITED
 DBCSR| Multiplicative factor virtual images                                   1
 DBCSR| Use multiplication densification                                       T
 DBCSR| Multiplication size stacks                                             3
 DBCSR| Use memory pool for CPU allocation                                     F
 DBCSR| Number of 3D layers                                               SINGLE
 DBCSR| Use MPI memory allocation                                              F
 DBCSR| Use RMA algorithm                                                      F
 DBCSR| Use Communication thread                                               T
 DBCSR| Communication thread load                                             87
 DBCSR| MPI: My node id                                                        0
 DBCSR| MPI: Number of nodes                                                  36
 DBCSR| OMP: Current number of threads                                         1
 DBCSR| OMP: Max number of threads                                             1
 DBCSR| Split modifier for TAS multiplication algorithm                  1.0E+00


  **** **** ******  **  PROGRAM STARTED AT               2022-05-09 20:40:19.719
 ***** ** ***  *** **   PROGRAM STARTED ON                               tcopt10
 **    ****   ******    PROGRAM STARTED BY                                hutter
 ***** **    ** ** **   PROGRAM PROCESS ID                                 47404
  **** **  *******  **  PROGRAM STARTED IN /data/hutter/GITHUB/BASIS/scMOLOPT/PB
                                           E/hbcnof

 CP2K| version string:                   CP2K version 10.0 (Development Version)
 CP2K| source code revision number:                                  git:57d9aec
 CP2K| cp2kflags: omp libint fftw3 libxc elpa parallel mpi3 scalapack cosma xsmm
 CP2K|             spglib sirius libvori libbqb
 CP2K| is freely available from                            https://www.cp2k.org/
 CP2K| Program compiled at                      Fri 06 May 2022 02:09:00 PM CEST
 CP2K| Program compiled on                                               tcopt10
 CP2K| Program compiled for                                                local
 CP2K| Data directory path                   /data/hutter/GITHUB/TDLRI/cp2k/data
 CP2K| Input file name                                              CH3N-ref.inp

 GLOBAL| Force Environment number                                              1
 GLOBAL| Basis set file name                                        ../def2QZVPP
 GLOBAL| Potential file name                                        ../POTENTIAL
 GLOBAL| MM Potential file name                                     MM_POTENTIAL
 GLOBAL| Coordinate file name                                      __STD_INPUT__
 GLOBAL| Method name                                                        CP2K
 GLOBAL| Project name                                                    refCH3N
 GLOBAL| Run type                                                         ENERGY
 GLOBAL| FFT library                                                       FFTW3
 GLOBAL| Diagonalization library                                       ScaLAPACK
 GLOBAL| Orthonormality check for eigenvectors                          DISABLED
 GLOBAL| Matrix multiplication library                                     COSMA
 GLOBAL| All-to-all communication in single precision                          F
 GLOBAL| FFTs using library dependent lengths                                  F
 GLOBAL| Grid backend                                                       AUTO
 GLOBAL| Global print level                                                  LOW
 GLOBAL| MPI I/O enabled                                                       T
 GLOBAL| Total number of message passing processes                            36
 GLOBAL| Number of threads for this process                                    1
 GLOBAL| This output is from process                                           0
 GLOBAL| Stack size for threads created by OpenMP (OMP_STACKSIZE)        default
 GLOBAL| CPU model name                          AMD EPYC 7401 24-Core Processor
 GLOBAL| CPUID                                                              1002

 MEMORY| system memory details [Kb]
 MEMORY|                        rank 0           min           max       average
 MEMORY| MemTotal            263969136     263969136     263969136     263969136
 MEMORY| MemFree             245257480     245257480     245257480     245257480
 MEMORY| Buffers                   136           136           136           136
 MEMORY| Cached               12534096      12534096      12534096      12534096
 MEMORY| Slab                  1355744       1355744       1355744       1355744
 MEMORY| SReclaimable           820264        820264        820264        820264
 MEMORY| MemLikelyFree       258611976     258611976     258611976     258611976


 GENERATE|  Preliminary Number of Bonds generated:                             2
 GENERATE|  Achieved consistency in connectivity generation.
 GENERATE|  Number of Bonds generated:                                         2
 GENERATE|  Preliminary Number of Bends generated:                             1
 GENERATE|  Number of Bends generated:                                         1
 GENERATE|  Number of UB generated:                                            1
 GENERATE|  Preliminary Number of Torsions generated:                          0

 *******************************************************************************
 *******************************************************************************
 **                                                                           **
 **     #####                         ##              ##                      **
 **    ##   ##            ##          ##              ##                      **
 **   ##     ##                       ##            ######                    **
 **   ##     ##  ##   ##  ##   #####  ##  ##   ####   ##    #####    #####    **
 **   ##     ##  ##   ##  ##  ##      ## ##   ##      ##   ##   ##  ##   ##   **
 **   ##  ## ##  ##   ##  ##  ##      ####     ###    ##   ######   ######    **
 **    ##  ###   ##   ##  ##  ##      ## ##      ##   ##   ##       ##        **
 **     #######   #####   ##   #####  ##  ##  ####    ##    #####   ##        **
 **           ##                                                    ##        **
 **                                                                           **
 **                                                ... make the atoms dance   **
 **                                                                           **
 **            Copyright (C) by CP2K developers group (2000-2022)             **
 **                      J. Chem. Phys. 152, 194103 (2020)                    **
 **                                                                           **
 *******************************************************************************


 TOTAL NUMBERS AND MAXIMUM NUMBERS

  Total number of            - Atomic kinds:                                   3
                             - Atoms:                                          5
                             - Shell sets:                                    64
                             - Shells:                                        64
                             - Primitive Cartesian functions:                 97
                             - Cartesian basis functions:                    249
                             - Spherical basis functions:                    204

  Maximum angular momentum of the orbital basis functions:                     4


 SCF PARAMETERS         Density guess:                                    ATOMIC
                        --------------------------------------------------------
                        max_scf:                                              10
                        max_scf_history:                                       0
                        max_diis:                                              4
                        --------------------------------------------------------
                        eps_scf:                                        1.00E-07
                        eps_scf_history:                                0.00E+00
                        eps_diis:                                       1.00E-01
                        eps_eigval:                                     1.00E-05
                        --------------------------------------------------------
                        level_shift [a.u.]:                                 0.00
                        --------------------------------------------------------
                        Outer loop SCF in use 
                        No variables optimised in outer loop
                        eps_scf                                         1.00E-07
                        max_scf                                               10
                        No outer loop optimization
                        step_size                                       5.00E-01

 Number of electrons:                                                         16
 Number of occupied orbitals:                                                  8
 Number of molecular orbitals:                                                 8

 Number of orbital functions:                                                204
 Number of independent orbital functions:                                    204

 Extrapolation method: initial_guess


 SCF WAVEFUNCTION OPTIMIZATION

  ----------------------------------- OT ---------------------------------------
  Minimizer      : DIIS                : direct inversion
                                         in the iterative subspace
                                         using   7 DIIS vectors
                                         safer DIIS on
  Preconditioner : FULL_ALL            : diagonalization, state selective
  Precond_solver : DEFAULT
  stepsize       :    0.15000000                  energy_gap     :    0.08000000
  eps_taylor     :   0.10000E-15                  max_taylor     :             4
  ----------------------------------- OT ---------------------------------------

  Step     Update method      Time    Convergence         Total energy    Change
  ------------------------------------------------------------------------------
     1 OT DIIS     0.15E+00    0.6     0.20096303       -88.3203040650 -8.83E+01
     2 OT DIIS     0.15E+00    0.6     0.04616788       -93.8362183441 -5.52E+00
     3 OT DIIS     0.15E+00    0.6     0.02251863       -94.1947413996 -3.59E-01
     4 OT DIIS     0.15E+00    0.6     0.01642091       -94.3082074741 -1.13E-01
     5 OT DIIS     0.15E+00    0.6     0.01196661       -94.4082838112 -1.00E-01
     6 OT DIIS     0.15E+00    0.6     0.00796498       -94.4857263723 -7.74E-02
     7 OT DIIS     0.15E+00    0.6     0.00531092       -94.5217571573 -3.60E-02
     8 OT DIIS     0.15E+00    0.6     0.00351150       -94.5440252477 -2.23E-02
     9 OT DIIS     0.15E+00    0.6     0.00272823       -94.5472530755 -3.23E-03
    10 OT DIIS     0.15E+00    0.6     0.00156370       -94.5506592128 -3.41E-03

  Leaving inner SCF loop after reaching    10 steps.


  Electronic density on regular grids:        -12.0875904203        3.9124095797
  Core density on regular grids:               16.0000000000       -0.0000000000
  Hard and soft densities (Lebedev):          -39.7901981496      -35.8777884755
  Total Rho_soft + Rho1_hard - Rho1_soft      -16.0000000944
  Total charge density (r-space):              -0.0000000944
  Total Rho_soft + Rho0_soft (g-space):        -0.0000001506

  Overlap energy of the core charge distribution:               0.00000275808824
  Self energy of the core charge distribution:                -81.14374523884399
  Core Hamiltonian energy:                                    -13.26946043396181
  Hartree energy:                                              29.91080893422032
  Exchange-correlation energy:                                 -5.33690190688301

  GAPW| Exc from hard and soft atomic rho1:                    -7.90727476492118
  GAPW| local Eh = 1 center integrals:                        -16.80408856045723

  Total energy:                                               -94.55065921275867

  outer SCF iter =    1 RMS gradient =   0.16E-02 energy =        -94.5506592128

  ----------------------------------- OT ---------------------------------------
  Minimizer      : DIIS                : direct inversion
                                         in the iterative subspace
                                         using   7 DIIS vectors
                                         safer DIIS on
  Preconditioner : FULL_ALL            : diagonalization, state selective
  Precond_solver : DEFAULT
  stepsize       :    0.15000000                  energy_gap     :    0.08000000
  eps_taylor     :   0.10000E-15                  max_taylor     :             4
  ----------------------------------- OT ---------------------------------------

  Step     Update method      Time    Convergence         Total energy    Change
  ------------------------------------------------------------------------------
     1 OT DIIS     0.15E+00    1.3     0.00262945       -94.5523151908 -1.66E-03
     2 OT DIIS     0.15E+00    0.6     0.00088523       -94.5534031502 -1.09E-03
     3 OT DIIS     0.15E+00    0.6     0.00035967       -94.5535426909 -1.40E-04
     4 OT DIIS     0.15E+00    0.6     0.00025684       -94.5535499251 -7.23E-06
     5 OT DIIS     0.15E+00    0.6     0.00002550       -94.5535537945 -3.87E-06
     6 OT DIIS     0.15E+00    0.6     0.00000494       -94.5535538808 -8.63E-08
     7 OT DIIS     0.15E+00    0.6     0.00000129       -94.5535538835 -2.66E-09
     8 OT DIIS     0.15E+00    0.6     0.00000026       -94.5535538837 -2.01E-10
     9 OT DIIS     0.15E+00    0.6     0.00000004       -94.5535538837 -1.44E-11

  *** SCF run converged in     9 steps ***


  Electronic density on regular grids:        -12.0880436018        3.9119563982
  Core density on regular grids:               16.0000000000       -0.0000000000
  Hard and soft densities (Lebedev):          -39.7871826686      -35.8752261756
  Total Rho_soft + Rho1_hard - Rho1_soft      -16.0000000949
  Total charge density (r-space):              -0.0000000949
  Total Rho_soft + Rho0_soft (g-space):        -0.0000001511

  Overlap energy of the core charge distribution:               0.00000275808824
  Self energy of the core charge distribution:                -81.14374523884399
  Core Hamiltonian energy:                                    -13.26260790391856
  Hartree energy:                                              29.90550064501293
  Exchange-correlation energy:                                 -5.34079716332745

  GAPW| Exc from hard and soft atomic rho1:                    -7.90715632067091
  GAPW| local Eh = 1 center integrals:                        -16.80475066002984

  Total energy:                                               -94.55355388368959

  outer SCF iter =    2 RMS gradient =   0.42E-07 energy =        -94.5535538837
  outer SCF loop converged in   2 iterations or   19 steps


 ENERGY| Total FORCE_EVAL ( QS ) energy [a.u.]:              -94.553553883689588

 -------------------------------------------------------------------------------
 -                                                                             -
 -                                DBCSR STATISTICS                             -
 -                                                                             -
 -------------------------------------------------------------------------------
 COUNTER                                    TOTAL       BLAS       SMM       ACC
 flops     8 x     8 x     8               216064       0.0%    100.0%      0.0%
 flops     8 x     8 x    30               898560       0.0%    100.0%      0.0%
 flops    30 x     8 x     8              1117440       0.0%    100.0%      0.0%
 flops     8 x     8 x    57              1138176       0.0%    100.0%      0.0%
 flops    57 x     8 x     8              1415424       0.0%    100.0%      0.0%
 flops    30 x    57 x     8              1641600       0.0%    100.0%      0.0%
 flops    57 x    30 x     8              1641600       0.0%    100.0%      0.0%
 flops    30 x    30 x     8              1728000       0.0%    100.0%      0.0%
 flops    57 x    57 x     8              3119040       0.0%    100.0%      0.0%
 flops    30 x     8 x    30             12182400       0.0%    100.0%      0.0%
 flops    57 x     8 x    30             15431040       0.0%    100.0%      0.0%
 flops    30 x     8 x    57             15431040       0.0%    100.0%      0.0%
 flops    57 x     8 x    57             19545984       0.0%    100.0%      0.0%
 flops inhomo. stacks                           0       0.0%      0.0%      0.0%
 flops total                        75.506368E+06       0.0%    100.0%      0.0%
 flops max/rank                     21.488704E+06       0.0%    100.0%      0.0%
 matmuls inhomo. stacks                         0       0.0%      0.0%      0.0%
 matmuls total                               3736       0.0%    100.0%      0.0%
 number of processed stacks                  3736       0.0%    100.0%      0.0%
 average stack size                                     0.0       1.0       0.0
 marketing flops                    80.745784E+06
 -------------------------------------------------------------------------------
 # multiplications                            502
 max memory usage/rank             316.174336E+06
 # max total images/rank                        1
 # max 3D layers                                1
 # MPI messages exchanged                  180720
 MPI messages size (bytes):
  total size                       183.068160E+06
  min size                           0.000000E+00
  max size                          25.992000E+03
  average size                       1.012993E+03
 MPI breakdown and total messages size (bytes):
             size <=      128              156700                        0
       128 < size <=     8192               16500                 57048000
      8192 < size <=    32768                7520                126020160
     32768 < size <=   131072                   0                        0
    131072 < size <=  4194304                   0                        0
   4194304 < size <= 16777216                   0                        0
  16777216 < size                               0                        0
 -------------------------------------------------------------------------------
 -                                                                             -
 -                      DBCSR MESSAGE PASSING PERFORMANCE                      -
 -                                                                             -
 -------------------------------------------------------------------------------
 ROUTINE             CALLS      AVE VOLUME [Bytes]
 MP_Bcast               14                     12.
 MP_Allreduce         2655                      8.
 MP_Alltoall          1842                   2391.
 MP_ISend            12040                   1118.
 MP_IRecv            12040                    775.
 -------------------------------------------------------------------------------

 -------------------------------------------------------------------------------
 -                                                                             -
 -                                GRID STATISTICS                              -
 -                                                                             -
 -------------------------------------------------------------------------------
 LP    KERNEL             BACKEND                              COUNT     PERCENT
 2     collocate ortho    REF                                  11160      11.10%
 1     collocate ortho    REF                                  10800      10.74%
 2     integrate ortho    REF                                  10602      10.54%
 1     integrate ortho    REF                                  10260      10.20%
 3     collocate ortho    REF                                   9200       9.15%
 3     integrate ortho    REF                                   8740       8.69%
 0     collocate ortho    REF                                   6340       6.30%
 0     integrate ortho    REF                                   6023       5.99%
 4     collocate ortho    REF                                   5940       5.91%
 4     integrate ortho    REF                                   5643       5.61%
 2     collocate general  REF                                   3420       3.40%
 2     integrate general  REF                                   3420       3.40%
 5     collocate ortho    REF                                   3000       2.98%
 5     integrate ortho    REF                                   2850       2.83%
 6     collocate ortho    REF                                   1200       1.19%
 6     integrate ortho    REF                                   1140       1.13%
 7     collocate ortho    REF                                    360       0.36%
 7     integrate ortho    REF                                    342       0.34%
 8     collocate ortho    REF                                     60       0.06%
 8     integrate ortho    REF                                     57       0.06%
 -------------------------------------------------------------------------------

 MEMORY| Estimated peak process memory [MiB]                                 302

 -------------------------------------------------------------------------------
 -                                                                             -
 -                         MESSAGE PASSING PERFORMANCE                         -
 -                                                                             -
 -------------------------------------------------------------------------------

 ROUTINE             CALLS      AVE VOLUME [Bytes]
 MP_Group                4
 MP_Bcast              486                 476389.
 MP_Allreduce         1471                  48897.
 MP_Sync                36
 MP_Alltoall           438                4396626.
 MP_ISendRecv         4095                  92352.
 MP_Wait              7868
 MP_comm_split          16
 MP_ISend             3388                 224119.
 MP_IRecv             3388                 224150.
 MP_Recv                 3                   3264.
 -------------------------------------------------------------------------------


 -------------------------------------------------------------------------------
 -                                                                             -
 -                           R E F E R E N C E S                               -
 -                                                                             -
 -------------------------------------------------------------------------------
 
 CP2K version 10.0 (Development Version), the CP2K developers group (2022).
 CP2K is freely available from https://www.cp2k.org/ .

 Kuehne,Thomas D.; Iannuzzi,Marcella; Del Ben,Mauro;
 Rybkin,Vladimir V.; Seewald,Patrick; Stein,Frederick; Laino,Teodoro;
 Khaliullin,Rustam Z.; Schuett,Ole; Schiffmann,Florian; Golze,Dorothea;
 Wilhelm,Jan; Chulkov,Sergey; Bani-Hashemian,Mohammad Hossein;
 Weber,Valery; Borstnik,Urban; Taillefumier,Mathieu;
 Jakobovits,Alice Shoshana; Lazzaro,Alfio; Pabst,Hans; Mueller,Tiziano;
 Schade,Robert; Guidon,Manuel; Andermatt,Samuel; Holmberg,Nico;
 Schenter,Gregory K.; Hehn,Anna; Bussy,Augustin; Belleflamme,Fabian;
 Tabacchi,Gloria; Gloess,Andreas; Lass,Michael; Bethune,Iain;
 Mundy,Christopher J.; Plessl,Christian; Watkins,Matt;
 VandeVondele,Joost; Krack,Matthias; Hutter,Juerg. 
 The Journal of Chemical Physics, 152 (19), (2020). 
 CP2K: An electronic structure and molecular dynamics software package -
 Quickstep: Efficient and accurate electronic structure calculations.
 https://doi.org/10.1063/5.0007045

 Schuett, Ole; Messmer, Peter; Hutter, Juerg; VandeVondele, Joost. 
 Electronic Structure Calculations on Graphics Processing Units, John
 Wiley & Sons, Ltd, 173-190 (2016). 
 GPU-Accelerated Sparse Matrix-Matrix Multiplication for
 Linear Scaling Density Functional Theory.
 https://doi.org/10.1002/9781118670712.ch8

 Heinecke, A; Henry, G; Hutchinson, M; Pabst, H. 
 Proceedings of Intl. Supercomputing Conference, 981-991 (2016). 
 LIBXSMM: Accelerating Small Matrix Multiplications
 by Runtime Code Generation.
 https://doi.org/10.1109/SC.2016.83

 Borstnik, U; VandeVondele, J; Weber, V; Hutter, J. 
 PARALLEL COMPUTING, 40 (5-6), 47-58 (2014). 
 Sparse matrix multiplication: The distributed block-compressed sparse
 row library.
 https://doi.org/10.1016/j.parco.2014.03.012

 Hutter, J; Iannuzzi, M; Schiffmann, F; VandeVondele, J. 
 WIREs Comput Mol Sci., 4 (1), 15-25 (2014). 
 CP2K: atomistic simulations of condensed matter systems.
 https://doi.org/10.1002/wcms.1159

 Frigo, M; Johnson, SG. 
 PROCEEDINGS OF THE IEEE, 93 (2), 216-231 (2005). 
 The design and implementation of FFTW3.
 https://doi.org/10.1109/JPROC.2004.840301

 VandeVondele, J; Hutter, J. 
 JOURNAL OF CHEMICAL PHYSICS, 118 (10), 4365-4369 (2003). 
 An efficient orbital transformation method for electronic structure
 calculations.
 https://doi.org/10.1063/1.1543154

 Lippert, G; Hutter, J; Parrinello, M. 
 THEORETICAL CHEMISTRY ACCOUNTS, 103 (2), 124-140 (1999). 
 The Gaussian and augmented-plane-wave density functional method for ab
 initio molecular dynamics simulations.
 https://doi.org/10.1007/s002140050523

 Krack, M; Parrinello, M. 
 PHYSICAL CHEMISTRY CHEMICAL PHYSICS, 2 (10), 2105-2112 (2000). 
 All-electron ab-initio molecular dynamics.
 https://doi.org/10.1039/b001167n

 Perdew, JP; Burke, K; Ernzerhof, M. 
 PHYSICAL REVIEW LETTERS, 77 (18), 3865-3868 (1996). 
 Generalized gradient approximation made simple.
 https://doi.org/10.1103/PhysRevLett.77.3865


 -------------------------------------------------------------------------------
 -                                                                             -
 -                                T I M I N G                                  -
 -                                                                             -
 -------------------------------------------------------------------------------
 SUBROUTINE                       CALLS  ASD         SELF TIME        TOTAL TIME
                                MAXIMUM       AVERAGE  MAXIMUM  AVERAGE  MAXIMUM
 CP2K                                 1  1.0    0.006    0.030   12.082   12.082
 qs_energies                          1  2.0    0.000    0.000   11.871   11.871
 scf_env_do_scf                       1  3.0    0.000    0.000   11.723   11.723
 scf_env_do_scf_inner_loop           19  4.0    0.000    0.002   10.644   10.644
 qs_ks_update_qs_env                 21  5.0    0.000    0.000    9.412    9.412
 rebuild_ks_matrix                   19  6.0    0.000    0.000    9.410    9.410
 qs_ks_build_kohn_sham_matrix        19  7.0    0.004    0.005    9.410    9.410
 pw_transfer                        404 10.1    0.037    0.043    3.349    3.756
 fft_wrap_pw1pw2                    347 11.2    0.004    0.005    3.285    3.692
 fft_wrap_pw1pw2_250                230 12.6    0.203    0.243    3.115    3.497
 fft3d_ps                           347 13.2    1.268    1.546    2.579    3.062
 rs_pw_transfer                     194  9.5    0.004    0.005    2.622    2.780
 qs_vxc_create                       19  8.0    0.000    0.001    2.654    2.655
 xc_vxc_pw_create                    19  9.0    0.019    0.023    2.654    2.654
 xc_pw_derive                       114 11.0    0.001    0.001    1.823    2.215
 prepare_gapw_den                    19  8.0    0.001    0.001    1.958    1.974
 qs_rho_update_rho                   20  5.0    0.000    0.000    1.925    1.926
 calculate_rho_elec                  20  6.0    0.010    0.012    1.861    1.861
 sum_up_and_integrate                19  8.0    0.007    0.010    1.847    1.848
 integrate_v_rspace                  19  9.0    0.001    0.001    1.840    1.842
 mp_sum_d                           961  6.0    1.701    1.841    1.701    1.841
 mp_alltoall_z22v                   347 15.2    1.048    1.729    1.048    1.729
 xc_pw_divergence                    19 10.0    0.000    0.001    1.262    1.661
 density_rs2pw                       20  7.0    0.001    0.001    1.513    1.638
 xc_rho_set_and_dset_create          19 10.0    0.020    0.023    1.327    1.602
 calculate_vxc_atom                  19  8.0    0.016    0.197    1.443    1.443
 yz_to_x                            155 14.1    0.109    0.179    0.782    1.303
 rs_pw_transfer_RS2PW_250            39 10.0    0.491    0.591    1.078    1.226
 mp_waitany                        3388 11.5    0.836    1.150    0.836    1.150
 potential_pw2rs                     19 10.0    0.001    0.001    1.141    1.143
 gaVxcgb_GC                          57  9.0    0.037    1.142    0.037    1.142
 init_scf_loop                        2  4.0    0.000    0.000    1.078    1.078
 calculate_rho_atom                  57  9.0    0.427    1.066    0.427    1.066
 rs_pw_transfer_PW2RS_250            38 11.0    0.508    0.600    0.939    0.988
 integrate_vhg0_rspace               19  8.0    0.092    0.127    0.876    0.886
 put_rho0_on_grid                    19  9.0    0.012    0.016    0.765    0.780
 grid_collocate_task_list            20  7.0    0.297    0.712    0.297    0.712
 xc_functional_eval                 133 10.8    0.000    0.001    0.456    0.710
 pbe_lda_eval                       133 11.8    0.456    0.710    0.456    0.710
 mp_alltoall_d11v                   429 11.4    0.613    0.708    0.613    0.708
 rs_gather_matrices                  19 10.0    0.000    0.001    0.603    0.697
 grid_integrate_task_list            19 10.0    0.095    0.697    0.095    0.697
 mp_sum_dv                          390 12.8    0.574    0.624    0.574    0.624
 x_to_yz                            153 14.6    0.131    0.180    0.505    0.608
 mp_waitall_1                     36608 14.0    0.444    0.562    0.444    0.562
 qs_scf_new_mos                      19  5.0    0.000    0.000    0.409    0.410
 qs_scf_loop_do_ot                   19  6.0    0.000    0.000    0.409    0.410
 dbcsr_multiply_generic             502 10.1    0.014    0.014    0.399    0.406
 ot_scf_mini                         19  7.0    0.000    0.000    0.393    0.394
 pw_gather_p                        175 12.8    0.242    0.313    0.242    0.313
 rs_pw_transfer_PW2RS_90             19 12.0    0.056    0.064    0.254    0.299
 mp_sum_dm                          295  7.6    0.234    0.288    0.234    0.288
 pw_scatter_p                       172 13.7    0.248    0.272    0.248    0.272
 ot_mini                             19  8.0    0.000    0.000    0.262    0.264
 -------------------------------------------------------------------------------

 The number of warnings for this run is : 0
 
 -------------------------------------------------------------------------------
  **** **** ******  **  PROGRAM ENDED AT                 2022-05-09 20:40:32.202
 ***** ** ***  *** **   PROGRAM RAN ON                                   tcopt10
 **    ****   ******    PROGRAM RAN BY                                    hutter
 ***** **    ** ** **   PROGRAM PROCESS ID                                 47404
  **** **  *******  **  PROGRAM STOPPED IN /data/hutter/GITHUB/BASIS/scMOLOPT/PB
                                           E/hbcnof
