 DBCSR| CPU Multiplication driver                                           XSMM
 DBCSR| Multrec recursion limit                                              512
 DBCSR| Multiplication stack size                                           1000
 DBCSR| Maximum elements for images                                    UNLIMITED
 DBCSR| Multiplicative factor virtual images                                   1
 DBCSR| Use multiplication densification                                       T
 DBCSR| Multiplication size stacks                                             3
 DBCSR| Use memory pool for CPU allocation                                     F
 DBCSR| Number of 3D layers                                               SINGLE
 DBCSR| Use MPI memory allocation                                              F
 DBCSR| Use RMA algorithm                                                      F
 DBCSR| Use Communication thread                                               T
 DBCSR| Communication thread load                                             87
 DBCSR| MPI: My node id                                                        0
 DBCSR| MPI: Number of nodes                                                  36
 DBCSR| OMP: Current number of threads                                         1
 DBCSR| OMP: Max number of threads                                             1
 DBCSR| Split modifier for TAS multiplication algorithm                  1.0E+00


  **** **** ******  **  PROGRAM STARTED AT               2022-05-09 20:42:15.830
 ***** ** ***  *** **   PROGRAM STARTED ON                               tcopt10
 **    ****   ******    PROGRAM STARTED BY                                hutter
 ***** **    ** ** **   PROGRAM PROCESS ID                                 48601
  **** **  *******  **  PROGRAM STARTED IN /data/hutter/GITHUB/BASIS/scMOLOPT/PB
                                           E/hbcnof

 CP2K| version string:                   CP2K version 10.0 (Development Version)
 CP2K| source code revision number:                                  git:57d9aec
 CP2K| cp2kflags: omp libint fftw3 libxc elpa parallel mpi3 scalapack cosma xsmm
 CP2K|             spglib sirius libvori libbqb
 CP2K| is freely available from                            https://www.cp2k.org/
 CP2K| Program compiled at                      Fri 06 May 2022 02:09:00 PM CEST
 CP2K| Program compiled on                                               tcopt10
 CP2K| Program compiled for                                                local
 CP2K| Data directory path                   /data/hutter/GITHUB/TDLRI/cp2k/data
 CP2K| Input file name                                               CH4-ref.inp

 GLOBAL| Force Environment number                                              1
 GLOBAL| Basis set file name                                        ../def2QZVPP
 GLOBAL| Potential file name                                        ../POTENTIAL
 GLOBAL| MM Potential file name                                     MM_POTENTIAL
 GLOBAL| Coordinate file name                                      __STD_INPUT__
 GLOBAL| Method name                                                        CP2K
 GLOBAL| Project name                                                     refCH4
 GLOBAL| Run type                                                         ENERGY
 GLOBAL| FFT library                                                       FFTW3
 GLOBAL| Diagonalization library                                       ScaLAPACK
 GLOBAL| Orthonormality check for eigenvectors                          DISABLED
 GLOBAL| Matrix multiplication library                                     COSMA
 GLOBAL| All-to-all communication in single precision                          F
 GLOBAL| FFTs using library dependent lengths                                  F
 GLOBAL| Grid backend                                                       AUTO
 GLOBAL| Global print level                                                  LOW
 GLOBAL| MPI I/O enabled                                                       T
 GLOBAL| Total number of message passing processes                            36
 GLOBAL| Number of threads for this process                                    1
 GLOBAL| This output is from process                                           0
 GLOBAL| Stack size for threads created by OpenMP (OMP_STACKSIZE)        default
 GLOBAL| CPU model name                          AMD EPYC 7401 24-Core Processor
 GLOBAL| CPUID                                                              1002

 MEMORY| system memory details [Kb]
 MEMORY|                        rank 0           min           max       average
 MEMORY| MemTotal            263969136     263969136     263969136     263969136
 MEMORY| MemFree             245290984     245290984     245290984     245290984
 MEMORY| Buffers                   136           136           136           136
 MEMORY| Cached               12533864      12533864      12533864      12533864
 MEMORY| Slab                  1355060       1355060       1355060       1355060
 MEMORY| SReclaimable           819868        819868        819868        819868
 MEMORY| MemLikelyFree       258644852     258644852     258644852     258644852


 GENERATE|  Preliminary Number of Bonds generated:                             3
 GENERATE|  Achieved consistency in connectivity generation.
 GENERATE|  Number of Bonds generated:                                         3
 GENERATE|  Preliminary Number of Bends generated:                             2
 GENERATE|  Number of Bends generated:                                         2
 GENERATE|  Number of UB generated:                                            2
 GENERATE|  Preliminary Number of Torsions generated:                          1
 GENERATE|  Number of Torsions generated:                                      1
 GENERATE|  Number of 1-4 interactions generated:                              1

 *******************************************************************************
 *******************************************************************************
 **                                                                           **
 **     #####                         ##              ##                      **
 **    ##   ##            ##          ##              ##                      **
 **   ##     ##                       ##            ######                    **
 **   ##     ##  ##   ##  ##   #####  ##  ##   ####   ##    #####    #####    **
 **   ##     ##  ##   ##  ##  ##      ## ##   ##      ##   ##   ##  ##   ##   **
 **   ##  ## ##  ##   ##  ##  ##      ####     ###    ##   ######   ######    **
 **    ##  ###   ##   ##  ##  ##      ## ##      ##   ##   ##       ##        **
 **     #######   #####   ##   #####  ##  ##  ####    ##    #####   ##        **
 **           ##                                                    ##        **
 **                                                                           **
 **                                                ... make the atoms dance   **
 **                                                                           **
 **            Copyright (C) by CP2K developers group (2000-2022)             **
 **                      J. Chem. Phys. 152, 194103 (2020)                    **
 **                                                                           **
 *******************************************************************************


 TOTAL NUMBERS AND MAXIMUM NUMBERS

  Total number of            - Atomic kinds:                                   2
                             - Atoms:                                          5
                             - Shell sets:                                    57
                             - Shells:                                        57
                             - Primitive Cartesian functions:                 81
                             - Cartesian basis functions:                    212
                             - Spherical basis functions:                    177

  Maximum angular momentum of the orbital basis functions:                     4


 SCF PARAMETERS         Density guess:                                    ATOMIC
                        --------------------------------------------------------
                        max_scf:                                              10
                        max_scf_history:                                       0
                        max_diis:                                              4
                        --------------------------------------------------------
                        eps_scf:                                        1.00E-07
                        eps_scf_history:                                0.00E+00
                        eps_diis:                                       1.00E-01
                        eps_eigval:                                     1.00E-05
                        --------------------------------------------------------
                        level_shift [a.u.]:                                 0.00
                        --------------------------------------------------------
                        Outer loop SCF in use 
                        No variables optimised in outer loop
                        eps_scf                                         1.00E-07
                        max_scf                                               10
                        No outer loop optimization
                        step_size                                       5.00E-01

 Number of electrons:                                                         10
 Number of occupied orbitals:                                                  5
 Number of molecular orbitals:                                                 5

 Number of orbital functions:                                                177
 Number of independent orbital functions:                                    177

 Extrapolation method: initial_guess


 SCF WAVEFUNCTION OPTIMIZATION

  ----------------------------------- OT ---------------------------------------
  Minimizer      : DIIS                : direct inversion
                                         in the iterative subspace
                                         using   7 DIIS vectors
                                         safer DIIS on
  Preconditioner : FULL_ALL            : diagonalization, state selective
  Precond_solver : DEFAULT
  stepsize       :    0.15000000                  energy_gap     :    0.08000000
  eps_taylor     :   0.10000E-15                  max_taylor     :             4
  ----------------------------------- OT ---------------------------------------

  Step     Update method      Time    Convergence         Total energy    Change
  ------------------------------------------------------------------------------
     1 OT DIIS     0.15E+00    0.5     0.15057964       -39.4466045070 -3.94E+01
     2 OT DIIS     0.15E+00    0.5     0.12303277       -39.6895392783 -2.43E-01
     3 OT DIIS     0.15E+00    0.5     0.03749616       -40.3943154894 -7.05E-01
     4 OT DIIS     0.15E+00    0.5     0.01454796       -40.4532508046 -5.89E-02
     5 OT DIIS     0.15E+00    0.5     0.00733756       -40.4646561462 -1.14E-02
     6 OT DIIS     0.15E+00    0.5     0.00202418       -40.4669327464 -2.28E-03
     7 OT DIIS     0.15E+00    0.5     0.00137923       -40.4671678463 -2.35E-04
     8 OT DIIS     0.15E+00    0.5     0.00028875       -40.4672503298 -8.25E-05
     9 OT DIIS     0.15E+00    0.5     0.00017290       -40.4672559241 -5.59E-06
    10 OT DIIS     0.15E+00    0.5     0.00005177       -40.4672572556 -1.33E-06

  Leaving inner SCF loop after reaching    10 steps.


  Electronic density on regular grids:         -7.9589351164        2.0410648836
  Core density on regular grids:               10.0000000000       -0.0000000000
  Hard and soft densities (Lebedev):          -29.0676755224      -27.0266106371
  Total Rho_soft + Rho1_hard - Rho1_soft      -10.0000000018
  Total charge density (r-space):              -0.0000000018
  Total Rho_soft + Rho0_soft (g-space):        -0.0000000425

  Overlap energy of the core charge distribution:               0.00000233303940
  Self energy of the core charge distribution:                -34.75464245452878
  Core Hamiltonian energy:                                     -5.31921261489038
  Hartree energy:                                              13.92881076578584
  Exchange-correlation energy:                                 -3.12905984633940

  GAPW| Exc from hard and soft atomic rho1:                    -3.67857487429054
  GAPW| local Eh = 1 center integrals:                         -7.51458056433228

  Total energy:                                               -40.46725725555616

  outer SCF iter =    1 RMS gradient =   0.52E-04 energy =        -40.4672572556

  ----------------------------------- OT ---------------------------------------
  Minimizer      : DIIS                : direct inversion
                                         in the iterative subspace
                                         using   7 DIIS vectors
                                         safer DIIS on
  Preconditioner : FULL_ALL            : diagonalization, state selective
  Precond_solver : DEFAULT
  stepsize       :    0.15000000                  energy_gap     :    0.08000000
  eps_taylor     :   0.10000E-15                  max_taylor     :             4
  ----------------------------------- OT ---------------------------------------

  Step     Update method      Time    Convergence         Total energy    Change
  ------------------------------------------------------------------------------
     1 OT DIIS     0.15E+00    1.1     0.00001966       -40.4672574079 -1.52E-07
     2 OT DIIS     0.15E+00    0.5     0.00000711       -40.4672574401 -3.22E-08
     3 OT DIIS     0.15E+00    0.5     0.00000277       -40.4672574447 -4.57E-09
     4 OT DIIS     0.15E+00    0.5     0.00000050       -40.4672574452 -5.30E-10
     5 OT DIIS     0.15E+00    0.5     0.00000005       -40.4672574453 -1.52E-11

  *** SCF run converged in     5 steps ***


  Electronic density on regular grids:         -7.9589576794        2.0410423206
  Core density on regular grids:               10.0000000000       -0.0000000000
  Hard and soft densities (Lebedev):          -29.0684684150      -27.0274260926
  Total Rho_soft + Rho1_hard - Rho1_soft      -10.0000000018
  Total charge density (r-space):              -0.0000000018
  Total Rho_soft + Rho0_soft (g-space):        -0.0000000425

  Overlap energy of the core charge distribution:               0.00000233303940
  Self energy of the core charge distribution:                -34.75464245452878
  Core Hamiltonian energy:                                     -5.31922304493318
  Hartree energy:                                              13.92885897370357
  Exchange-correlation energy:                                 -3.12909182730912

  GAPW| Exc from hard and soft atomic rho1:                    -3.67852374142880
  GAPW| local Eh = 1 center integrals:                         -7.51463768379418

  Total energy:                                               -40.46725744525109

  outer SCF iter =    2 RMS gradient =   0.54E-07 energy =        -40.4672574453
  outer SCF loop converged in   2 iterations or   15 steps


 ENERGY| Total FORCE_EVAL ( QS ) energy [a.u.]:              -40.467257445251086

 -------------------------------------------------------------------------------
 -                                                                             -
 -                                DBCSR STATISTICS                             -
 -                                                                             -
 -------------------------------------------------------------------------------
 COUNTER                                    TOTAL       BLAS       SMM       ACC
 flops     5 x     5 x     5                22250       0.0%    100.0%      0.0%
 flops     5 x     5 x    57               176700       0.0%    100.0%      0.0%
 flops    57 x     5 x     5               219450       0.0%    100.0%      0.0%
 flops     5 x     5 x    30               372000       0.0%    100.0%      0.0%
 flops    30 x     5 x     5               462000       0.0%    100.0%      0.0%
 flops    57 x    57 x     5               519840       0.0%    100.0%      0.0%
 flops    30 x    57 x     5               547200       0.0%    100.0%      0.0%
 flops    57 x    30 x     5               547200       0.0%    100.0%      0.0%
 flops    30 x    30 x     5              1440000       0.0%    100.0%      0.0%
 flops    57 x     5 x    57              2534220       0.0%    100.0%      0.0%
 flops    57 x     5 x    30              5335200       0.0%    100.0%      0.0%
 flops    30 x     5 x    57              5335200       0.0%    100.0%      0.0%
 flops    30 x     5 x    30             11232000       0.0%    100.0%      0.0%
 flops inhomo. stacks                           0       0.0%      0.0%      0.0%
 flops total                        28.743260E+06       0.0%    100.0%      0.0%
 flops max/rank                      9.179660E+06       0.0%    100.0%      0.0%
 matmuls inhomo. stacks                         0       0.0%      0.0%      0.0%
 matmuls total                               2974       0.0%    100.0%      0.0%
 number of processed stacks                  2974       0.0%    100.0%      0.0%
 average stack size                                     0.0       1.0       0.0
 marketing flops                    30.719316E+06
 -------------------------------------------------------------------------------
 # multiplications                            324
 max memory usage/rank             297.893888E+06
 # max total images/rank                        1
 # max 3D layers                                1
 # MPI messages exchanged                  116640
 MPI messages size (bytes):
  total size                       109.010880E+06
  min size                           0.000000E+00
  max size                          25.992000E+03
  average size                     934.592590E+00
 MPI breakdown and total messages size (bytes):
             size <=      128               97840                        0
       128 < size <=     8192               15290                 56192400
      8192 < size <=    32768                3510                 52818480
     32768 < size <=   131072                   0                        0
    131072 < size <=  4194304                   0                        0
   4194304 < size <= 16777216                   0                        0
  16777216 < size                               0                        0
 -------------------------------------------------------------------------------
 -                                                                             -
 -                      DBCSR MESSAGE PASSING PERFORMANCE                      -
 -                                                                             -
 -------------------------------------------------------------------------------
 ROUTINE             CALLS      AVE VOLUME [Bytes]
 MP_Bcast               14                     12.
 MP_Allreduce         1730                      8.
 MP_Alltoall          1430                   2720.
 MP_ISend             7768                   1091.
 MP_IRecv             7768                    731.
 -------------------------------------------------------------------------------

 -------------------------------------------------------------------------------
 -                                                                             -
 -                                GRID STATISTICS                              -
 -                                                                             -
 -------------------------------------------------------------------------------
 LP    KERNEL             BACKEND                              COUNT     PERCENT
 1     collocate ortho    REF                                   7872      11.28%
 2     collocate ortho    REF                                   7696      11.03%
 1     integrate ortho    REF                                   7380      10.58%
 2     integrate ortho    REF                                   7215      10.34%
 3     collocate ortho    REF                                   6112       8.76%
 3     integrate ortho    REF                                   5730       8.21%
 0     collocate ortho    REF                                   5664       8.12%
 0     integrate ortho    REF                                   5310       7.61%
 4     collocate ortho    REF                                   3536       5.07%
 4     integrate ortho    REF                                   3315       4.75%
 2     collocate general  REF                                   2700       3.87%
 2     integrate general  REF                                   2700       3.87%
 5     collocate ortho    REF                                   1632       2.34%
 5     integrate ortho    REF                                   1530       2.19%
 6     collocate ortho    REF                                    576       0.83%
 6     integrate ortho    REF                                    540       0.77%
 7     collocate ortho    REF                                    128       0.18%
 7     integrate ortho    REF                                    120       0.17%
 8     collocate ortho    REF                                     16       0.02%
 8     integrate ortho    REF                                     15       0.02%
 -------------------------------------------------------------------------------

 MEMORY| Estimated peak process memory [MiB]                                 285

 -------------------------------------------------------------------------------
 -                                                                             -
 -                         MESSAGE PASSING PERFORMANCE                         -
 -                                                                             -
 -------------------------------------------------------------------------------

 ROUTINE             CALLS      AVE VOLUME [Bytes]
 MP_Group                4
 MP_Bcast              342                 449642.
 MP_Allreduce         1166                  31807.
 MP_Sync                36
 MP_Alltoall           350                4353747.
 MP_ISendRecv         3255                  92352.
 MP_Wait              6244
 MP_comm_split          16
 MP_ISend             2684                 224115.
 MP_IRecv             2684                 224154.
 MP_Recv                 4                   1416.
 -------------------------------------------------------------------------------


 -------------------------------------------------------------------------------
 -                                                                             -
 -                           R E F E R E N C E S                               -
 -                                                                             -
 -------------------------------------------------------------------------------
 
 CP2K version 10.0 (Development Version), the CP2K developers group (2022).
 CP2K is freely available from https://www.cp2k.org/ .

 Kuehne,Thomas D.; Iannuzzi,Marcella; Del Ben,Mauro;
 Rybkin,Vladimir V.; Seewald,Patrick; Stein,Frederick; Laino,Teodoro;
 Khaliullin,Rustam Z.; Schuett,Ole; Schiffmann,Florian; Golze,Dorothea;
 Wilhelm,Jan; Chulkov,Sergey; Bani-Hashemian,Mohammad Hossein;
 Weber,Valery; Borstnik,Urban; Taillefumier,Mathieu;
 Jakobovits,Alice Shoshana; Lazzaro,Alfio; Pabst,Hans; Mueller,Tiziano;
 Schade,Robert; Guidon,Manuel; Andermatt,Samuel; Holmberg,Nico;
 Schenter,Gregory K.; Hehn,Anna; Bussy,Augustin; Belleflamme,Fabian;
 Tabacchi,Gloria; Gloess,Andreas; Lass,Michael; Bethune,Iain;
 Mundy,Christopher J.; Plessl,Christian; Watkins,Matt;
 VandeVondele,Joost; Krack,Matthias; Hutter,Juerg. 
 The Journal of Chemical Physics, 152 (19), (2020). 
 CP2K: An electronic structure and molecular dynamics software package -
 Quickstep: Efficient and accurate electronic structure calculations.
 https://doi.org/10.1063/5.0007045

 Schuett, Ole; Messmer, Peter; Hutter, Juerg; VandeVondele, Joost. 
 Electronic Structure Calculations on Graphics Processing Units, John
 Wiley & Sons, Ltd, 173-190 (2016). 
 GPU-Accelerated Sparse Matrix-Matrix Multiplication for
 Linear Scaling Density Functional Theory.
 https://doi.org/10.1002/9781118670712.ch8

 Heinecke, A; Henry, G; Hutchinson, M; Pabst, H. 
 Proceedings of Intl. Supercomputing Conference, 981-991 (2016). 
 LIBXSMM: Accelerating Small Matrix Multiplications
 by Runtime Code Generation.
 https://doi.org/10.1109/SC.2016.83

 Borstnik, U; VandeVondele, J; Weber, V; Hutter, J. 
 PARALLEL COMPUTING, 40 (5-6), 47-58 (2014). 
 Sparse matrix multiplication: The distributed block-compressed sparse
 row library.
 https://doi.org/10.1016/j.parco.2014.03.012

 Hutter, J; Iannuzzi, M; Schiffmann, F; VandeVondele, J. 
 WIREs Comput Mol Sci., 4 (1), 15-25 (2014). 
 CP2K: atomistic simulations of condensed matter systems.
 https://doi.org/10.1002/wcms.1159

 Frigo, M; Johnson, SG. 
 PROCEEDINGS OF THE IEEE, 93 (2), 216-231 (2005). 
 The design and implementation of FFTW3.
 https://doi.org/10.1109/JPROC.2004.840301

 VandeVondele, J; Hutter, J. 
 JOURNAL OF CHEMICAL PHYSICS, 118 (10), 4365-4369 (2003). 
 An efficient orbital transformation method for electronic structure
 calculations.
 https://doi.org/10.1063/1.1543154

 Lippert, G; Hutter, J; Parrinello, M. 
 THEORETICAL CHEMISTRY ACCOUNTS, 103 (2), 124-140 (1999). 
 The Gaussian and augmented-plane-wave density functional method for ab
 initio molecular dynamics simulations.
 https://doi.org/10.1007/s002140050523

 Krack, M; Parrinello, M. 
 PHYSICAL CHEMISTRY CHEMICAL PHYSICS, 2 (10), 2105-2112 (2000). 
 All-electron ab-initio molecular dynamics.
 https://doi.org/10.1039/b001167n

 Perdew, JP; Burke, K; Ernzerhof, M. 
 PHYSICAL REVIEW LETTERS, 77 (18), 3865-3868 (1996). 
 Generalized gradient approximation made simple.
 https://doi.org/10.1103/PhysRevLett.77.3865


 -------------------------------------------------------------------------------
 -                                                                             -
 -                                T I M I N G                                  -
 -                                                                             -
 -------------------------------------------------------------------------------
 SUBROUTINE                       CALLS  ASD         SELF TIME        TOTAL TIME
                                MAXIMUM       AVERAGE  MAXIMUM  AVERAGE  MAXIMUM
 CP2K                                 1  1.0    0.006    0.024    8.447    8.448
 qs_energies                          1  2.0    0.000    0.000    8.290    8.290
 scf_env_do_scf                       1  3.0    0.000    0.000    8.146    8.147
 scf_env_do_scf_inner_loop           15  4.0    0.000    0.001    7.225    7.225
 qs_ks_update_qs_env                 17  5.0    0.000    0.000    6.296    6.298
 rebuild_ks_matrix                   15  6.0    0.000    0.000    6.294    6.296
 qs_ks_build_kohn_sham_matrix        15  7.0    0.003    0.006    6.294    6.296
 pw_transfer                        320 10.1    0.030    0.035    2.644    2.962
 fft_wrap_pw1pw2                    275 11.2    0.003    0.004    2.593    2.907
 fft_wrap_pw1pw2_250                182 12.6    0.157    0.198    2.463    2.799
 fft3d_ps                           275 13.2    1.002    1.208    2.040    2.361
 rs_pw_transfer                     154  9.5    0.003    0.004    2.172    2.284
 qs_vxc_create                       15  8.0    0.000    0.000    2.089    2.089
 xc_vxc_pw_create                    15  9.0    0.015    0.017    2.089    2.089
 xc_pw_derive                        90 11.0    0.001    0.001    1.452    1.776
 qs_rho_update_rho                   16  5.0    0.000    0.000    1.610    1.610
 calculate_rho_elec                  16  6.0    0.008    0.010    1.572    1.572
 sum_up_and_integrate                15  8.0    0.005    0.008    1.562    1.564
 integrate_v_rspace                  15  9.0    0.000    0.000    1.557    1.560
 density_rs2pw                       16  7.0    0.001    0.001    1.303    1.387
 mp_alltoall_z22v                   275 15.2    0.830    1.330    0.830    1.330
 xc_pw_divergence                    15 10.0    0.000    0.001    1.005    1.320
 xc_rho_set_and_dset_create          15 10.0    0.016    0.022    1.028    1.263
 prepare_gapw_den                    15  8.0    0.000    0.000    1.080    1.091
 rs_pw_transfer_RS2PW_250            31 10.0    0.404    0.508    0.950    1.051
 mp_waitany                        2684 11.5    0.744    0.992    0.744    0.992
 yz_to_x                            123 14.1    0.086    0.135    0.620    0.973
 init_scf_loop                        2  4.0    0.000    0.002    0.921    0.921
 potential_pw2rs                     15 10.0    0.001    0.001    0.885    0.886
 rs_pw_transfer_PW2RS_250            30 11.0    0.398    0.476    0.741    0.787
 mp_sum_d                           829  5.2    0.645    0.750    0.645    0.750
 mp_alltoall_d11v                   397 11.4    0.622    0.682    0.622    0.682
 rs_gather_matrices                  15 10.0    0.000    0.001    0.612    0.672
 grid_integrate_task_list            15 10.0    0.060    0.671    0.060    0.671
 integrate_vhg0_rspace               15  8.0    0.053    0.071    0.647    0.655
 grid_collocate_task_list            16  7.0    0.226    0.651    0.226    0.651
 put_rho0_on_grid                    15  9.0    0.010    0.013    0.597    0.608
 xc_functional_eval                  45 10.8    0.000    0.001    0.339    0.575
 pbe_lda_eval                        45 11.8    0.339    0.574    0.339    0.574
 calculate_vxc_atom                  15  8.0    0.010    0.062    0.503    0.503
 mp_waitall_1                     24296 13.8    0.352    0.486    0.352    0.486
 x_to_yz                            121 14.6    0.105    0.146    0.398    0.477
 calculate_rho_atom                  30  9.0    0.188    0.429    0.188    0.429
 gaVxcgb_GC                          15  9.0    0.020    0.411    0.020    0.411
 dbcsr_multiply_generic             324 10.0    0.009    0.010    0.263    0.268
 qs_scf_new_mos                      15  5.0    0.000    0.000    0.265    0.266
 qs_scf_loop_do_ot                   15  6.0    0.000    0.000    0.265    0.266
 ot_scf_mini                         15  7.0    0.000    0.000    0.252    0.252
 pw_gather_p                        139 12.8    0.190    0.246    0.190    0.246
 mp_sum_dv                          226 12.6    0.200    0.237    0.200    0.237
 rs_pw_transfer_PW2RS_90             15 12.0    0.043    0.052    0.200    0.230
 pw_scatter_p                       136 13.6    0.196    0.214    0.196    0.214
 mp_sum_dm                          235  7.6    0.148    0.196    0.148    0.196
 rs_grid_zero                        60 10.8    0.162    0.187    0.162    0.187
 -------------------------------------------------------------------------------

 The number of warnings for this run is : 0
 
 -------------------------------------------------------------------------------
  **** **** ******  **  PROGRAM ENDED AT                 2022-05-09 20:42:24.669
 ***** ** ***  *** **   PROGRAM RAN ON                                   tcopt10
 **    ****   ******    PROGRAM RAN BY                                    hutter
 ***** **    ** ** **   PROGRAM PROCESS ID                                 48601
  **** **  *******  **  PROGRAM STOPPED IN /data/hutter/GITHUB/BASIS/scMOLOPT/PB
                                           E/hbcnof
