 DBCSR| CPU Multiplication driver                                           XSMM
 DBCSR| Multrec recursion limit                                              512
 DBCSR| Multiplication stack size                                           1000
 DBCSR| Maximum elements for images                                    UNLIMITED
 DBCSR| Multiplicative factor virtual images                                   1
 DBCSR| Use multiplication densification                                       T
 DBCSR| Multiplication size stacks                                             3
 DBCSR| Use memory pool for CPU allocation                                     F
 DBCSR| Number of 3D layers                                               SINGLE
 DBCSR| Use MPI memory allocation                                              F
 DBCSR| Use RMA algorithm                                                      F
 DBCSR| Use Communication thread                                               T
 DBCSR| Communication thread load                                             87
 DBCSR| MPI: My node id                                                        0
 DBCSR| MPI: Number of nodes                                                  36
 DBCSR| OMP: Current number of threads                                         1
 DBCSR| OMP: Max number of threads                                             1
 DBCSR| Split modifier for TAS multiplication algorithm                  1.0E+00


  **** **** ******  **  PROGRAM STARTED AT               2022-05-09 20:43:41.388
 ***** ** ***  *** **   PROGRAM STARTED ON                               tcopt10
 **    ****   ******    PROGRAM STARTED BY                                hutter
 ***** **    ** ** **   PROGRAM PROCESS ID                                 49292
  **** **  *******  **  PROGRAM STARTED IN /data/hutter/GITHUB/BASIS/scMOLOPT/PB
                                           E/hbcnof

 CP2K| version string:                   CP2K version 10.0 (Development Version)
 CP2K| source code revision number:                                  git:57d9aec
 CP2K| cp2kflags: omp libint fftw3 libxc elpa parallel mpi3 scalapack cosma xsmm
 CP2K|             spglib sirius libvori libbqb
 CP2K| is freely available from                            https://www.cp2k.org/
 CP2K| Program compiled at                      Fri 06 May 2022 02:09:00 PM CEST
 CP2K| Program compiled on                                               tcopt10
 CP2K| Program compiled for                                                local
 CP2K| Data directory path                   /data/hutter/GITHUB/TDLRI/cp2k/data
 CP2K| Input file name                                                CO-ref.inp

 GLOBAL| Force Environment number                                              1
 GLOBAL| Basis set file name                                        ../def2QZVPP
 GLOBAL| Potential file name                                        ../POTENTIAL
 GLOBAL| MM Potential file name                                     MM_POTENTIAL
 GLOBAL| Coordinate file name                                      __STD_INPUT__
 GLOBAL| Method name                                                        CP2K
 GLOBAL| Project name                                                      refCO
 GLOBAL| Run type                                                         ENERGY
 GLOBAL| FFT library                                                       FFTW3
 GLOBAL| Diagonalization library                                       ScaLAPACK
 GLOBAL| Orthonormality check for eigenvectors                          DISABLED
 GLOBAL| Matrix multiplication library                                     COSMA
 GLOBAL| All-to-all communication in single precision                          F
 GLOBAL| FFTs using library dependent lengths                                  F
 GLOBAL| Grid backend                                                       AUTO
 GLOBAL| Global print level                                                  LOW
 GLOBAL| MPI I/O enabled                                                       T
 GLOBAL| Total number of message passing processes                            36
 GLOBAL| Number of threads for this process                                    1
 GLOBAL| This output is from process                                           0
 GLOBAL| Stack size for threads created by OpenMP (OMP_STACKSIZE)        default
 GLOBAL| CPU model name                          AMD EPYC 7401 24-Core Processor
 GLOBAL| CPUID                                                              1002

 MEMORY| system memory details [Kb]
 MEMORY|                        rank 0           min           max       average
 MEMORY| MemTotal            263969136     263969136     263969136     263969136
 MEMORY| MemFree             245268628     245268628     245268628     245268628
 MEMORY| Buffers                   136           136           136           136
 MEMORY| Cached               12534932      12534932      12534932      12534932
 MEMORY| Slab                  1356100       1356100       1356100       1356100
 MEMORY| SReclaimable           818756        818756        818756        818756
 MEMORY| MemLikelyFree       258622452     258622452     258622452     258622452


 GENERATE|  Preliminary Number of Bonds generated:                             0
 GENERATE|  Achieved consistency in connectivity generation.

 *******************************************************************************
 *******************************************************************************
 **                                                                           **
 **     #####                         ##              ##                      **
 **    ##   ##            ##          ##              ##                      **
 **   ##     ##                       ##            ######                    **
 **   ##     ##  ##   ##  ##   #####  ##  ##   ####   ##    #####    #####    **
 **   ##     ##  ##   ##  ##  ##      ## ##   ##      ##   ##   ##  ##   ##   **
 **   ##  ## ##  ##   ##  ##  ##      ####     ###    ##   ######   ######    **
 **    ##  ###   ##   ##  ##  ##      ## ##      ##   ##   ##       ##        **
 **     #######   #####   ##   #####  ##  ##  ####    ##    #####   ##        **
 **           ##                                                    ##        **
 **                                                                           **
 **                                                ... make the atoms dance   **
 **                                                                           **
 **            Copyright (C) by CP2K developers group (2000-2022)             **
 **                      J. Chem. Phys. 152, 194103 (2020)                    **
 **                                                                           **
 *******************************************************************************


 TOTAL NUMBERS AND MAXIMUM NUMBERS

  Total number of            - Atomic kinds:                                   2
                             - Atoms:                                          2
                             - Shell sets:                                    34
                             - Shells:                                        34
                             - Primitive Cartesian functions:                 58
                             - Cartesian basis functions:                    144
                             - Spherical basis functions:                    114

  Maximum angular momentum of the orbital basis functions:                     4


 SCF PARAMETERS         Density guess:                                    ATOMIC
                        --------------------------------------------------------
                        max_scf:                                              10
                        max_scf_history:                                       0
                        max_diis:                                              4
                        --------------------------------------------------------
                        eps_scf:                                        1.00E-07
                        eps_scf_history:                                0.00E+00
                        eps_diis:                                       1.00E-01
                        eps_eigval:                                     1.00E-05
                        --------------------------------------------------------
                        level_shift [a.u.]:                                 0.00
                        --------------------------------------------------------
                        Outer loop SCF in use 
                        No variables optimised in outer loop
                        eps_scf                                         1.00E-07
                        max_scf                                               10
                        No outer loop optimization
                        step_size                                       5.00E-01

 Number of electrons:                                                         14
 Number of occupied orbitals:                                                  7
 Number of molecular orbitals:                                                 7

 Number of orbital functions:                                                114
 Number of independent orbital functions:                                    114

 Extrapolation method: initial_guess


 SCF WAVEFUNCTION OPTIMIZATION

  ----------------------------------- OT ---------------------------------------
  Minimizer      : DIIS                : direct inversion
                                         in the iterative subspace
                                         using   7 DIIS vectors
                                         safer DIIS on
  Preconditioner : FULL_ALL            : diagonalization, state selective
  Precond_solver : DEFAULT
  stepsize       :    0.15000000                  energy_gap     :    0.08000000
  eps_taylor     :   0.10000E-15                  max_taylor     :             4
  ----------------------------------- OT ---------------------------------------

  Step     Update method      Time    Convergence         Total energy    Change
  ------------------------------------------------------------------------------
     1 OT DIIS     0.15E+00    0.5     0.19274299      -109.2456524038 -1.09E+02
     2 OT DIIS     0.15E+00    0.6     0.06782733      -112.2470515206 -3.00E+00
     3 OT DIIS     0.15E+00    0.6     0.01795303      -112.6563005381 -4.09E-01
     4 OT DIIS     0.15E+00    0.6     0.01536182      -112.6912042698 -3.49E-02
     5 OT DIIS     0.15E+00    0.6     0.01459341      -112.7190895803 -2.79E-02
     6 OT SD       0.15E+00    0.6     0.01486254      -112.7377764515 -1.87E-02
     7 OT SD       0.15E+00    0.6     0.01528158      -112.7644098981 -2.66E-02
     8 OT SD       0.15E+00    0.6     0.01593293      -112.7929175654 -2.85E-02
     9 OT SD       0.15E+00    0.6     0.01658750      -112.8239236089 -3.10E-02
    10 OT DIIS     0.15E+00    0.6     0.01714951      -112.8574262914 -3.35E-02

  Leaving inner SCF loop after reaching    10 steps.


  Electronic density on regular grids:         -9.8207031205        4.1792968795
  Core density on regular grids:               14.0000000000        0.0000000000
  Hard and soft densities (Lebedev):          -26.7542362420      -22.5749425749
  Total Rho_soft + Rho1_hard - Rho1_soft      -13.9999967876
  Total charge density (r-space):               0.0000032124
  Total Rho_soft + Rho0_soft (g-space):         0.0000031141

  Overlap energy of the core charge distribution:               0.00001010482972
  Self energy of the core charge distribution:               -102.02286684691975
  Core Hamiltonian energy:                                    -13.79030469695337
  Hartree energy:                                              20.57293682665996
  Exchange-correlation energy:                                 -4.83498270168740

  GAPW| Exc from hard and soft atomic rho1:                    -8.88449847013078
  GAPW| local Eh = 1 center integrals:                         -3.89772050717149

  Total energy:                                              -112.85742629137313

  outer SCF iter =    1 RMS gradient =   0.17E-01 energy =       -112.8574262914

  ----------------------------------- OT ---------------------------------------
  Minimizer      : DIIS                : direct inversion
                                         in the iterative subspace
                                         using   7 DIIS vectors
                                         safer DIIS on
  Preconditioner : FULL_ALL            : diagonalization, state selective
  Precond_solver : DEFAULT
  stepsize       :    0.15000000                  energy_gap     :    0.08000000
  eps_taylor     :   0.10000E-15                  max_taylor     :             4
  ----------------------------------- OT ---------------------------------------

  Step     Update method      Time    Convergence         Total energy    Change
  ------------------------------------------------------------------------------
     1 OT DIIS     0.15E+00    1.1     0.06606205      -112.8098650844  4.76E-02
     2 OT DIIS     0.15E+00    0.5     0.06133540      -113.1437952663 -3.34E-01
     3 OT DIIS     0.15E+00    0.6     0.04205125      -113.2075100039 -6.37E-02
     4 OT DIIS     0.15E+00    0.5     0.03228100      -113.2191708883 -1.17E-02
     5 OT DIIS     0.15E+00    0.5     0.00816643      -113.2387593530 -1.96E-02
     6 OT DIIS     0.15E+00    0.5     0.00098886      -113.2409537620 -2.19E-03
     7 OT DIIS     0.15E+00    0.6     0.00088337      -113.2409936302 -3.99E-05
     8 OT DIIS     0.15E+00    0.6     0.00016685      -113.2410202942 -2.67E-05
     9 OT DIIS     0.15E+00    0.5     0.00003417      -113.2410219847 -1.69E-06
    10 OT DIIS     0.15E+00    0.5     0.00000803      -113.2410221016 -1.17E-07

  Leaving inner SCF loop after reaching    10 steps.


  Electronic density on regular grids:         -9.8344810828        4.1655189172
  Core density on regular grids:               14.0000000000        0.0000000000
  Hard and soft densities (Lebedev):          -27.7590619481      -23.5935463266
  Total Rho_soft + Rho1_hard - Rho1_soft      -13.9999967043
  Total charge density (r-space):               0.0000032957
  Total Rho_soft + Rho0_soft (g-space):         0.0000031973

  Overlap energy of the core charge distribution:               0.00001010482972
  Self energy of the core charge distribution:               -102.02286684691975
  Core Hamiltonian energy:                                    -14.06453986293607
  Hartree energy:                                              20.51718844170757
  Exchange-correlation energy:                                 -4.86048315617958

  GAPW| Exc from hard and soft atomic rho1:                    -8.88549093727972
  GAPW| local Eh = 1 center integrals:                         -3.92483984481203

  Total energy:                                              -113.24102210158986

  outer SCF iter =    2 RMS gradient =   0.80E-05 energy =       -113.2410221016

  ----------------------------------- OT ---------------------------------------
  Minimizer      : DIIS                : direct inversion
                                         in the iterative subspace
                                         using   7 DIIS vectors
                                         safer DIIS on
  Preconditioner : FULL_ALL            : diagonalization, state selective
  Precond_solver : DEFAULT
  stepsize       :    0.15000000                  energy_gap     :    0.08000000
  eps_taylor     :   0.10000E-15                  max_taylor     :             4
  ----------------------------------- OT ---------------------------------------

  Step     Update method      Time    Convergence         Total energy    Change
  ------------------------------------------------------------------------------
     1 OT DIIS     0.15E+00    1.1     0.00000322      -113.2410221081 -6.48E-09
     2 OT DIIS     0.15E+00    0.6     0.00000355      -113.2410221083 -2.80E-10
     3 OT DIIS     0.15E+00    0.5     0.00000094      -113.2410221087 -3.01E-10
     4 OT DIIS     0.15E+00    0.5     0.00000007      -113.2410221087 -4.78E-11

  *** SCF run converged in     4 steps ***


  Electronic density on regular grids:         -9.8344761084        4.1655238916
  Core density on regular grids:               14.0000000000        0.0000000000
  Hard and soft densities (Lebedev):          -27.7591157938      -23.5935951981
  Total Rho_soft + Rho1_hard - Rho1_soft      -13.9999967041
  Total charge density (r-space):               0.0000032959
  Total Rho_soft + Rho0_soft (g-space):         0.0000031974

  Overlap energy of the core charge distribution:               0.00001010482972
  Self energy of the core charge distribution:               -102.02286684691975
  Core Hamiltonian energy:                                    -14.06446516810446
  Hartree energy:                                              20.51712528819644
  Exchange-correlation energy:                                 -4.86049342072840

  GAPW| Exc from hard and soft atomic rho1:                    -8.88550059445319
  GAPW| local Eh = 1 center integrals:                         -3.92483147151844

  Total energy:                                              -113.24102210869810

  outer SCF iter =    3 RMS gradient =   0.69E-07 energy =       -113.2410221087
  outer SCF loop converged in   3 iterations or   24 steps


 ENERGY| Total FORCE_EVAL ( QS ) energy [a.u.]:             -113.241022108698104

 -------------------------------------------------------------------------------
 -                                                                             -
 -                                DBCSR STATISTICS                             -
 -                                                                             -
 -------------------------------------------------------------------------------
 COUNTER                                    TOTAL       BLAS       SMM       ACC
 flops     7 x     7 x     7               117992       0.0%    100.0%      0.0%
 flops     7 x     7 x    57              1106028       0.0%    100.0%      0.0%
 flops    57 x     7 x     7              1374156       0.0%    100.0%      0.0%
 flops    57 x    57 x     7              3411450       0.0%    100.0%      0.0%
 flops    57 x     7 x    57             22197168       0.0%    100.0%      0.0%
 flops inhomo. stacks                           0       0.0%      0.0%      0.0%
 flops total                        28.206794E+06       0.0%    100.0%      0.0%
 flops max/rank                     14.146832E+06       0.0%    100.0%      0.0%
 matmuls inhomo. stacks                         0       0.0%      0.0%      0.0%
 matmuls total                               1179       0.0%    100.0%      0.0%
 number of processed stacks                  1179       0.0%    100.0%      0.0%
 average stack size                                     0.0       1.0       0.0
 marketing flops                    29.377452E+06
 -------------------------------------------------------------------------------
 # multiplications                            544
 max memory usage/rank             312.016896E+06
 # max total images/rank                        1
 # max 3D layers                                1
 # MPI messages exchanged                  195840
 MPI messages size (bytes):
  total size                        80.072360E+06
  min size                           0.000000E+00
  max size                          25.992000E+03
  average size                     408.866211E+00
 MPI breakdown and total messages size (bytes):
             size <=      128              186135                        0
       128 < size <=     8192                7265                 16651880
      8192 < size <=    32768                2440                 63420480
     32768 < size <=   131072                   0                        0
    131072 < size <=  4194304                   0                        0
   4194304 < size <= 16777216                   0                        0
  16777216 < size                               0                        0
 -------------------------------------------------------------------------------
 -                                                                             -
 -                      DBCSR MESSAGE PASSING PERFORMANCE                      -
 -                                                                             -
 -------------------------------------------------------------------------------
 ROUTINE             CALLS      AVE VOLUME [Bytes]
 MP_Bcast                6                     12.
 MP_Allreduce         2863                      8.
 MP_Alltoall          2316                   2611.
 MP_ISend            13044                    756.
 MP_IRecv            13044                    377.
 -------------------------------------------------------------------------------

 -------------------------------------------------------------------------------
 -                                                                             -
 -                                GRID STATISTICS                              -
 -                                                                             -
 -------------------------------------------------------------------------------
 LP    KERNEL             BACKEND                              COUNT     PERCENT
 2     collocate ortho    REF                                   3750      10.59%
 2     integrate ortho    REF                                   3600      10.17%
 3     collocate ortho    REF                                   3400       9.60%
 3     integrate ortho    REF                                   3264       9.22%
 1     collocate ortho    REF                                   2825       7.98%
 1     integrate ortho    REF                                   2712       7.66%
 4     collocate ortho    REF                                   2550       7.20%
 4     integrate ortho    REF                                   2448       6.91%
 2     collocate general  REF                                   1728       4.88%
 2     integrate general  REF                                   1728       4.88%
 5     collocate ortho    REF                                   1575       4.45%
 5     integrate ortho    REF                                   1512       4.27%
 0     collocate ortho    REF                                   1075       3.04%
 0     integrate ortho    REF                                   1032       2.91%
 6     collocate ortho    REF                                    750       2.12%
 6     integrate ortho    REF                                    720       2.03%
 7     collocate ortho    REF                                    300       0.85%
 7     integrate ortho    REF                                    288       0.81%
 8     collocate ortho    REF                                     75       0.21%
 8     integrate ortho    REF                                     72       0.20%
 -------------------------------------------------------------------------------

 MEMORY| Estimated peak process memory [MiB]                                 298

 -------------------------------------------------------------------------------
 -                                                                             -
 -                         MESSAGE PASSING PERFORMANCE                         -
 -                                                                             -
 -------------------------------------------------------------------------------

 ROUTINE             CALLS      AVE VOLUME [Bytes]
 MP_Group                4
 MP_Bcast              400                 389878.
 MP_Allreduce         1446                  51594.
 MP_Sync                62
 MP_Alltoall           548                3794144.
 MP_ISendRecv         5145                  92352.
 MP_Wait              9898
 MP_comm_split          29
 MP_ISend             4268                 224122.
 MP_IRecv             4268                 224147.
 MP_Recv                 6                   1824.
 -------------------------------------------------------------------------------


 -------------------------------------------------------------------------------
 -                                                                             -
 -                           R E F E R E N C E S                               -
 -                                                                             -
 -------------------------------------------------------------------------------
 
 CP2K version 10.0 (Development Version), the CP2K developers group (2022).
 CP2K is freely available from https://www.cp2k.org/ .

 Kuehne,Thomas D.; Iannuzzi,Marcella; Del Ben,Mauro;
 Rybkin,Vladimir V.; Seewald,Patrick; Stein,Frederick; Laino,Teodoro;
 Khaliullin,Rustam Z.; Schuett,Ole; Schiffmann,Florian; Golze,Dorothea;
 Wilhelm,Jan; Chulkov,Sergey; Bani-Hashemian,Mohammad Hossein;
 Weber,Valery; Borstnik,Urban; Taillefumier,Mathieu;
 Jakobovits,Alice Shoshana; Lazzaro,Alfio; Pabst,Hans; Mueller,Tiziano;
 Schade,Robert; Guidon,Manuel; Andermatt,Samuel; Holmberg,Nico;
 Schenter,Gregory K.; Hehn,Anna; Bussy,Augustin; Belleflamme,Fabian;
 Tabacchi,Gloria; Gloess,Andreas; Lass,Michael; Bethune,Iain;
 Mundy,Christopher J.; Plessl,Christian; Watkins,Matt;
 VandeVondele,Joost; Krack,Matthias; Hutter,Juerg. 
 The Journal of Chemical Physics, 152 (19), (2020). 
 CP2K: An electronic structure and molecular dynamics software package -
 Quickstep: Efficient and accurate electronic structure calculations.
 https://doi.org/10.1063/5.0007045

 Schuett, Ole; Messmer, Peter; Hutter, Juerg; VandeVondele, Joost. 
 Electronic Structure Calculations on Graphics Processing Units, John
 Wiley & Sons, Ltd, 173-190 (2016). 
 GPU-Accelerated Sparse Matrix-Matrix Multiplication for
 Linear Scaling Density Functional Theory.
 https://doi.org/10.1002/9781118670712.ch8

 Heinecke, A; Henry, G; Hutchinson, M; Pabst, H. 
 Proceedings of Intl. Supercomputing Conference, 981-991 (2016). 
 LIBXSMM: Accelerating Small Matrix Multiplications
 by Runtime Code Generation.
 https://doi.org/10.1109/SC.2016.83

 Borstnik, U; VandeVondele, J; Weber, V; Hutter, J. 
 PARALLEL COMPUTING, 40 (5-6), 47-58 (2014). 
 Sparse matrix multiplication: The distributed block-compressed sparse
 row library.
 https://doi.org/10.1016/j.parco.2014.03.012

 Hutter, J; Iannuzzi, M; Schiffmann, F; VandeVondele, J. 
 WIREs Comput Mol Sci., 4 (1), 15-25 (2014). 
 CP2K: atomistic simulations of condensed matter systems.
 https://doi.org/10.1002/wcms.1159

 Frigo, M; Johnson, SG. 
 PROCEEDINGS OF THE IEEE, 93 (2), 216-231 (2005). 
 The design and implementation of FFTW3.
 https://doi.org/10.1109/JPROC.2004.840301

 VandeVondele, J; Hutter, J. 
 JOURNAL OF CHEMICAL PHYSICS, 118 (10), 4365-4369 (2003). 
 An efficient orbital transformation method for electronic structure
 calculations.
 https://doi.org/10.1063/1.1543154

 Lippert, G; Hutter, J; Parrinello, M. 
 THEORETICAL CHEMISTRY ACCOUNTS, 103 (2), 124-140 (1999). 
 The Gaussian and augmented-plane-wave density functional method for ab
 initio molecular dynamics simulations.
 https://doi.org/10.1007/s002140050523

 Krack, M; Parrinello, M. 
 PHYSICAL CHEMISTRY CHEMICAL PHYSICS, 2 (10), 2105-2112 (2000). 
 All-electron ab-initio molecular dynamics.
 https://doi.org/10.1039/b001167n

 Perdew, JP; Burke, K; Ernzerhof, M. 
 PHYSICAL REVIEW LETTERS, 77 (18), 3865-3868 (1996). 
 Generalized gradient approximation made simple.
 https://doi.org/10.1103/PhysRevLett.77.3865


 -------------------------------------------------------------------------------
 -                                                                             -
 -                                T I M I N G                                  -
 -                                                                             -
 -------------------------------------------------------------------------------
 SUBROUTINE                       CALLS  ASD         SELF TIME        TOTAL TIME
                                MAXIMUM       AVERAGE  MAXIMUM  AVERAGE  MAXIMUM
 CP2K                                 1  1.0    0.006    0.029   13.640   13.641
 qs_energies                          1  2.0    0.000    0.000   13.457   13.457
 scf_env_do_scf                       1  3.0    0.000    0.000   13.333   13.333
 scf_env_do_scf_inner_loop           24  4.0    0.000    0.002   11.897   11.897
 qs_ks_update_qs_env                 27  5.0    0.000    0.000   10.754   10.755
 rebuild_ks_matrix                   24  6.0    0.000    0.000   10.750   10.751
 qs_ks_build_kohn_sham_matrix        24  7.0    0.005    0.006   10.750   10.751
 pw_transfer                        509 10.1    0.047    0.056    4.232    4.694
 fft_wrap_pw1pw2                    437 11.3    0.005    0.006    4.152    4.619
 fft_wrap_pw1pw2_250                290 12.6    0.252    0.299    3.950    4.382
 fft3d_ps                           437 13.3    1.603    1.935    3.265    3.828
 qs_vxc_create                       24  8.0    0.001    0.001    3.279    3.279
 xc_vxc_pw_create                    24  9.0    0.025    0.028    3.278    3.278
 rs_pw_transfer                     244  9.5    0.005    0.006    3.119    3.258
 xc_pw_derive                       144 11.0    0.001    0.002    2.337    2.764
 prepare_gapw_den                    24  8.0    0.001    0.001    2.352    2.375
 mp_alltoall_z22v                   437 15.3    1.330    2.145    1.330    2.145
 qs_rho_update_rho                   25  5.0    0.000    0.001    2.125    2.128
 mp_sum_d                          1058  6.4    1.915    2.071    1.915    2.071
 calculate_rho_elec                  25  6.0    0.013    0.015    2.069    2.069
 xc_pw_divergence                    24 10.0    0.001    0.001    1.613    2.039
 xc_rho_set_and_dset_create          24 10.0    0.026    0.030    1.579    1.952
 density_rs2pw                       25  7.0    0.001    0.002    1.690    1.798
 sum_up_and_integrate                24  8.0    0.009    0.013    1.757    1.759
 integrate_v_rspace                  24  9.0    0.001    0.001    1.748    1.752
 yz_to_x                            195 14.1    0.139    0.220    0.992    1.593
 calculate_vxc_atom                  24  8.0    0.012    0.189    1.591    1.591
 potential_pw2rs                     24 10.0    0.002    0.002    1.440    1.443
 init_scf_loop                        3  4.0    0.000    0.000    1.435    1.435
 gaVxcgb_GC                          48  9.0    0.036    1.314    0.036    1.314
 rs_pw_transfer_RS2PW_250            49 10.0    0.660    0.808    1.161    1.272
 calculate_rho_atom                  48  9.0    0.486    1.256    0.486    1.256
 rs_pw_transfer_PW2RS_250            48 11.0    0.641    0.769    1.187    1.256
 mp_waitany                        4268 11.5    0.816    1.125    0.816    1.125
 integrate_vhg0_rspace               24  8.0    0.085    0.122    1.012    1.029
 put_rho0_on_grid                    24  9.0    0.015    0.017    0.958    0.981
 xc_functional_eval                 120 10.9    0.000    0.001    0.465    0.796
 pbe_lda_eval                       120 11.9    0.465    0.796    0.465    0.796
 x_to_yz                            193 14.6    0.165    0.230    0.641    0.782
 mp_sum_dv                          385 12.7    0.687    0.761    0.687    0.761
 mp_waitall_1                     40446 13.8    0.552    0.683    0.552    0.683
 qs_scf_new_mos                      24  5.0    0.000    0.000    0.452    0.453
 qs_scf_loop_do_ot                   24  6.0    0.000    0.000    0.452    0.453
 grid_collocate_task_list            25  7.0    0.318    0.446    0.318    0.446
 ot_scf_mini                         24  7.0    0.000    0.000    0.432    0.433
 dbcsr_multiply_generic             544 10.0    0.015    0.015    0.427    0.430
 pw_gather_p                        220 12.9    0.306    0.403    0.306    0.403
 rs_pw_transfer_PW2RS_90             24 12.0    0.072    0.084    0.328    0.378
 pw_scatter_p                       217 13.7    0.313    0.340    0.313    0.340
 mp_alltoall_d11v                   625 11.5    0.279    0.324    0.279    0.324
 rs_gather_matrices                  24 10.0    0.000    0.001    0.264    0.308
 grid_integrate_task_list            24 10.0    0.044    0.306    0.044    0.306
 calculate_rho0_atom                 48  9.0    0.222    0.302    0.222    0.302
 rs_grid_zero                        96 10.8    0.257    0.296    0.257    0.296
 -------------------------------------------------------------------------------

 The number of warnings for this run is : 0
 
 -------------------------------------------------------------------------------
  **** **** ******  **  PROGRAM ENDED AT                 2022-05-09 20:43:55.418
 ***** ** ***  *** **   PROGRAM RAN ON                                   tcopt10
 **    ****   ******    PROGRAM RAN BY                                    hutter
 ***** **    ** ** **   PROGRAM PROCESS ID                                 49292
  **** **  *******  **  PROGRAM STOPPED IN /data/hutter/GITHUB/BASIS/scMOLOPT/PB
                                           E/hbcnof
