 DBCSR| CPU Multiplication driver                                           XSMM
 DBCSR| Multrec recursion limit                                              512
 DBCSR| Multiplication stack size                                           1000
 DBCSR| Maximum elements for images                                    UNLIMITED
 DBCSR| Multiplicative factor virtual images                                   1
 DBCSR| Use multiplication densification                                       T
 DBCSR| Multiplication size stacks                                             3
 DBCSR| Use memory pool for CPU allocation                                     F
 DBCSR| Number of 3D layers                                               SINGLE
 DBCSR| Use MPI memory allocation                                              F
 DBCSR| Use RMA algorithm                                                      F
 DBCSR| Use Communication thread                                               T
 DBCSR| Communication thread load                                             87
 DBCSR| MPI: My node id                                                        0
 DBCSR| MPI: Number of nodes                                                  36
 DBCSR| OMP: Current number of threads                                         1
 DBCSR| OMP: Max number of threads                                             1
 DBCSR| Split modifier for TAS multiplication algorithm                  1.0E+00


  **** **** ******  **  PROGRAM STARTED AT               2022-05-09 20:37:46.907
 ***** ** ***  *** **   PROGRAM STARTED ON                               tcopt10
 **    ****   ******    PROGRAM STARTED BY                                hutter
 ***** **    ** ** **   PROGRAM PROCESS ID                                 45821
  **** **  *******  **  PROGRAM STARTED IN /data/hutter/GITHUB/BASIS/scMOLOPT/PB
                                           E/hbcnof

 CP2K| version string:                   CP2K version 10.0 (Development Version)
 CP2K| source code revision number:                                  git:57d9aec
 CP2K| cp2kflags: omp libint fftw3 libxc elpa parallel mpi3 scalapack cosma xsmm
 CP2K|             spglib sirius libvori libbqb
 CP2K| is freely available from                            https://www.cp2k.org/
 CP2K| Program compiled at                      Fri 06 May 2022 02:09:00 PM CEST
 CP2K| Program compiled on                                               tcopt10
 CP2K| Program compiled for                                                local
 CP2K| Data directory path                   /data/hutter/GITHUB/TDLRI/cp2k/data
 CP2K| Input file name                                              H2CO-ref.inp

 GLOBAL| Force Environment number                                              1
 GLOBAL| Basis set file name                                        ../def2QZVPP
 GLOBAL| Potential file name                                        ../POTENTIAL
 GLOBAL| MM Potential file name                                     MM_POTENTIAL
 GLOBAL| Coordinate file name                                      __STD_INPUT__
 GLOBAL| Method name                                                        CP2K
 GLOBAL| Project name                                                    refH2CO
 GLOBAL| Run type                                                         ENERGY
 GLOBAL| FFT library                                                       FFTW3
 GLOBAL| Diagonalization library                                       ScaLAPACK
 GLOBAL| Orthonormality check for eigenvectors                          DISABLED
 GLOBAL| Matrix multiplication library                                     COSMA
 GLOBAL| All-to-all communication in single precision                          F
 GLOBAL| FFTs using library dependent lengths                                  F
 GLOBAL| Grid backend                                                       AUTO
 GLOBAL| Global print level                                                  LOW
 GLOBAL| MPI I/O enabled                                                       T
 GLOBAL| Total number of message passing processes                            36
 GLOBAL| Number of threads for this process                                    1
 GLOBAL| This output is from process                                           0
 GLOBAL| Stack size for threads created by OpenMP (OMP_STACKSIZE)        default
 GLOBAL| CPU model name                          AMD EPYC 7401 24-Core Processor
 GLOBAL| CPUID                                                              1002

 MEMORY| system memory details [Kb]
 MEMORY|                        rank 0           min           max       average
 MEMORY| MemTotal            263969136     263969136     263969136     263969136
 MEMORY| MemFree             245282564     245282564     245282564     245282564
 MEMORY| Buffers                   136           136           136           136
 MEMORY| Cached               12532980      12532980      12532980      12532980
 MEMORY| Slab                  1357628       1357628       1357628       1357628
 MEMORY| SReclaimable           821904        821904        821904        821904
 MEMORY| MemLikelyFree       258637584     258637584     258637584     258637584


 GENERATE|  Preliminary Number of Bonds generated:                             1
 GENERATE|  Achieved consistency in connectivity generation.
 GENERATE|  Number of Bonds generated:                                         1
 GENERATE|  Preliminary Number of Bends generated:                             0
 GENERATE|  Preliminary Number of Torsions generated:                          0

 *******************************************************************************
 *******************************************************************************
 **                                                                           **
 **     #####                         ##              ##                      **
 **    ##   ##            ##          ##              ##                      **
 **   ##     ##                       ##            ######                    **
 **   ##     ##  ##   ##  ##   #####  ##  ##   ####   ##    #####    #####    **
 **   ##     ##  ##   ##  ##  ##      ## ##   ##      ##   ##   ##  ##   ##   **
 **   ##  ## ##  ##   ##  ##  ##      ####     ###    ##   ######   ######    **
 **    ##  ###   ##   ##  ##  ##      ## ##      ##   ##   ##       ##        **
 **     #######   #####   ##   #####  ##  ##  ####    ##    #####   ##        **
 **           ##                                                    ##        **
 **                                                                           **
 **                                                ... make the atoms dance   **
 **                                                                           **
 **            Copyright (C) by CP2K developers group (2000-2022)             **
 **                      J. Chem. Phys. 152, 194103 (2020)                    **
 **                                                                           **
 *******************************************************************************


 TOTAL NUMBERS AND MAXIMUM NUMBERS

  Total number of            - Atomic kinds:                                   3
                             - Atoms:                                          4
                             - Shell sets:                                    54
                             - Shells:                                        54
                             - Primitive Cartesian functions:                 84
                             - Cartesian basis functions:                    214
                             - Spherical basis functions:                    174

  Maximum angular momentum of the orbital basis functions:                     4


 SCF PARAMETERS         Density guess:                                    ATOMIC
                        --------------------------------------------------------
                        max_scf:                                              10
                        max_scf_history:                                       0
                        max_diis:                                              4
                        --------------------------------------------------------
                        eps_scf:                                        1.00E-07
                        eps_scf_history:                                0.00E+00
                        eps_diis:                                       1.00E-01
                        eps_eigval:                                     1.00E-05
                        --------------------------------------------------------
                        level_shift [a.u.]:                                 0.00
                        --------------------------------------------------------
                        Outer loop SCF in use 
                        No variables optimised in outer loop
                        eps_scf                                         1.00E-07
                        max_scf                                               10
                        No outer loop optimization
                        step_size                                       5.00E-01

 Number of electrons:                                                         16
 Number of occupied orbitals:                                                  8
 Number of molecular orbitals:                                                 8

 Number of orbital functions:                                                174
 Number of independent orbital functions:                                    174

 Extrapolation method: initial_guess


 SCF WAVEFUNCTION OPTIMIZATION

  ----------------------------------- OT ---------------------------------------
  Minimizer      : DIIS                : direct inversion
                                         in the iterative subspace
                                         using   7 DIIS vectors
                                         safer DIIS on
  Preconditioner : FULL_ALL            : diagonalization, state selective
  Precond_solver : DEFAULT
  stepsize       :    0.15000000                  energy_gap     :    0.08000000
  eps_taylor     :   0.10000E-15                  max_taylor     :             4
  ----------------------------------- OT ---------------------------------------

  Step     Update method      Time    Convergence         Total energy    Change
  ------------------------------------------------------------------------------
     1 OT DIIS     0.15E+00    0.5     0.17061963      -108.5744729085 -1.09E+02
     2 OT DIIS     0.15E+00    0.6     0.07101603      -112.7623542232 -4.19E+00
     3 OT DIIS     0.15E+00    0.6     0.03218913      -113.6716879087 -9.09E-01
     4 OT DIIS     0.15E+00    0.6     0.02720337      -113.8810174794 -2.09E-01
     5 OT DIIS     0.15E+00    0.6     0.01725654      -114.1757141149 -2.95E-01
     6 OT DIIS     0.15E+00    0.6     0.01456307      -114.2704721656 -9.48E-02
     7 OT DIIS     0.15E+00    0.6     0.00837625      -114.3552038306 -8.47E-02
     8 OT DIIS     0.15E+00    0.6     0.00775349      -114.3805717328 -2.54E-02
     9 OT DIIS     0.15E+00    0.6     0.00448549      -114.4054819396 -2.49E-02
    10 OT DIIS     0.15E+00    0.6     0.00301080      -114.4155092955 -1.00E-02

  Leaving inner SCF loop after reaching    10 steps.


  Electronic density on regular grids:        -11.7454257842        4.2545742158
  Core density on regular grids:               16.0000000000       -0.0000000000
  Hard and soft densities (Lebedev):          -36.7330419654      -32.4784694863
  Total Rho_soft + Rho1_hard - Rho1_soft      -15.9999982633
  Total charge density (r-space):               0.0000017367
  Total Rho_soft + Rho0_soft (g-space):         0.0000016967

  Overlap energy of the core charge distribution:               0.00000253302989
  Self energy of the core charge distribution:               -104.84381476465852
  Core Hamiltonian energy:                                    -12.81938765526226
  Hartree energy:                                              32.25566721654771
  Exchange-correlation energy:                                 -5.60317272224145

  GAPW| Exc from hard and soft atomic rho1:                    -8.93567182697624
  GAPW| local Eh = 1 center integrals:                        -14.46913207590257

  Total energy:                                              -114.41550929546344

  outer SCF iter =    1 RMS gradient =   0.30E-02 energy =       -114.4155092955

  ----------------------------------- OT ---------------------------------------
  Minimizer      : DIIS                : direct inversion
                                         in the iterative subspace
                                         using   7 DIIS vectors
                                         safer DIIS on
  Preconditioner : FULL_ALL            : diagonalization, state selective
  Precond_solver : DEFAULT
  stepsize       :    0.15000000                  energy_gap     :    0.08000000
  eps_taylor     :   0.10000E-15                  max_taylor     :             4
  ----------------------------------- OT ---------------------------------------

  Step     Update method      Time    Convergence         Total energy    Change
  ------------------------------------------------------------------------------
     1 OT DIIS     0.15E+00    1.2     0.00607104      -114.4216978860 -6.19E-03
     2 OT DIIS     0.15E+00    0.6     0.00207507      -114.4267619536 -5.06E-03
     3 OT DIIS     0.15E+00    0.6     0.00126260      -114.4273729427 -6.11E-04
     4 OT DIIS     0.15E+00    0.6     0.00025639      -114.4274434400 -7.05E-05
     5 OT DIIS     0.15E+00    0.6     0.00004256      -114.4274507448 -7.30E-06
     6 OT DIIS     0.15E+00    0.6     0.00001277      -114.4274509231 -1.78E-07
     7 OT DIIS     0.15E+00    0.6     0.00000184      -114.4274509328 -9.69E-09
     8 OT DIIS     0.15E+00    0.6     0.00000063      -114.4274509333 -5.19E-10
     9 OT DIIS     0.15E+00    0.6     0.00000005      -114.4274509333 -2.98E-11

  *** SCF run converged in     9 steps ***


  Electronic density on regular grids:        -11.7419449771        4.2580550229
  Core density on regular grids:               16.0000000000       -0.0000000000
  Hard and soft densities (Lebedev):          -36.6602355563      -32.4021821306
  Total Rho_soft + Rho1_hard - Rho1_soft      -15.9999984028
  Total charge density (r-space):               0.0000015972
  Total Rho_soft + Rho0_soft (g-space):         0.0000015572

  Overlap energy of the core charge distribution:               0.00000253302989
  Self energy of the core charge distribution:               -104.84381476465852
  Core Hamiltonian energy:                                    -12.83339760623299
  Hartree energy:                                              32.25412937242751
  Exchange-correlation energy:                                 -5.60433145922936

  GAPW| Exc from hard and soft atomic rho1:                    -8.93821152911373
  GAPW| local Eh = 1 center integrals:                        -14.46182747955411

  Total energy:                                              -114.42745093333130

  outer SCF iter =    2 RMS gradient =   0.48E-07 energy =       -114.4274509333
  outer SCF loop converged in   2 iterations or   19 steps


 ENERGY| Total FORCE_EVAL ( QS ) energy [a.u.]:             -114.427450933331301

 -------------------------------------------------------------------------------
 -                                                                             -
 -                                DBCSR STATISTICS                             -
 -                                                                             -
 -------------------------------------------------------------------------------
 COUNTER                                    TOTAL       BLAS       SMM       ACC
 flops     8 x     8 x     8               169984       0.0%    100.0%      0.0%
 flops     8 x     8 x    30               599040       0.0%    100.0%      0.0%
 flops    30 x     8 x     8               744960       0.0%    100.0%      0.0%
 flops    30 x    30 x     8               864000       0.0%    100.0%      0.0%
 flops    30 x    57 x     8              1094400       0.0%    100.0%      0.0%
 flops    57 x    30 x     8              1094400       0.0%    100.0%      0.0%
 flops     8 x     8 x    57              1138176       0.0%    100.0%      0.0%
 flops    57 x     8 x     8              1415424       0.0%    100.0%      0.0%
 flops    57 x    57 x     8              3119040       0.0%    100.0%      0.0%
 flops    30 x     8 x    30              5414400       0.0%    100.0%      0.0%
 flops    57 x     8 x    30             10287360       0.0%    100.0%      0.0%
 flops    30 x     8 x    57             10287360       0.0%    100.0%      0.0%
 flops    57 x     8 x    57             19545984       0.0%    100.0%      0.0%
 flops inhomo. stacks                           0       0.0%      0.0%      0.0%
 flops total                        55.774528E+06       0.0%    100.0%      0.0%
 flops max/rank                     18.571264E+06       0.0%    100.0%      0.0%
 matmuls inhomo. stacks                         0       0.0%      0.0%      0.0%
 matmuls total                               2570       0.0%    100.0%      0.0%
 number of processed stacks                  2570       0.0%    100.0%      0.0%
 average stack size                                     0.0       1.0       0.0
 marketing flops                    59.335608E+06
 -------------------------------------------------------------------------------
 # multiplications                            457
 max memory usage/rank             315.985920E+06
 # max total images/rank                        1
 # max 3D layers                                1
 # MPI messages exchanged                  164520
 MPI messages size (bytes):
  total size                       136.484160E+06
  min size                           0.000000E+00
  max size                          25.992000E+03
  average size                     829.590088E+00
 MPI breakdown and total messages size (bytes):
             size <=      128              147115                        0
       128 < size <=     8192               11765                 36182400
      8192 < size <=    32768                5640                100301760
     32768 < size <=   131072                   0                        0
    131072 < size <=  4194304                   0                        0
   4194304 < size <= 16777216                   0                        0
  16777216 < size                               0                        0
 -------------------------------------------------------------------------------
 -                                                                             -
 -                      DBCSR MESSAGE PASSING PERFORMANCE                      -
 -                                                                             -
 -------------------------------------------------------------------------------
 ROUTINE             CALLS      AVE VOLUME [Bytes]
 MP_Bcast               14                     12.
 MP_Allreduce         2430                      8.
 MP_Alltoall          1855                   2515.
 MP_ISend            10960                   1057.
 MP_IRecv            10960                    685.
 -------------------------------------------------------------------------------

 -------------------------------------------------------------------------------
 -                                                                             -
 -                                GRID STATISTICS                              -
 -                                                                             -
 -------------------------------------------------------------------------------
 LP    KERNEL             BACKEND                              COUNT     PERCENT
 2     collocate ortho    REF                                   7300      10.80%
 2     integrate ortho    REF                                   6935      10.26%
 1     collocate ortho    REF                                   6660       9.85%
 1     integrate ortho    REF                                   6327       9.36%
 3     collocate ortho    REF                                   6300       9.32%
 3     integrate ortho    REF                                   5985       8.85%
 4     collocate ortho    REF                                   4280       6.33%
 4     integrate ortho    REF                                   4066       6.01%
 0     collocate ortho    REF                                   3660       5.41%
 0     integrate ortho    REF                                   3477       5.14%
 2     collocate general  REF                                   2736       4.05%
 2     integrate general  REF                                   2736       4.05%
 5     collocate ortho    REF                                   2300       3.40%
 5     integrate ortho    REF                                   2185       3.23%
 6     collocate ortho    REF                                    980       1.45%
 6     integrate ortho    REF                                    931       1.38%
 7     collocate ortho    REF                                    320       0.47%
 7     integrate ortho    REF                                    304       0.45%
 8     collocate ortho    REF                                     60       0.09%
 8     integrate ortho    REF                                     57       0.08%
 -------------------------------------------------------------------------------

 MEMORY| Estimated peak process memory [MiB]                                 302

 -------------------------------------------------------------------------------
 -                                                                             -
 -                         MESSAGE PASSING PERFORMANCE                         -
 -                                                                             -
 -------------------------------------------------------------------------------

 ROUTINE             CALLS      AVE VOLUME [Bytes]
 MP_Group                4
 MP_Bcast              456                 507004.
 MP_Allreduce         1452                  46617.
 MP_Sync                52
 MP_Alltoall           438                7882679.
 MP_ISendRecv         4095                  92352.
 MP_Wait              7868
 MP_comm_split          24
 MP_ISend             3388                 224119.
 MP_IRecv             3388                 224150.
 MP_Recv                 3                   2784.
 -------------------------------------------------------------------------------


 -------------------------------------------------------------------------------
 -                                                                             -
 -                           R E F E R E N C E S                               -
 -                                                                             -
 -------------------------------------------------------------------------------
 
 CP2K version 10.0 (Development Version), the CP2K developers group (2022).
 CP2K is freely available from https://www.cp2k.org/ .

 Kuehne,Thomas D.; Iannuzzi,Marcella; Del Ben,Mauro;
 Rybkin,Vladimir V.; Seewald,Patrick; Stein,Frederick; Laino,Teodoro;
 Khaliullin,Rustam Z.; Schuett,Ole; Schiffmann,Florian; Golze,Dorothea;
 Wilhelm,Jan; Chulkov,Sergey; Bani-Hashemian,Mohammad Hossein;
 Weber,Valery; Borstnik,Urban; Taillefumier,Mathieu;
 Jakobovits,Alice Shoshana; Lazzaro,Alfio; Pabst,Hans; Mueller,Tiziano;
 Schade,Robert; Guidon,Manuel; Andermatt,Samuel; Holmberg,Nico;
 Schenter,Gregory K.; Hehn,Anna; Bussy,Augustin; Belleflamme,Fabian;
 Tabacchi,Gloria; Gloess,Andreas; Lass,Michael; Bethune,Iain;
 Mundy,Christopher J.; Plessl,Christian; Watkins,Matt;
 VandeVondele,Joost; Krack,Matthias; Hutter,Juerg. 
 The Journal of Chemical Physics, 152 (19), (2020). 
 CP2K: An electronic structure and molecular dynamics software package -
 Quickstep: Efficient and accurate electronic structure calculations.
 https://doi.org/10.1063/5.0007045

 Schuett, Ole; Messmer, Peter; Hutter, Juerg; VandeVondele, Joost. 
 Electronic Structure Calculations on Graphics Processing Units, John
 Wiley & Sons, Ltd, 173-190 (2016). 
 GPU-Accelerated Sparse Matrix-Matrix Multiplication for
 Linear Scaling Density Functional Theory.
 https://doi.org/10.1002/9781118670712.ch8

 Heinecke, A; Henry, G; Hutchinson, M; Pabst, H. 
 Proceedings of Intl. Supercomputing Conference, 981-991 (2016). 
 LIBXSMM: Accelerating Small Matrix Multiplications
 by Runtime Code Generation.
 https://doi.org/10.1109/SC.2016.83

 Borstnik, U; VandeVondele, J; Weber, V; Hutter, J. 
 PARALLEL COMPUTING, 40 (5-6), 47-58 (2014). 
 Sparse matrix multiplication: The distributed block-compressed sparse
 row library.
 https://doi.org/10.1016/j.parco.2014.03.012

 Hutter, J; Iannuzzi, M; Schiffmann, F; VandeVondele, J. 
 WIREs Comput Mol Sci., 4 (1), 15-25 (2014). 
 CP2K: atomistic simulations of condensed matter systems.
 https://doi.org/10.1002/wcms.1159

 Frigo, M; Johnson, SG. 
 PROCEEDINGS OF THE IEEE, 93 (2), 216-231 (2005). 
 The design and implementation of FFTW3.
 https://doi.org/10.1109/JPROC.2004.840301

 VandeVondele, J; Hutter, J. 
 JOURNAL OF CHEMICAL PHYSICS, 118 (10), 4365-4369 (2003). 
 An efficient orbital transformation method for electronic structure
 calculations.
 https://doi.org/10.1063/1.1543154

 Lippert, G; Hutter, J; Parrinello, M. 
 THEORETICAL CHEMISTRY ACCOUNTS, 103 (2), 124-140 (1999). 
 The Gaussian and augmented-plane-wave density functional method for ab
 initio molecular dynamics simulations.
 https://doi.org/10.1007/s002140050523

 Krack, M; Parrinello, M. 
 PHYSICAL CHEMISTRY CHEMICAL PHYSICS, 2 (10), 2105-2112 (2000). 
 All-electron ab-initio molecular dynamics.
 https://doi.org/10.1039/b001167n

 Perdew, JP; Burke, K; Ernzerhof, M. 
 PHYSICAL REVIEW LETTERS, 77 (18), 3865-3868 (1996). 
 Generalized gradient approximation made simple.
 https://doi.org/10.1103/PhysRevLett.77.3865


 -------------------------------------------------------------------------------
 -                                                                             -
 -                                T I M I N G                                  -
 -                                                                             -
 -------------------------------------------------------------------------------
 SUBROUTINE                       CALLS  ASD         SELF TIME        TOTAL TIME
                                MAXIMUM       AVERAGE  MAXIMUM  AVERAGE  MAXIMUM
 CP2K                                 1  1.0    0.006    0.024   11.571   11.572
 qs_energies                          1  2.0    0.000    0.000   11.365   11.366
 scf_env_do_scf                       1  3.0    0.000    0.000   11.229   11.229
 scf_env_do_scf_inner_loop           19  4.0    0.000    0.002   10.200   10.200
 qs_ks_update_qs_env                 21  5.0    0.000    0.000    9.045    9.045
 rebuild_ks_matrix                   19  6.0    0.000    0.000    9.043    9.043
 qs_ks_build_kohn_sham_matrix        19  7.0    0.004    0.006    9.043    9.043
 pw_transfer                        404 10.1    0.037    0.044    3.343    3.703
 fft_wrap_pw1pw2                    347 11.2    0.004    0.005    3.279    3.639
 fft_wrap_pw1pw2_250                230 12.6    0.205    0.245    3.116    3.456
 fft3d_ps                           347 13.2    1.272    1.538    2.574    2.999
 rs_pw_transfer                     194  9.5    0.004    0.005    2.563    2.695
 qs_vxc_create                       19  8.0    0.000    0.001    2.636    2.637
 xc_vxc_pw_create                    19  9.0    0.020    0.031    2.636    2.636
 xc_pw_derive                       114 11.0    0.001    0.001    1.830    2.176
 prepare_gapw_den                    19  8.0    0.001    0.001    1.961    1.976
 qs_rho_update_rho                   20  5.0    0.000    0.000    1.814    1.815
 calculate_rho_elec                  20  6.0    0.011    0.013    1.756    1.756
 sum_up_and_integrate                19  8.0    0.007    0.010    1.714    1.717
 integrate_v_rspace                  19  9.0    0.000    0.001    1.707    1.712
 mp_alltoall_z22v                   347 15.2    1.037    1.702    1.037    1.702
 mp_sum_d                           961  6.0    1.500    1.641    1.500    1.641
 xc_pw_divergence                    19 10.0    0.000    0.001    1.269    1.611
 xc_rho_set_and_dset_create          19 10.0    0.020    0.024    1.297    1.568
 density_rs2pw                       20  7.0    0.001    0.001    1.432    1.534
 yz_to_x                            155 14.1    0.111    0.172    0.774    1.260
 calculate_vxc_atom                  19  8.0    0.015    0.153    1.255    1.255
 potential_pw2rs                     19 10.0    0.001    0.001    1.136    1.137
 rs_pw_transfer_RS2PW_250            39 10.0    0.503    0.603    0.999    1.125
 calculate_rho_atom                  57  9.0    0.432    1.065    0.432    1.065
 mp_waitany                        3388 11.5    0.741    1.051    0.741    1.051
 gaVxcgb_GC                          38  9.0    0.034    1.031    0.034    1.031
 init_scf_loop                        2  4.0    0.000    0.000    1.028    1.028
 rs_pw_transfer_PW2RS_250            38 11.0    0.513    0.608    0.943    1.011
 integrate_vhg0_rspace               19  8.0    0.084    0.114    0.871    0.882
 put_rho0_on_grid                    19  9.0    0.012    0.015    0.773    0.787
 xc_functional_eval                  95 10.8    0.000    0.001    0.423    0.680
 pbe_lda_eval                        95 11.8    0.423    0.680    0.423    0.680
 mp_sum_dv                          390 12.8    0.566    0.652    0.566    0.652
 x_to_yz                            153 14.6    0.132    0.181    0.504    0.607
 grid_collocate_task_list            20  7.0    0.275    0.590    0.275    0.590
 mp_waitall_1                     33728 13.9    0.453    0.584    0.453    0.584
 mp_alltoall_d11v                   480 11.6    0.514    0.583    0.514    0.583
 rs_gather_matrices                  19 10.0    0.000    0.002    0.503    0.571
 grid_integrate_task_list            19 10.0    0.068    0.570    0.068    0.570
 qs_scf_new_mos                      19  5.0    0.000    0.000    0.388    0.389
 qs_scf_loop_do_ot                   19  6.0    0.000    0.000    0.388    0.389
 ot_scf_mini                         19  7.0    0.000    0.000    0.373    0.374
 dbcsr_multiply_generic             457 10.1    0.013    0.013    0.360    0.364
 rs_pw_transfer_PW2RS_90             19 12.0    0.057    0.066    0.266    0.314
 pw_gather_p                        175 12.8    0.240    0.307    0.240    0.307
 mp_sum_dm                          236  7.6    0.225    0.286    0.225    0.286
 pw_scatter_p                       172 13.7    0.247    0.267    0.247    0.267
 calculate_rho0_atom                 57  9.0    0.192    0.249    0.192    0.249
 rs_grid_zero                        76 10.8    0.207    0.233    0.207    0.233
 ot_mini                             19  8.0    0.000    0.000    0.231    0.232
 -------------------------------------------------------------------------------

 The number of warnings for this run is : 0
 
 -------------------------------------------------------------------------------
  **** **** ******  **  PROGRAM ENDED AT                 2022-05-09 20:37:58.859
 ***** ** ***  *** **   PROGRAM RAN ON                                   tcopt10
 **    ****   ******    PROGRAM RAN BY                                    hutter
 ***** **    ** ** **   PROGRAM PROCESS ID                                 45821
  **** **  *******  **  PROGRAM STOPPED IN /data/hutter/GITHUB/BASIS/scMOLOPT/PB
                                           E/hbcnof
