 DBCSR| CPU Multiplication driver                                           XSMM
 DBCSR| Multrec recursion limit                                              512
 DBCSR| Multiplication stack size                                           1000
 DBCSR| Maximum elements for images                                    UNLIMITED
 DBCSR| Multiplicative factor virtual images                                   1
 DBCSR| Use multiplication densification                                       T
 DBCSR| Multiplication size stacks                                             3
 DBCSR| Use memory pool for CPU allocation                                     F
 DBCSR| Number of 3D layers                                               SINGLE
 DBCSR| Use MPI memory allocation                                              F
 DBCSR| Use RMA algorithm                                                      F
 DBCSR| Use Communication thread                                               T
 DBCSR| Communication thread load                                             87
 DBCSR| MPI: My node id                                                        0
 DBCSR| MPI: Number of nodes                                                  36
 DBCSR| OMP: Current number of threads                                         1
 DBCSR| OMP: Max number of threads                                             1
 DBCSR| Split modifier for TAS multiplication algorithm                  1.0E+00


  **** **** ******  **  PROGRAM STARTED AT               2022-05-09 20:39:06.039
 ***** ** ***  *** **   PROGRAM STARTED ON                               tcopt10
 **    ****   ******    PROGRAM STARTED BY                                hutter
 ***** **    ** ** **   PROGRAM PROCESS ID                                 46620
  **** **  *******  **  PROGRAM STARTED IN /data/hutter/GITHUB/BASIS/scMOLOPT/PB
                                           E/hbcnof

 CP2K| version string:                   CP2K version 10.0 (Development Version)
 CP2K| source code revision number:                                  git:57d9aec
 CP2K| cp2kflags: omp libint fftw3 libxc elpa parallel mpi3 scalapack cosma xsmm
 CP2K|             spglib sirius libvori libbqb
 CP2K| is freely available from                            https://www.cp2k.org/
 CP2K| Program compiled at                      Fri 06 May 2022 02:09:00 PM CEST
 CP2K| Program compiled on                                               tcopt10
 CP2K| Program compiled for                                                local
 CP2K| Data directory path                   /data/hutter/GITHUB/TDLRI/cp2k/data
 CP2K| Input file name                                              H2O2-ref.inp

 GLOBAL| Force Environment number                                              1
 GLOBAL| Basis set file name                                        ../def2QZVPP
 GLOBAL| Potential file name                                        ../POTENTIAL
 GLOBAL| MM Potential file name                                     MM_POTENTIAL
 GLOBAL| Coordinate file name                                      __STD_INPUT__
 GLOBAL| Method name                                                        CP2K
 GLOBAL| Project name                                                    refH2O2
 GLOBAL| Run type                                                         ENERGY
 GLOBAL| FFT library                                                       FFTW3
 GLOBAL| Diagonalization library                                       ScaLAPACK
 GLOBAL| Orthonormality check for eigenvectors                          DISABLED
 GLOBAL| Matrix multiplication library                                     COSMA
 GLOBAL| All-to-all communication in single precision                          F
 GLOBAL| FFTs using library dependent lengths                                  F
 GLOBAL| Grid backend                                                       AUTO
 GLOBAL| Global print level                                                  LOW
 GLOBAL| MPI I/O enabled                                                       T
 GLOBAL| Total number of message passing processes                            36
 GLOBAL| Number of threads for this process                                    1
 GLOBAL| This output is from process                                           0
 GLOBAL| Stack size for threads created by OpenMP (OMP_STACKSIZE)        default
 GLOBAL| CPU model name                          AMD EPYC 7401 24-Core Processor
 GLOBAL| CPUID                                                              1002

 MEMORY| system memory details [Kb]
 MEMORY|                        rank 0           min           max       average
 MEMORY| MemTotal            263969136     263969136     263969136     263969136
 MEMORY| MemFree             245267600     245267600     245267600     245267600
 MEMORY| Buffers                   136           136           136           136
 MEMORY| Cached               12534228      12534228      12534228      12534228
 MEMORY| Slab                  1358420       1358420       1358420       1358420
 MEMORY| SReclaimable           821392        821392        821392        821392
 MEMORY| MemLikelyFree       258623356     258623356     258623356     258623356


 GENERATE|  Preliminary Number of Bonds generated:                             2
 GENERATE|  Achieved consistency in connectivity generation.
 GENERATE|  Number of Bonds generated:                                         2
 GENERATE|  Preliminary Number of Bends generated:                             0
 GENERATE|  Preliminary Number of Torsions generated:                          0

 *******************************************************************************
 *******************************************************************************
 **                                                                           **
 **     #####                         ##              ##                      **
 **    ##   ##            ##          ##              ##                      **
 **   ##     ##                       ##            ######                    **
 **   ##     ##  ##   ##  ##   #####  ##  ##   ####   ##    #####    #####    **
 **   ##     ##  ##   ##  ##  ##      ## ##   ##      ##   ##   ##  ##   ##   **
 **   ##  ## ##  ##   ##  ##  ##      ####     ###    ##   ######   ######    **
 **    ##  ###   ##   ##  ##  ##      ## ##      ##   ##   ##       ##        **
 **     #######   #####   ##   #####  ##  ##  ####    ##    #####   ##        **
 **           ##                                                    ##        **
 **                                                                           **
 **                                                ... make the atoms dance   **
 **                                                                           **
 **            Copyright (C) by CP2K developers group (2000-2022)             **
 **                      J. Chem. Phys. 152, 194103 (2020)                    **
 **                                                                           **
 *******************************************************************************


 TOTAL NUMBERS AND MAXIMUM NUMBERS

  Total number of            - Atomic kinds:                                   2
                             - Atoms:                                          4
                             - Shell sets:                                    54
                             - Shells:                                        54
                             - Primitive Cartesian functions:                 84
                             - Cartesian basis functions:                    214
                             - Spherical basis functions:                    174

  Maximum angular momentum of the orbital basis functions:                     4


 SCF PARAMETERS         Density guess:                                    ATOMIC
                        --------------------------------------------------------
                        max_scf:                                              10
                        max_scf_history:                                       0
                        max_diis:                                              4
                        --------------------------------------------------------
                        eps_scf:                                        1.00E-07
                        eps_scf_history:                                0.00E+00
                        eps_diis:                                       1.00E-01
                        eps_eigval:                                     1.00E-05
                        --------------------------------------------------------
                        level_shift [a.u.]:                                 0.00
                        --------------------------------------------------------
                        Outer loop SCF in use 
                        No variables optimised in outer loop
                        eps_scf                                         1.00E-07
                        max_scf                                               10
                        No outer loop optimization
                        step_size                                       5.00E-01

 Number of electrons:                                                         18
 Number of occupied orbitals:                                                  9
 Number of molecular orbitals:                                                 9

 Number of orbital functions:                                                174
 Number of independent orbital functions:                                    174

 Extrapolation method: initial_guess


 SCF WAVEFUNCTION OPTIMIZATION

  ----------------------------------- OT ---------------------------------------
  Minimizer      : DIIS                : direct inversion
                                         in the iterative subspace
                                         using   7 DIIS vectors
                                         safer DIIS on
  Preconditioner : FULL_ALL            : diagonalization, state selective
  Precond_solver : DEFAULT
  stepsize       :    0.15000000                  energy_gap     :    0.08000000
  eps_taylor     :   0.10000E-15                  max_taylor     :             4
  ----------------------------------- OT ---------------------------------------

  Step     Update method      Time    Convergence         Total energy    Change
  ------------------------------------------------------------------------------
     1 OT DIIS     0.15E+00    0.5     0.10523555      -148.8750516884 -1.49E+02
     2 OT DIIS     0.15E+00    0.6     0.04083739      -150.6170305549 -1.74E+00
     3 OT DIIS     0.15E+00    0.6     0.01492491      -150.9178216298 -3.01E-01
     4 OT DIIS     0.15E+00    0.6     0.01057434      -150.9575812557 -3.98E-02
     5 OT DIIS     0.15E+00    0.6     0.01040709      -150.9887768523 -3.12E-02
     6 OT SD       0.15E+00    0.6     0.01064170      -151.0031234235 -1.43E-02
     7 OT SD       0.15E+00    0.6     0.01131495      -151.0304678996 -2.73E-02
     8 OT SD       0.15E+00    0.6     0.01205144      -151.0615045664 -3.10E-02
     9 OT SD       0.15E+00    0.6     0.01270774      -151.0965687487 -3.51E-02
    10 OT SD       0.15E+00    0.6     0.01318024      -151.1352538327 -3.87E-02

  Leaving inner SCF loop after reaching    10 steps.


  Electronic density on regular grids:        -13.4488644283        4.5511355717
  Core density on regular grids:               18.0000000000       -0.0000000000
  Hard and soft densities (Lebedev):          -31.2905542874      -26.7394186238
  Total Rho_soft + Rho1_hard - Rho1_soft      -18.0000000919
  Total charge density (r-space):              -0.0000000919
  Total Rho_soft + Rho0_soft (g-space):        -0.0000001077

  Overlap energy of the core charge distribution:               0.00000005053358
  Self energy of the core charge distribution:               -148.64118837347587
  Core Hamiltonian energy:                                    -11.60634419645640
  Hartree energy:                                              39.93729049950593
  Exchange-correlation energy:                                 -7.04814032271952

  GAPW| Exc from hard and soft atomic rho1:                   -10.59126964399955
  GAPW| local Eh = 1 center integrals:                        -13.18560184605633

  Total energy:                                              -151.13525383266818

  outer SCF iter =    1 RMS gradient =   0.13E-01 energy =       -151.1352538327

  ----------------------------------- OT ---------------------------------------
  Minimizer      : DIIS                : direct inversion
                                         in the iterative subspace
                                         using   7 DIIS vectors
                                         safer DIIS on
  Preconditioner : FULL_ALL            : diagonalization, state selective
  Precond_solver : DEFAULT
  stepsize       :    0.15000000                  energy_gap     :    0.08000000
  eps_taylor     :   0.10000E-15                  max_taylor     :             4
  ----------------------------------- OT ---------------------------------------

  Step     Update method      Time    Convergence         Total energy    Change
  ------------------------------------------------------------------------------
     1 OT DIIS     0.15E+00    1.2     0.04489731      -151.1764518668 -4.12E-02
     2 OT DIIS     0.15E+00    0.5     0.01465647      -151.4583744356 -2.82E-01
     3 OT DIIS     0.15E+00    0.6     0.01021000      -151.4718634525 -1.35E-02
     4 OT DIIS     0.15E+00    0.5     0.00936920      -151.4739767094 -2.11E-03
     5 OT DIIS     0.15E+00    0.5     0.00183745      -151.4773148530 -3.34E-03
     6 OT DIIS     0.15E+00    0.6     0.00108662      -151.4774697177 -1.55E-04
     7 OT DIIS     0.15E+00    0.6     0.00074043      -151.4775045550 -3.48E-05
     8 OT DIIS     0.15E+00    0.6     0.00002958      -151.4775299307 -2.54E-05
     9 OT DIIS     0.15E+00    0.5     0.00001086      -151.4775300990 -1.68E-07
    10 OT DIIS     0.15E+00    0.5     0.00000445      -151.4775301159 -1.69E-08

  Leaving inner SCF loop after reaching    10 steps.


  Electronic density on regular grids:        -13.3878995441        4.6121004559
  Core density on regular grids:               18.0000000000       -0.0000000000
  Hard and soft densities (Lebedev):          -31.4356139361      -26.8235122289
  Total Rho_soft + Rho1_hard - Rho1_soft      -18.0000012514
  Total charge density (r-space):              -0.0000012514
  Total Rho_soft + Rho0_soft (g-space):        -0.0000012667

  Overlap energy of the core charge distribution:               0.00000005053358
  Self energy of the core charge distribution:               -148.64118837347587
  Core Hamiltonian energy:                                    -11.97384279071388
  Hartree energy:                                              39.86487177225590
  Exchange-correlation energy:                                 -7.03397345392061

  GAPW| Exc from hard and soft atomic rho1:                   -10.62944772244645
  GAPW| local Eh = 1 center integrals:                        -13.06394959813368

  Total energy:                                              -151.47753011590106

  outer SCF iter =    2 RMS gradient =   0.44E-05 energy =       -151.4775301159

  ----------------------------------- OT ---------------------------------------
  Minimizer      : DIIS                : direct inversion
                                         in the iterative subspace
                                         using   7 DIIS vectors
                                         safer DIIS on
  Preconditioner : FULL_ALL            : diagonalization, state selective
  Precond_solver : DEFAULT
  stepsize       :    0.15000000                  energy_gap     :    0.08000000
  eps_taylor     :   0.10000E-15                  max_taylor     :             4
  ----------------------------------- OT ---------------------------------------

  Step     Update method      Time    Convergence         Total energy    Change
  ------------------------------------------------------------------------------
     1 OT DIIS     0.15E+00    1.1     0.00000095      -151.4775301185 -2.58E-09
     2 OT DIIS     0.15E+00    0.5     0.00000046      -151.4775301186 -1.27E-10
     3 OT DIIS     0.15E+00    0.5     0.00000038      -151.4775301186 -1.75E-11
     4 OT DIIS     0.15E+00    0.5     0.00000010      -151.4775301186 -1.49E-11
     5 OT DIIS     0.15E+00    0.5     8.8292E-09      -151.4775301186 -4.09E-12

  *** SCF run converged in     5 steps ***


  Electronic density on regular grids:        -13.3879045055        4.6120954945
  Core density on regular grids:               18.0000000000       -0.0000000000
  Hard and soft densities (Lebedev):          -31.4355853566      -26.8234886107
  Total Rho_soft + Rho1_hard - Rho1_soft      -18.0000012514
  Total charge density (r-space):              -0.0000012514
  Total Rho_soft + Rho0_soft (g-space):        -0.0000012668

  Overlap energy of the core charge distribution:               0.00000005053358
  Self energy of the core charge distribution:               -148.64118837347587
  Core Hamiltonian energy:                                    -11.97401247530020
  Hartree energy:                                              39.86504179639826
  Exchange-correlation energy:                                 -7.03394970085092

  GAPW| Exc from hard and soft atomic rho1:                   -10.62943619292112
  GAPW| local Eh = 1 center integrals:                        -13.06398522302621

  Total energy:                                              -151.47753011864251

  outer SCF iter =    3 RMS gradient =   0.88E-08 energy =       -151.4775301186
  outer SCF loop converged in   3 iterations or   25 steps


 ENERGY| Total FORCE_EVAL ( QS ) energy [a.u.]:             -151.477530118642505

 -------------------------------------------------------------------------------
 -                                                                             -
 -                                DBCSR STATISTICS                             -
 -                                                                             -
 -------------------------------------------------------------------------------
 COUNTER                                    TOTAL       BLAS       SMM       ACC
 flops     9 x     9 x     9               252234       0.0%    100.0%      0.0%
 flops     9 x     9 x    30              1001160       0.0%    100.0%      0.0%
 flops    30 x     9 x     9              1244160       0.0%    100.0%      0.0%
 flops    30 x    30 x     9              1263600       0.0%    100.0%      0.0%
 flops    30 x    57 x     9              1600560       0.0%    100.0%      0.0%
 flops    57 x    30 x     9              1600560       0.0%    100.0%      0.0%
 flops     9 x     9 x    57              1902204       0.0%    100.0%      0.0%
 flops    57 x     9 x     9              2363904       0.0%    100.0%      0.0%
 flops    57 x    57 x     9              4561596       0.0%    100.0%      0.0%
 flops    30 x     9 x    30              8164800       0.0%    100.0%      0.0%
 flops    57 x     9 x    30             15513120       0.0%    100.0%      0.0%
 flops    30 x     9 x    57             15513120       0.0%    100.0%      0.0%
 flops    57 x     9 x    57             29474928       0.0%    100.0%      0.0%
 flops inhomo. stacks                           0       0.0%      0.0%      0.0%
 flops total                        84.455946E+06       0.0%    100.0%      0.0%
 flops max/rank                     28.352106E+06       0.0%    100.0%      0.0%
 matmuls inhomo. stacks                         0       0.0%      0.0%      0.0%
 matmuls total                               3373       0.0%    100.0%      0.0%
 number of processed stacks                  3373       0.0%    100.0%      0.0%
 average stack size                                     0.0       1.0       0.0
 marketing flops                    89.683360E+06
 -------------------------------------------------------------------------------
 # multiplications                            559
 max memory usage/rank             298.901504E+06
 # max total images/rank                        1
 # max 3D layers                                1
 # MPI messages exchanged                  201240
 MPI messages size (bytes):
  total size                       186.198496E+06
  min size                           0.000000E+00
  max size                          25.992000E+03
  average size                     925.255920E+00
 MPI breakdown and total messages size (bytes):
             size <=      128              178550                        0
       128 < size <=     8192               15130                 51751440
      8192 < size <=    32768                7560                134447040
     32768 < size <=   131072                   0                        0
    131072 < size <=  4194304                   0                        0
   4194304 < size <= 16777216                   0                        0
  16777216 < size                               0                        0
 -------------------------------------------------------------------------------
 -                                                                             -
 -                      DBCSR MESSAGE PASSING PERFORMANCE                      -
 -                                                                             -
 -------------------------------------------------------------------------------
 ROUTINE             CALLS      AVE VOLUME [Bytes]
 MP_Bcast               14                     12.
 MP_Allreduce         2961                      8.
 MP_Alltoall          2360                   2691.
 MP_ISend            13404                   1191.
 MP_IRecv            13404                    766.
 -------------------------------------------------------------------------------

 -------------------------------------------------------------------------------
 -                                                                             -
 -                                GRID STATISTICS                              -
 -                                                                             -
 -------------------------------------------------------------------------------
 LP    KERNEL             BACKEND                              COUNT     PERCENT
 2     collocate ortho    REF                                   7800      10.02%
 2     integrate ortho    REF                                   7500       9.64%
 3     collocate ortho    REF                                   7280       9.35%
 1     collocate ortho    REF                                   7072       9.09%
 3     integrate ortho    REF                                   7000       8.99%
 1     integrate ortho    REF                                   6800       8.74%
 4     collocate ortho    REF                                   5278       6.78%
 4     integrate ortho    REF                                   5075       6.52%
 0     collocate ortho    REF                                   3900       5.01%
 0     integrate ortho    REF                                   3750       4.82%
 2     collocate general  REF                                   3600       4.63%
 2     integrate general  REF                                   3600       4.63%
 5     collocate ortho    REF                                   2912       3.74%
 5     integrate ortho    REF                                   2800       3.60%
 6     collocate ortho    REF                                   1274       1.64%
 6     integrate ortho    REF                                   1225       1.57%
 7     collocate ortho    REF                                    416       0.53%
 7     integrate ortho    REF                                    400       0.51%
 8     collocate ortho    REF                                     78       0.10%
 8     integrate ortho    REF                                     75       0.10%
 -------------------------------------------------------------------------------

 MEMORY| Estimated peak process memory [MiB]                                 286

 -------------------------------------------------------------------------------
 -                                                                             -
 -                         MESSAGE PASSING PERFORMANCE                         -
 -                                                                             -
 -------------------------------------------------------------------------------

 ROUTINE             CALLS      AVE VOLUME [Bytes]
 MP_Group                4
 MP_Bcast              530                 296273.
 MP_Allreduce         1676                  53006.
 MP_Sync                62
 MP_Alltoall           570                1614304.
 MP_ISendRecv         5355                  92352.
 MP_Wait             10304
 MP_comm_split          29
 MP_ISend             4444                 224123.
 MP_IRecv             4444                 224146.
 MP_Recv                 8                   2784.
 -------------------------------------------------------------------------------


 -------------------------------------------------------------------------------
 -                                                                             -
 -                           R E F E R E N C E S                               -
 -                                                                             -
 -------------------------------------------------------------------------------
 
 CP2K version 10.0 (Development Version), the CP2K developers group (2022).
 CP2K is freely available from https://www.cp2k.org/ .

 Kuehne,Thomas D.; Iannuzzi,Marcella; Del Ben,Mauro;
 Rybkin,Vladimir V.; Seewald,Patrick; Stein,Frederick; Laino,Teodoro;
 Khaliullin,Rustam Z.; Schuett,Ole; Schiffmann,Florian; Golze,Dorothea;
 Wilhelm,Jan; Chulkov,Sergey; Bani-Hashemian,Mohammad Hossein;
 Weber,Valery; Borstnik,Urban; Taillefumier,Mathieu;
 Jakobovits,Alice Shoshana; Lazzaro,Alfio; Pabst,Hans; Mueller,Tiziano;
 Schade,Robert; Guidon,Manuel; Andermatt,Samuel; Holmberg,Nico;
 Schenter,Gregory K.; Hehn,Anna; Bussy,Augustin; Belleflamme,Fabian;
 Tabacchi,Gloria; Gloess,Andreas; Lass,Michael; Bethune,Iain;
 Mundy,Christopher J.; Plessl,Christian; Watkins,Matt;
 VandeVondele,Joost; Krack,Matthias; Hutter,Juerg. 
 The Journal of Chemical Physics, 152 (19), (2020). 
 CP2K: An electronic structure and molecular dynamics software package -
 Quickstep: Efficient and accurate electronic structure calculations.
 https://doi.org/10.1063/5.0007045

 Schuett, Ole; Messmer, Peter; Hutter, Juerg; VandeVondele, Joost. 
 Electronic Structure Calculations on Graphics Processing Units, John
 Wiley & Sons, Ltd, 173-190 (2016). 
 GPU-Accelerated Sparse Matrix-Matrix Multiplication for
 Linear Scaling Density Functional Theory.
 https://doi.org/10.1002/9781118670712.ch8

 Heinecke, A; Henry, G; Hutchinson, M; Pabst, H. 
 Proceedings of Intl. Supercomputing Conference, 981-991 (2016). 
 LIBXSMM: Accelerating Small Matrix Multiplications
 by Runtime Code Generation.
 https://doi.org/10.1109/SC.2016.83

 Borstnik, U; VandeVondele, J; Weber, V; Hutter, J. 
 PARALLEL COMPUTING, 40 (5-6), 47-58 (2014). 
 Sparse matrix multiplication: The distributed block-compressed sparse
 row library.
 https://doi.org/10.1016/j.parco.2014.03.012

 Hutter, J; Iannuzzi, M; Schiffmann, F; VandeVondele, J. 
 WIREs Comput Mol Sci., 4 (1), 15-25 (2014). 
 CP2K: atomistic simulations of condensed matter systems.
 https://doi.org/10.1002/wcms.1159

 Frigo, M; Johnson, SG. 
 PROCEEDINGS OF THE IEEE, 93 (2), 216-231 (2005). 
 The design and implementation of FFTW3.
 https://doi.org/10.1109/JPROC.2004.840301

 VandeVondele, J; Hutter, J. 
 JOURNAL OF CHEMICAL PHYSICS, 118 (10), 4365-4369 (2003). 
 An efficient orbital transformation method for electronic structure
 calculations.
 https://doi.org/10.1063/1.1543154

 Lippert, G; Hutter, J; Parrinello, M. 
 THEORETICAL CHEMISTRY ACCOUNTS, 103 (2), 124-140 (1999). 
 The Gaussian and augmented-plane-wave density functional method for ab
 initio molecular dynamics simulations.
 https://doi.org/10.1007/s002140050523

 Krack, M; Parrinello, M. 
 PHYSICAL CHEMISTRY CHEMICAL PHYSICS, 2 (10), 2105-2112 (2000). 
 All-electron ab-initio molecular dynamics.
 https://doi.org/10.1039/b001167n

 Perdew, JP; Burke, K; Ernzerhof, M. 
 PHYSICAL REVIEW LETTERS, 77 (18), 3865-3868 (1996). 
 Generalized gradient approximation made simple.
 https://doi.org/10.1103/PhysRevLett.77.3865


 -------------------------------------------------------------------------------
 -                                                                             -
 -                                T I M I N G                                  -
 -                                                                             -
 -------------------------------------------------------------------------------
 SUBROUTINE                       CALLS  ASD         SELF TIME        TOTAL TIME
                                MAXIMUM       AVERAGE  MAXIMUM  AVERAGE  MAXIMUM
 CP2K                                 1  1.0    0.006    0.027   14.261   14.262
 qs_energies                          1  2.0    0.000    0.000   14.103   14.103
 scf_env_do_scf                       1  3.0    0.000    0.000   13.958   13.959
 scf_env_do_scf_inner_loop           25  4.0    0.000    0.002   12.540   12.540
 qs_ks_update_qs_env                 28  5.0    0.000    0.000   10.863   10.864
 rebuild_ks_matrix                   25  6.0    0.000    0.000   10.860   10.861
 qs_ks_build_kohn_sham_matrix        25  7.0    0.005    0.006   10.860   10.861
 pw_transfer                        530 10.1    0.049    0.056    4.364    4.761
 fft_wrap_pw1pw2                    455 11.3    0.005    0.006    4.281    4.680
 fft_wrap_pw1pw2_250                302 12.6    0.262    0.321    4.073    4.451
 fft3d_ps                           455 13.3    1.670    2.022    3.357    3.820
 rs_pw_transfer                     254  9.5    0.005    0.007    3.573    3.735
 qs_vxc_create                       25  8.0    0.001    0.001    3.376    3.376
 xc_vxc_pw_create                    25  9.0    0.026    0.029    3.375    3.376
 xc_pw_derive                       150 11.0    0.001    0.002    2.391    2.802
 sum_up_and_integrate                25  8.0    0.009    0.013    2.615    2.618
 integrate_v_rspace                  25  9.0    0.001    0.001    2.606    2.611
 qs_rho_update_rho                   26  5.0    0.000    0.001    2.605    2.606
 calculate_rho_elec                  26  6.0    0.014    0.015    2.540    2.540
 density_rs2pw                       26  7.0    0.001    0.002    2.115    2.243
 mp_alltoall_z22v                   455 15.3    1.344    2.143    1.344    2.143
 xc_pw_divergence                    25 10.0    0.001    0.001    1.647    2.047
 xc_rho_set_and_dset_create          25 10.0    0.027    0.031    1.637    1.985
 prepare_gapw_den                    25  8.0    0.001    0.001    1.909    1.929
 rs_pw_transfer_RS2PW_250            51 10.0    0.669    0.804    1.542    1.695
 yz_to_x                            203 14.1    0.143    0.229    0.997    1.575
 mp_waitany                        4444 11.5    1.213    1.573    1.213    1.573
 mp_sum_d                          1093  6.5    1.367    1.556    1.367    1.556
 potential_pw2rs                     25 10.0    0.002    0.002    1.476    1.480
 init_scf_loop                        3  4.0    0.000    0.000    1.418    1.418
 rs_pw_transfer_PW2RS_250            50 11.0    0.658    0.790    1.239    1.305
 mp_alltoall_d11v                   633 11.5    1.063    1.146    1.063    1.146
 integrate_vhg0_rspace               25  8.0    0.106    0.141    1.126    1.140
 rs_gather_matrices                  25 10.0    0.000    0.001    1.048    1.129
 grid_integrate_task_list            25 10.0    0.081    1.126    0.081    1.126
 calculate_vxc_atom                  25  8.0    0.016    0.160    1.079    1.079
 grid_collocate_task_list            26  7.0    0.356    1.045    0.356    1.045
 put_rho0_on_grid                    25  9.0    0.016    0.019    0.994    1.014
 xc_functional_eval                 125 10.8    0.000    0.001    0.489    0.835
 pbe_lda_eval                       125 11.8    0.489    0.835    0.489    0.835
 gaVxcgb_GC                          50  9.0    0.045    0.828    0.045    0.828
 calculate_rho_atom                  50  9.0    0.325    0.790    0.325    0.790
 x_to_yz                            201 14.6    0.172    0.237    0.659    0.786
 mp_waitall_1                     41636 13.8    0.579    0.738    0.579    0.738
 qs_scf_new_mos                      25  5.0    0.000    0.000    0.477    0.478
 qs_scf_loop_do_ot                   25  6.0    0.000    0.000    0.477    0.478
 dbcsr_multiply_generic             559 10.0    0.015    0.016    0.452    0.459
 ot_scf_mini                         25  7.0    0.000    0.000    0.455    0.456
 mp_sum_dv                          433 12.7    0.327    0.442    0.327    0.442
 pw_gather_p                        229 12.9    0.319    0.416    0.319    0.416
 rs_pw_transfer_PW2RS_90             25 12.0    0.071    0.085    0.328    0.381
 mp_sum_dm                          308  7.6    0.280    0.371    0.280    0.371
 calculate_rho0_atom                 50  9.0    0.264    0.361    0.264    0.361
 pw_scatter_p                       226 13.7    0.326    0.358    0.326    0.358
 rs_grid_zero                       100 10.8    0.270    0.312    0.270    0.312
 ot_mini                             25  8.0    0.000    0.000    0.286    0.287
 -------------------------------------------------------------------------------

 The number of warnings for this run is : 0
 
 -------------------------------------------------------------------------------
  **** **** ******  **  PROGRAM ENDED AT                 2022-05-09 20:39:20.684
 ***** ** ***  *** **   PROGRAM RAN ON                                   tcopt10
 **    ****   ******    PROGRAM RAN BY                                    hutter
 ***** **    ** ** **   PROGRAM PROCESS ID                                 46620
  **** **  *******  **  PROGRAM STOPPED IN /data/hutter/GITHUB/BASIS/scMOLOPT/PB
                                           E/hbcnof
