 DBCSR| CPU Multiplication driver                                           XSMM
 DBCSR| Multrec recursion limit                                              512
 DBCSR| Multiplication stack size                                           1000
 DBCSR| Maximum elements for images                                    UNLIMITED
 DBCSR| Multiplicative factor virtual images                                   1
 DBCSR| Use multiplication densification                                       T
 DBCSR| Multiplication size stacks                                             3
 DBCSR| Use memory pool for CPU allocation                                     F
 DBCSR| Number of 3D layers                                               SINGLE
 DBCSR| Use MPI memory allocation                                              F
 DBCSR| Use RMA algorithm                                                      F
 DBCSR| Use Communication thread                                               T
 DBCSR| Communication thread load                                             87
 DBCSR| MPI: My node id                                                        0
 DBCSR| MPI: Number of nodes                                                  36
 DBCSR| OMP: Current number of threads                                         1
 DBCSR| OMP: Max number of threads                                             1
 DBCSR| Split modifier for TAS multiplication algorithm                  1.0E+00


  **** **** ******  **  PROGRAM STARTED AT               2022-05-09 20:42:24.931
 ***** ** ***  *** **   PROGRAM STARTED ON                               tcopt10
 **    ****   ******    PROGRAM STARTED BY                                hutter
 ***** **    ** ** **   PROGRAM PROCESS ID                                 48739
  **** **  *******  **  PROGRAM STARTED IN /data/hutter/GITHUB/BASIS/scMOLOPT/PB
                                           E/hbcnof

 CP2K| version string:                   CP2K version 10.0 (Development Version)
 CP2K| source code revision number:                                  git:57d9aec
 CP2K| cp2kflags: omp libint fftw3 libxc elpa parallel mpi3 scalapack cosma xsmm
 CP2K|             spglib sirius libvori libbqb
 CP2K| is freely available from                            https://www.cp2k.org/
 CP2K| Program compiled at                      Fri 06 May 2022 02:09:00 PM CEST
 CP2K| Program compiled on                                               tcopt10
 CP2K| Program compiled for                                                local
 CP2K| Data directory path                   /data/hutter/GITHUB/TDLRI/cp2k/data
 CP2K| Input file name                                                HF-ref.inp

 GLOBAL| Force Environment number                                              1
 GLOBAL| Basis set file name                                        ../def2QZVPP
 GLOBAL| Potential file name                                        ../POTENTIAL
 GLOBAL| MM Potential file name                                     MM_POTENTIAL
 GLOBAL| Coordinate file name                                      __STD_INPUT__
 GLOBAL| Method name                                                        CP2K
 GLOBAL| Project name                                                      refHF
 GLOBAL| Run type                                                         ENERGY
 GLOBAL| FFT library                                                       FFTW3
 GLOBAL| Diagonalization library                                       ScaLAPACK
 GLOBAL| Orthonormality check for eigenvectors                          DISABLED
 GLOBAL| Matrix multiplication library                                     COSMA
 GLOBAL| All-to-all communication in single precision                          F
 GLOBAL| FFTs using library dependent lengths                                  F
 GLOBAL| Grid backend                                                       AUTO
 GLOBAL| Global print level                                                  LOW
 GLOBAL| MPI I/O enabled                                                       T
 GLOBAL| Total number of message passing processes                            36
 GLOBAL| Number of threads for this process                                    1
 GLOBAL| This output is from process                                           0
 GLOBAL| Stack size for threads created by OpenMP (OMP_STACKSIZE)        default
 GLOBAL| CPU model name                          AMD EPYC 7401 24-Core Processor
 GLOBAL| CPUID                                                              1002

 MEMORY| system memory details [Kb]
 MEMORY|                        rank 0           min           max       average
 MEMORY| MemTotal            263969136     263969136     263969136     263969136
 MEMORY| MemFree             245295152     245295152     245295152     245295152
 MEMORY| Buffers                   136           136           136           136
 MEMORY| Cached               12534540      12534540      12534540      12534540
 MEMORY| Slab                  1354676       1354676       1354676       1354676
 MEMORY| SReclaimable           819772        819772        819772        819772
 MEMORY| MemLikelyFree       258649600     258649600     258649600     258649600


 GENERATE|  Preliminary Number of Bonds generated:                             0
 GENERATE|  Achieved consistency in connectivity generation.

 *******************************************************************************
 *******************************************************************************
 **                                                                           **
 **     #####                         ##              ##                      **
 **    ##   ##            ##          ##              ##                      **
 **   ##     ##                       ##            ######                    **
 **   ##     ##  ##   ##  ##   #####  ##  ##   ####   ##    #####    #####    **
 **   ##     ##  ##   ##  ##  ##      ## ##   ##      ##   ##   ##  ##   ##   **
 **   ##  ## ##  ##   ##  ##  ##      ####     ###    ##   ######   ######    **
 **    ##  ###   ##   ##  ##  ##      ## ##      ##   ##   ##       ##        **
 **     #######   #####   ##   #####  ##  ##  ####    ##    #####   ##        **
 **           ##                                                    ##        **
 **                                                                           **
 **                                                ... make the atoms dance   **
 **                                                                           **
 **            Copyright (C) by CP2K developers group (2000-2022)             **
 **                      J. Chem. Phys. 152, 194103 (2020)                    **
 **                                                                           **
 *******************************************************************************


 TOTAL NUMBERS AND MAXIMUM NUMBERS

  Total number of            - Atomic kinds:                                   2
                             - Atoms:                                          2
                             - Shell sets:                                    27
                             - Shells:                                        27
                             - Primitive Cartesian functions:                 42
                             - Cartesian basis functions:                    107
                             - Spherical basis functions:                     87

  Maximum angular momentum of the orbital basis functions:                     4


 SCF PARAMETERS         Density guess:                                    ATOMIC
                        --------------------------------------------------------
                        max_scf:                                              10
                        max_scf_history:                                       0
                        max_diis:                                              4
                        --------------------------------------------------------
                        eps_scf:                                        1.00E-07
                        eps_scf_history:                                0.00E+00
                        eps_diis:                                       1.00E-01
                        eps_eigval:                                     1.00E-05
                        --------------------------------------------------------
                        level_shift [a.u.]:                                 0.00
                        --------------------------------------------------------
                        Outer loop SCF in use 
                        No variables optimised in outer loop
                        eps_scf                                         1.00E-07
                        max_scf                                               10
                        No outer loop optimization
                        step_size                                       5.00E-01

 Number of electrons:                                                         10
 Number of occupied orbitals:                                                  5
 Number of molecular orbitals:                                                 5

 Number of orbital functions:                                                 87
 Number of independent orbital functions:                                     87

 Extrapolation method: initial_guess


 SCF WAVEFUNCTION OPTIMIZATION

  ----------------------------------- OT ---------------------------------------
  Minimizer      : DIIS                : direct inversion
                                         in the iterative subspace
                                         using   7 DIIS vectors
                                         safer DIIS on
  Preconditioner : FULL_ALL            : diagonalization, state selective
  Precond_solver : DEFAULT
  stepsize       :    0.15000000                  energy_gap     :    0.08000000
  eps_taylor     :   0.10000E-15                  max_taylor     :             4
  ----------------------------------- OT ---------------------------------------

  Step     Update method      Time    Convergence         Total energy    Change
  ------------------------------------------------------------------------------
     1 OT DIIS     0.15E+00    0.4     0.50779783       -89.6770205196 -8.97E+01
     2 OT DIIS     0.15E+00    0.5     0.10581013       -99.4652516441 -9.79E+00
     3 OT DIIS     0.15E+00    0.5     0.05044113       -99.9961350446 -5.31E-01
     4 OT DIIS     0.15E+00    0.5     0.03555183      -100.1808219860 -1.85E-01
     5 OT DIIS     0.15E+00    0.5     0.01608798      -100.3579094052 -1.77E-01
     6 OT DIIS     0.15E+00    0.5     0.01449352      -100.3785825339 -2.07E-02
     7 OT DIIS     0.15E+00    0.5     0.01113903      -100.3852387882 -6.66E-03
     8 OT DIIS     0.15E+00    0.5     0.01092307      -100.3907801374 -5.54E-03
     9 OT DIIS     0.15E+00    0.5     0.00298173      -100.3990139689 -8.23E-03
    10 OT DIIS     0.15E+00    0.5     0.00242266      -100.3997419576 -7.28E-04

  Leaving inner SCF loop after reaching    10 steps.


  Electronic density on regular grids:         -7.5112608461        2.4887391539
  Core density on regular grids:               10.0000000000        0.0000000000
  Hard and soft densities (Lebedev):          -16.4088257499      -13.9200857203
  Total Rho_soft + Rho1_hard - Rho1_soft      -10.0000008757
  Total charge density (r-space):              -0.0000008757
  Total Rho_soft + Rho0_soft (g-space):        -0.0000009087

  Overlap energy of the core charge distribution:               0.00000001360916
  Self energy of the core charge distribution:               -105.97386364366757
  Core Hamiltonian energy:                                     -4.17806636659928
  Hartree energy:                                              23.10542123825246
  Exchange-correlation energy:                                 -4.44161057252098

  GAPW| Exc from hard and soft atomic rho1:                    -6.26816659465130
  GAPW| local Eh = 1 center integrals:                         -2.64345603200193

  Total energy:                                              -100.39974195757945

  outer SCF iter =    1 RMS gradient =   0.24E-02 energy =       -100.3997419576

  ----------------------------------- OT ---------------------------------------
  Minimizer      : DIIS                : direct inversion
                                         in the iterative subspace
                                         using   7 DIIS vectors
                                         safer DIIS on
  Preconditioner : FULL_ALL            : diagonalization, state selective
  Precond_solver : DEFAULT
  stepsize       :    0.15000000                  energy_gap     :    0.08000000
  eps_taylor     :   0.10000E-15                  max_taylor     :             4
  ----------------------------------- OT ---------------------------------------

  Step     Update method      Time    Convergence         Total energy    Change
  ------------------------------------------------------------------------------
     1 OT DIIS     0.15E+00    1.0     0.00257415      -100.4006766547 -9.35E-04
     2 OT DIIS     0.15E+00    0.5     0.00103987      -100.4009622081 -2.86E-04
     3 OT DIIS     0.15E+00    0.5     0.00056656      -100.4010068286 -4.46E-05
     4 OT DIIS     0.15E+00    0.5     0.00003750      -100.4010142599 -7.43E-06
     5 OT DIIS     0.15E+00    0.5     0.00000560      -100.4010143305 -7.05E-08
     6 OT DIIS     0.15E+00    0.5     0.00000066      -100.4010143319 -1.44E-09
     7 OT DIIS     0.15E+00    0.5     0.00000022      -100.4010143319 -1.79E-11
     8 OT DIIS     0.15E+00    0.5     0.00000003      -100.4010143319 -6.14E-12

  *** SCF run converged in     8 steps ***


  Electronic density on regular grids:         -7.5162473486        2.4837526514
  Core density on regular grids:               10.0000000000        0.0000000000
  Hard and soft densities (Lebedev):          -16.4225213191      -13.9387676724
  Total Rho_soft + Rho1_hard - Rho1_soft      -10.0000009953
  Total charge density (r-space):              -0.0000009953
  Total Rho_soft + Rho0_soft (g-space):        -0.0000010283

  Overlap energy of the core charge distribution:               0.00000001360916
  Self energy of the core charge distribution:               -105.97386364366757
  Core Hamiltonian energy:                                     -4.17149142937786
  Hartree energy:                                              23.10997166975673
  Exchange-correlation energy:                                 -4.44908426534566

  GAPW| Exc from hard and soft atomic rho1:                    -6.26367727067321
  GAPW| local Eh = 1 center integrals:                         -2.65286940622156

  Total energy:                                              -100.40101433191997

  outer SCF iter =    2 RMS gradient =   0.30E-07 energy =       -100.4010143319
  outer SCF loop converged in   2 iterations or   18 steps


 ENERGY| Total FORCE_EVAL ( QS ) energy [a.u.]:             -100.401014331919967

 -------------------------------------------------------------------------------
 -                                                                             -
 -                                DBCSR STATISTICS                             -
 -                                                                             -
 -------------------------------------------------------------------------------
 COUNTER                                    TOTAL       BLAS       SMM       ACC
 flops     5 x     5 x     5                38500       0.0%    100.0%      0.0%
 flops     5 x     5 x    30               111000       0.0%    100.0%      0.0%
 flops    30 x     5 x     5               138000       0.0%    100.0%      0.0%
 flops    30 x    30 x     5               171000       0.0%    100.0%      0.0%
 flops     5 x     5 x    57               210900       0.0%    100.0%      0.0%
 flops    57 x     5 x     5               262200       0.0%    100.0%      0.0%
 flops    57 x    30 x     5               324900       0.0%    100.0%      0.0%
 flops    57 x    57 x     5               617310       0.0%    100.0%      0.0%
 flops    30 x     5 x    30               810000       0.0%    100.0%      0.0%
 flops    57 x     5 x    30              1539000       0.0%    100.0%      0.0%
 flops    30 x     5 x    57              1539000       0.0%    100.0%      0.0%
 flops    57 x     5 x    57              2924100       0.0%    100.0%      0.0%
 flops inhomo. stacks                           0       0.0%      0.0%      0.0%
 flops total                         8.685910E+06       0.0%    100.0%      0.0%
 flops max/rank                      5.703010E+06       0.0%    100.0%      0.0%
 matmuls inhomo. stacks                         0       0.0%      0.0%      0.0%
 matmuls total                                903       0.0%    100.0%      0.0%
 number of processed stacks                   903       0.0%    100.0%      0.0%
 average stack size                                     0.0       1.0       0.0
 marketing flops                     9.019483E+06
 -------------------------------------------------------------------------------
 # multiplications                            431
 max memory usage/rank             298.553344E+06
 # max total images/rank                        1
 # max 3D layers                                1
 # MPI messages exchanged                  155160
 MPI messages size (bytes):
  total size                        34.051600E+06
  min size                           0.000000E+00
  max size                          25.992000E+03
  average size                     219.461197E+00
 MPI breakdown and total messages size (bytes):
             size <=      128              147680                        0
       128 < size <=     8192                6130                 10043200
      8192 < size <=    32768                1350                 24008400
     32768 < size <=   131072                   0                        0
    131072 < size <=  4194304                   0                        0
   4194304 < size <= 16777216                   0                        0
  16777216 < size                               0                        0
 -------------------------------------------------------------------------------
 -                                                                             -
 -                      DBCSR MESSAGE PASSING PERFORMANCE                      -
 -                                                                             -
 -------------------------------------------------------------------------------
 ROUTINE             CALLS      AVE VOLUME [Bytes]
 MP_Bcast               13                     12.
 MP_Allreduce         2289                      8.
 MP_Alltoall          1686                   2382.
 MP_ISend            10336                    518.
 MP_IRecv            10336                    202.
 -------------------------------------------------------------------------------

 -------------------------------------------------------------------------------
 -                                                                             -
 -                                GRID STATISTICS                              -
 -                                                                             -
 -------------------------------------------------------------------------------
 LP    KERNEL             BACKEND                              COUNT     PERCENT
 2     collocate ortho    REF                                   1501       9.12%
 1     collocate ortho    REF                                   1482       9.00%
 2     integrate ortho    REF                                   1422       8.64%
 1     integrate ortho    REF                                   1404       8.53%
 3     collocate ortho    REF                                   1387       8.42%
 3     integrate ortho    REF                                   1314       7.98%
 2     collocate general  REF                                   1296       7.87%
 2     integrate general  REF                                   1296       7.87%
 4     collocate ortho    REF                                   1026       6.23%
 4     integrate ortho    REF                                    972       5.90%
 0     collocate ortho    REF                                    817       4.96%
 0     integrate ortho    REF                                    774       4.70%
 5     collocate ortho    REF                                    551       3.35%
 5     integrate ortho    REF                                    522       3.17%
 6     collocate ortho    REF                                    247       1.50%
 6     integrate ortho    REF                                    234       1.42%
 7     collocate ortho    REF                                     95       0.58%
 7     integrate ortho    REF                                     90       0.55%
 8     collocate ortho    REF                                     19       0.12%
 8     integrate ortho    REF                                     18       0.11%
 -------------------------------------------------------------------------------

 MEMORY| Estimated peak process memory [MiB]                                 285

 -------------------------------------------------------------------------------
 -                                                                             -
 -                         MESSAGE PASSING PERFORMANCE                         -
 -                                                                             -
 -------------------------------------------------------------------------------

 ROUTINE             CALLS      AVE VOLUME [Bytes]
 MP_Group                4
 MP_Bcast              254                 603755.
 MP_Allreduce         1033                  31287.
 MP_Sync                36
 MP_Alltoall           416                2461496.
 MP_ISendRecv         3885                  92352.
 MP_Wait              7462
 MP_comm_split          16
 MP_ISend             3212                 224118.
 MP_IRecv             3212                 224151.
 MP_Recv                 4                    696.
 -------------------------------------------------------------------------------


 -------------------------------------------------------------------------------
 -                                                                             -
 -                           R E F E R E N C E S                               -
 -                                                                             -
 -------------------------------------------------------------------------------
 
 CP2K version 10.0 (Development Version), the CP2K developers group (2022).
 CP2K is freely available from https://www.cp2k.org/ .

 Kuehne,Thomas D.; Iannuzzi,Marcella; Del Ben,Mauro;
 Rybkin,Vladimir V.; Seewald,Patrick; Stein,Frederick; Laino,Teodoro;
 Khaliullin,Rustam Z.; Schuett,Ole; Schiffmann,Florian; Golze,Dorothea;
 Wilhelm,Jan; Chulkov,Sergey; Bani-Hashemian,Mohammad Hossein;
 Weber,Valery; Borstnik,Urban; Taillefumier,Mathieu;
 Jakobovits,Alice Shoshana; Lazzaro,Alfio; Pabst,Hans; Mueller,Tiziano;
 Schade,Robert; Guidon,Manuel; Andermatt,Samuel; Holmberg,Nico;
 Schenter,Gregory K.; Hehn,Anna; Bussy,Augustin; Belleflamme,Fabian;
 Tabacchi,Gloria; Gloess,Andreas; Lass,Michael; Bethune,Iain;
 Mundy,Christopher J.; Plessl,Christian; Watkins,Matt;
 VandeVondele,Joost; Krack,Matthias; Hutter,Juerg. 
 The Journal of Chemical Physics, 152 (19), (2020). 
 CP2K: An electronic structure and molecular dynamics software package -
 Quickstep: Efficient and accurate electronic structure calculations.
 https://doi.org/10.1063/5.0007045

 Schuett, Ole; Messmer, Peter; Hutter, Juerg; VandeVondele, Joost. 
 Electronic Structure Calculations on Graphics Processing Units, John
 Wiley & Sons, Ltd, 173-190 (2016). 
 GPU-Accelerated Sparse Matrix-Matrix Multiplication for
 Linear Scaling Density Functional Theory.
 https://doi.org/10.1002/9781118670712.ch8

 Heinecke, A; Henry, G; Hutchinson, M; Pabst, H. 
 Proceedings of Intl. Supercomputing Conference, 981-991 (2016). 
 LIBXSMM: Accelerating Small Matrix Multiplications
 by Runtime Code Generation.
 https://doi.org/10.1109/SC.2016.83

 Borstnik, U; VandeVondele, J; Weber, V; Hutter, J. 
 PARALLEL COMPUTING, 40 (5-6), 47-58 (2014). 
 Sparse matrix multiplication: The distributed block-compressed sparse
 row library.
 https://doi.org/10.1016/j.parco.2014.03.012

 Hutter, J; Iannuzzi, M; Schiffmann, F; VandeVondele, J. 
 WIREs Comput Mol Sci., 4 (1), 15-25 (2014). 
 CP2K: atomistic simulations of condensed matter systems.
 https://doi.org/10.1002/wcms.1159

 Frigo, M; Johnson, SG. 
 PROCEEDINGS OF THE IEEE, 93 (2), 216-231 (2005). 
 The design and implementation of FFTW3.
 https://doi.org/10.1109/JPROC.2004.840301

 VandeVondele, J; Hutter, J. 
 JOURNAL OF CHEMICAL PHYSICS, 118 (10), 4365-4369 (2003). 
 An efficient orbital transformation method for electronic structure
 calculations.
 https://doi.org/10.1063/1.1543154

 Lippert, G; Hutter, J; Parrinello, M. 
 THEORETICAL CHEMISTRY ACCOUNTS, 103 (2), 124-140 (1999). 
 The Gaussian and augmented-plane-wave density functional method for ab
 initio molecular dynamics simulations.
 https://doi.org/10.1007/s002140050523

 Krack, M; Parrinello, M. 
 PHYSICAL CHEMISTRY CHEMICAL PHYSICS, 2 (10), 2105-2112 (2000). 
 All-electron ab-initio molecular dynamics.
 https://doi.org/10.1039/b001167n

 Perdew, JP; Burke, K; Ernzerhof, M. 
 PHYSICAL REVIEW LETTERS, 77 (18), 3865-3868 (1996). 
 Generalized gradient approximation made simple.
 https://doi.org/10.1103/PhysRevLett.77.3865


 -------------------------------------------------------------------------------
 -                                                                             -
 -                                T I M I N G                                  -
 -                                                                             -
 -------------------------------------------------------------------------------
 SUBROUTINE                       CALLS  ASD         SELF TIME        TOTAL TIME
                                MAXIMUM       AVERAGE  MAXIMUM  AVERAGE  MAXIMUM
 CP2K                                 1  1.0    0.006    0.024    9.198    9.199
 qs_energies                          1  2.0    0.000    0.000    9.040    9.040
 scf_env_do_scf                       1  3.0    0.000    0.000    8.925    8.925
 scf_env_do_scf_inner_loop           18  4.0    0.000    0.002    8.096    8.096
 qs_ks_update_qs_env                 20  5.0    0.000    0.000    6.975    6.976
 rebuild_ks_matrix                   18  6.0    0.000    0.000    6.972    6.972
 qs_ks_build_kohn_sham_matrix        18  7.0    0.004    0.004    6.972    6.972
 pw_transfer                        383 10.1    0.035    0.040    3.147    3.401
 fft_wrap_pw1pw2                    329 11.2    0.004    0.005    3.086    3.334
 fft_wrap_pw1pw2_250                218 12.6    0.191    0.236    2.929    3.206
 fft3d_ps                           329 13.2    1.202    1.453    2.418    2.677
 rs_pw_transfer                     184  9.5    0.004    0.005    2.337    2.426
 qs_vxc_create                       18  8.0    0.000    0.001    2.309    2.310
 xc_vxc_pw_create                    18  9.0    0.018    0.021    2.309    2.309
 xc_pw_derive                       108 11.0    0.001    0.001    1.717    1.930
 qs_rho_update_rho                   19  5.0    0.000    0.000    1.633    1.635
 calculate_rho_elec                  19  6.0    0.010    0.011    1.605    1.605
 mp_alltoall_z22v                   329 15.2    0.968    1.468    0.968    1.468
 sum_up_and_integrate                18  8.0    0.006    0.010    1.387    1.389
 xc_pw_divergence                    18 10.0    0.000    0.001    1.178    1.388
 integrate_v_rspace                  18  9.0    0.000    0.000    1.381    1.383
 density_rs2pw                       19  7.0    0.001    0.001    1.312    1.365
 prepare_gapw_den                    18  8.0    0.000    0.000    1.316    1.332
 xc_rho_set_and_dset_create          18 10.0    0.019    0.022    1.064    1.310
 mp_sum_d                           887  5.6    0.977    1.090    0.977    1.090
 potential_pw2rs                     18 10.0    0.001    0.001    1.059    1.061
 yz_to_x                            147 14.1    0.103    0.161    0.711    1.050
 rs_pw_transfer_RS2PW_250            37 10.0    0.493    0.592    0.881    0.957
 rs_pw_transfer_PW2RS_250            36 11.0    0.479    0.565    0.870    0.931
 mp_waitany                        3212 11.5    0.606    0.846    0.606    0.846
 init_scf_loop                        2  4.0    0.000    0.000    0.829    0.829
 calculate_vxc_atom                  18  8.0    0.009    0.116    0.765    0.765
 put_rho0_on_grid                    18  9.0    0.011    0.012    0.714    0.730
 integrate_vhg0_rspace               18  8.0    0.038    0.055    0.687    0.700
 gaVxcgb_GC                          36  9.0    0.016    0.584    0.016    0.584
 x_to_yz                            145 14.6    0.123    0.172    0.482    0.582
 mp_waitall_1                     31834 13.9    0.422    0.571    0.422    0.571
 calculate_rho_atom                  36  9.0    0.224    0.550    0.224    0.550
 xc_functional_eval                  90 10.9    0.000    0.000    0.231    0.470
 pbe_lda_eval                        90 11.9    0.231    0.469    0.231    0.469
 grid_collocate_task_list            19  7.0    0.242    0.442    0.242    0.442
 qs_scf_new_mos                      18  5.0    0.000    0.000    0.351    0.352
 qs_scf_loop_do_ot                   18  6.0    0.000    0.000    0.351    0.352
 dbcsr_multiply_generic             431 10.1    0.012    0.012    0.340    0.342
 ot_scf_mini                         18  7.0    0.000    0.000    0.335    0.336
 mp_alltoall_d11v                   421 11.4    0.313    0.332    0.313    0.332
 mp_sum_dv                          194 12.4    0.272    0.322    0.272    0.322
 rs_gather_matrices                  18 10.0    0.000    0.001    0.303    0.321
 grid_integrate_task_list            18 10.0    0.018    0.320    0.018    0.320
 pw_gather_p                        166 12.8    0.228    0.296    0.228    0.296
 rs_pw_transfer_PW2RS_90             18 12.0    0.053    0.064    0.243    0.280
 pw_scatter_p                       163 13.7    0.236    0.257    0.236    0.257
 rs_grid_zero                        72 10.8    0.194    0.224    0.194    0.224
 ot_mini                             18  8.0    0.000    0.000    0.223    0.224
 qs_ot_get_derivative                18  9.0    0.000    0.000    0.187    0.187
 -------------------------------------------------------------------------------

 The number of warnings for this run is : 0
 
 -------------------------------------------------------------------------------
  **** **** ******  **  PROGRAM ENDED AT                 2022-05-09 20:42:34.509
 ***** ** ***  *** **   PROGRAM RAN ON                                   tcopt10
 **    ****   ******    PROGRAM RAN BY                                    hutter
 ***** **    ** ** **   PROGRAM PROCESS ID                                 48739
  **** **  *******  **  PROGRAM STOPPED IN /data/hutter/GITHUB/BASIS/scMOLOPT/PB
                                           E/hbcnof
