 DBCSR| CPU Multiplication driver                                           XSMM
 DBCSR| Multrec recursion limit                                              512
 DBCSR| Multiplication stack size                                           1000
 DBCSR| Maximum elements for images                                    UNLIMITED
 DBCSR| Multiplicative factor virtual images                                   1
 DBCSR| Use multiplication densification                                       T
 DBCSR| Multiplication size stacks                                             3
 DBCSR| Use memory pool for CPU allocation                                     F
 DBCSR| Number of 3D layers                                               SINGLE
 DBCSR| Use MPI memory allocation                                              F
 DBCSR| Use RMA algorithm                                                      F
 DBCSR| Use Communication thread                                               T
 DBCSR| Communication thread load                                             87
 DBCSR| MPI: My node id                                                        0
 DBCSR| MPI: Number of nodes                                                  36
 DBCSR| OMP: Current number of threads                                         1
 DBCSR| OMP: Max number of threads                                             1
 DBCSR| Split modifier for TAS multiplication algorithm                  1.0E+00


  **** **** ******  **  PROGRAM STARTED AT               2022-05-09 20:43:55.672
 ***** ** ***  *** **   PROGRAM STARTED ON                               tcopt10
 **    ****   ******    PROGRAM STARTED BY                                hutter
 ***** **    ** ** **   PROGRAM PROCESS ID                                 49424
  **** **  *******  **  PROGRAM STARTED IN /data/hutter/GITHUB/BASIS/scMOLOPT/PB
                                           E/hbcnof

 CP2K| version string:                   CP2K version 10.0 (Development Version)
 CP2K| source code revision number:                                  git:57d9aec
 CP2K| cp2kflags: omp libint fftw3 libxc elpa parallel mpi3 scalapack cosma xsmm
 CP2K|             spglib sirius libvori libbqb
 CP2K| is freely available from                            https://www.cp2k.org/
 CP2K| Program compiled at                      Fri 06 May 2022 02:09:00 PM CEST
 CP2K| Program compiled on                                               tcopt10
 CP2K| Program compiled for                                                local
 CP2K| Data directory path                   /data/hutter/GITHUB/TDLRI/cp2k/data
 CP2K| Input file name                                               HNC-ref.inp

 GLOBAL| Force Environment number                                              1
 GLOBAL| Basis set file name                                        ../def2QZVPP
 GLOBAL| Potential file name                                        ../POTENTIAL
 GLOBAL| MM Potential file name                                     MM_POTENTIAL
 GLOBAL| Coordinate file name                                      __STD_INPUT__
 GLOBAL| Method name                                                        CP2K
 GLOBAL| Project name                                                     refHNC
 GLOBAL| Run type                                                         ENERGY
 GLOBAL| FFT library                                                       FFTW3
 GLOBAL| Diagonalization library                                       ScaLAPACK
 GLOBAL| Orthonormality check for eigenvectors                          DISABLED
 GLOBAL| Matrix multiplication library                                     COSMA
 GLOBAL| All-to-all communication in single precision                          F
 GLOBAL| FFTs using library dependent lengths                                  F
 GLOBAL| Grid backend                                                       AUTO
 GLOBAL| Global print level                                                  LOW
 GLOBAL| MPI I/O enabled                                                       T
 GLOBAL| Total number of message passing processes                            36
 GLOBAL| Number of threads for this process                                    1
 GLOBAL| This output is from process                                           0
 GLOBAL| Stack size for threads created by OpenMP (OMP_STACKSIZE)        default
 GLOBAL| CPU model name                          AMD EPYC 7401 24-Core Processor
 GLOBAL| CPUID                                                              1002

 MEMORY| system memory details [Kb]
 MEMORY|                        rank 0           min           max       average
 MEMORY| MemTotal            263969136     263969136     263969136     263969136
 MEMORY| MemFree             245260016     245260016     245260016     245260016
 MEMORY| Buffers                   136           136           136           136
 MEMORY| Cached               12535296      12535296      12535296      12535296
 MEMORY| Slab                  1354868       1354868       1354868       1354868
 MEMORY| SReclaimable           818812        818812        818812        818812
 MEMORY| MemLikelyFree       258614260     258614260     258614260     258614260


 GENERATE|  Preliminary Number of Bonds generated:                             0
 GENERATE|  Achieved consistency in connectivity generation.

 *******************************************************************************
 *******************************************************************************
 **                                                                           **
 **     #####                         ##              ##                      **
 **    ##   ##            ##          ##              ##                      **
 **   ##     ##                       ##            ######                    **
 **   ##     ##  ##   ##  ##   #####  ##  ##   ####   ##    #####    #####    **
 **   ##     ##  ##   ##  ##  ##      ## ##   ##      ##   ##   ##  ##   ##   **
 **   ##  ## ##  ##   ##  ##  ##      ####     ###    ##   ######   ######    **
 **    ##  ###   ##   ##  ##  ##      ## ##      ##   ##   ##       ##        **
 **     #######   #####   ##   #####  ##  ##  ####    ##    #####   ##        **
 **           ##                                                    ##        **
 **                                                                           **
 **                                                ... make the atoms dance   **
 **                                                                           **
 **            Copyright (C) by CP2K developers group (2000-2022)             **
 **                      J. Chem. Phys. 152, 194103 (2020)                    **
 **                                                                           **
 *******************************************************************************


 TOTAL NUMBERS AND MAXIMUM NUMBERS

  Total number of            - Atomic kinds:                                   3
                             - Atoms:                                          3
                             - Shell sets:                                    44
                             - Shells:                                        44
                             - Primitive Cartesian functions:                 71
                             - Cartesian basis functions:                    179
                             - Spherical basis functions:                    144

  Maximum angular momentum of the orbital basis functions:                     4


 SCF PARAMETERS         Density guess:                                    ATOMIC
                        --------------------------------------------------------
                        max_scf:                                              10
                        max_scf_history:                                       0
                        max_diis:                                              4
                        --------------------------------------------------------
                        eps_scf:                                        1.00E-07
                        eps_scf_history:                                0.00E+00
                        eps_diis:                                       1.00E-01
                        eps_eigval:                                     1.00E-05
                        --------------------------------------------------------
                        level_shift [a.u.]:                                 0.00
                        --------------------------------------------------------
                        Outer loop SCF in use 
                        No variables optimised in outer loop
                        eps_scf                                         1.00E-07
                        max_scf                                               10
                        No outer loop optimization
                        step_size                                       5.00E-01

 Number of electrons:                                                         14
 Number of occupied orbitals:                                                  7
 Number of molecular orbitals:                                                 7

 Number of orbital functions:                                                144
 Number of independent orbital functions:                                    144

 Extrapolation method: initial_guess


 SCF WAVEFUNCTION OPTIMIZATION

  ----------------------------------- OT ---------------------------------------
  Minimizer      : DIIS                : direct inversion
                                         in the iterative subspace
                                         using   7 DIIS vectors
                                         safer DIIS on
  Preconditioner : FULL_ALL            : diagonalization, state selective
  Precond_solver : DEFAULT
  stepsize       :    0.15000000                  energy_gap     :    0.08000000
  eps_taylor     :   0.10000E-15                  max_taylor     :             4
  ----------------------------------- OT ---------------------------------------

  Step     Update method      Time    Convergence         Total energy    Change
  ------------------------------------------------------------------------------
     1 OT DIIS     0.15E+00    0.5     0.21544004       -88.2672226174 -8.83E+01
     2 OT DIIS     0.15E+00    0.6     0.06400088       -92.5986923399 -4.33E+00
     3 OT DIIS     0.15E+00    0.6     0.02686190       -93.0153513329 -4.17E-01
     4 OT DIIS     0.15E+00    0.6     0.02114424       -93.1014323433 -8.61E-02
     5 OT DIIS     0.15E+00    0.6     0.01500257       -93.2211298441 -1.20E-01
     6 OT DIIS     0.15E+00    0.6     0.00851816       -93.2990295923 -7.79E-02
     7 OT DIIS     0.15E+00    0.6     0.00513831       -93.3186594973 -1.96E-02
     8 OT DIIS     0.15E+00    0.6     0.00270562       -93.3278451463 -9.19E-03
     9 OT DIIS     0.15E+00    0.6     0.00134986       -93.3291590844 -1.31E-03
    10 OT DIIS     0.15E+00    0.6     0.00070740       -93.3295521032 -3.93E-04

  Leaving inner SCF loop after reaching    10 steps.


  Electronic density on regular grids:        -10.1669403143        3.8330596857
  Core density on regular grids:               14.0000000000       -0.0000000000
  Hard and soft densities (Lebedev):          -30.5862303998      -26.7531705558
  Total Rho_soft + Rho1_hard - Rho1_soft      -14.0000001583
  Total charge density (r-space):              -0.0000001583
  Total Rho_soft + Rho0_soft (g-space):        -0.0000002057

  Overlap energy of the core charge distribution:               0.00001484763986
  Self energy of the core charge distribution:                -78.32279732110520
  Core Hamiltonian energy:                                    -14.42767961085293
  Hartree energy:                                              29.00309963172878
  Exchange-correlation energy:                                 -4.59230713894328

  GAPW| Exc from hard and soft atomic rho1:                    -7.86265901319249
  GAPW| local Eh = 1 center integrals:                        -17.12722349844772

  Total energy:                                               -93.32955210317299

  outer SCF iter =    1 RMS gradient =   0.71E-03 energy =        -93.3295521032

  ----------------------------------- OT ---------------------------------------
  Minimizer      : DIIS                : direct inversion
                                         in the iterative subspace
                                         using   7 DIIS vectors
                                         safer DIIS on
  Preconditioner : FULL_ALL            : diagonalization, state selective
  Precond_solver : DEFAULT
  stepsize       :    0.15000000                  energy_gap     :    0.08000000
  eps_taylor     :   0.10000E-15                  max_taylor     :             4
  ----------------------------------- OT ---------------------------------------

  Step     Update method      Time    Convergence         Total energy    Change
  ------------------------------------------------------------------------------
     1 OT DIIS     0.15E+00    1.2     0.00071699       -93.3296987545 -1.47E-04
     2 OT DIIS     0.15E+00    0.6     0.00032531       -93.3297469405 -4.82E-05
     3 OT DIIS     0.15E+00    0.6     0.00033860       -93.3297521010 -5.16E-06
     4 OT DIIS     0.15E+00    0.6     0.00006008       -93.3297561919 -4.09E-06
     5 OT DIIS     0.15E+00    0.6     0.00000448       -93.3297563833 -1.91E-07
     6 OT DIIS     0.15E+00    0.6     0.00000116       -93.3297563853 -1.93E-09
     7 OT DIIS     0.15E+00    0.6     0.00000028       -93.3297563854 -1.30E-10
     8 OT DIIS     0.15E+00    0.6     0.00000003       -93.3297563854 -1.17E-12

  *** SCF run converged in     8 steps ***


  Electronic density on regular grids:        -10.1665804861        3.8334195139
  Core density on regular grids:               14.0000000000       -0.0000000000
  Hard and soft densities (Lebedev):          -30.6131438303      -26.7797241600
  Total Rho_soft + Rho1_hard - Rho1_soft      -14.0000001564
  Total charge density (r-space):              -0.0000001564
  Total Rho_soft + Rho0_soft (g-space):        -0.0000002038

  Overlap energy of the core charge distribution:               0.00001484763986
  Self energy of the core charge distribution:                -78.32279732110520
  Core Hamiltonian energy:                                    -14.42255561558725
  Hartree energy:                                              28.99890065778427
  Exchange-correlation energy:                                 -4.59419369418880

  GAPW| Exc from hard and soft atomic rho1:                    -7.86290309219219
  GAPW| local Eh = 1 center integrals:                        -17.12622216775506

  Total energy:                                               -93.32975638540438

  outer SCF iter =    2 RMS gradient =   0.33E-07 energy =        -93.3297563854
  outer SCF loop converged in   2 iterations or   18 steps


 ENERGY| Total FORCE_EVAL ( QS ) energy [a.u.]:              -93.329756385404380

 -------------------------------------------------------------------------------
 -                                                                             -
 -                                DBCSR STATISTICS                             -
 -                                                                             -
 -------------------------------------------------------------------------------
 COUNTER                                    TOTAL       BLAS       SMM       ACC
 flops     7 x     7 x     7                87808       0.0%    100.0%      0.0%
 flops     7 x     7 x    30               217560       0.0%    100.0%      0.0%
 flops    30 x    30 x     7               239400       0.0%    100.0%      0.0%
 flops    30 x     7 x     7               270480       0.0%    100.0%      0.0%
 flops    30 x    57 x     7               454860       0.0%    100.0%      0.0%
 flops    57 x    30 x     7               454860       0.0%    100.0%      0.0%
 flops     7 x     7 x    57               826728       0.0%    100.0%      0.0%
 flops    57 x     7 x     7              1027824       0.0%    100.0%      0.0%
 flops    30 x     7 x    30              1134000       0.0%    100.0%      0.0%
 flops    57 x    57 x     7              2592702       0.0%    100.0%      0.0%
 flops    57 x     7 x    30              4309200       0.0%    100.0%      0.0%
 flops    30 x     7 x    57              4309200       0.0%    100.0%      0.0%
 flops    57 x     7 x    57             16374960       0.0%    100.0%      0.0%
 flops inhomo. stacks                           0       0.0%      0.0%      0.0%
 flops total                        32.299582E+06       0.0%    100.0%      0.0%
 flops max/rank                     12.852322E+06       0.0%    100.0%      0.0%
 matmuls inhomo. stacks                         0       0.0%      0.0%      0.0%
 matmuls total                               1550       0.0%    100.0%      0.0%
 number of processed stacks                  1550       0.0%    100.0%      0.0%
 average stack size                                     0.0       1.0       0.0
 marketing flops                    34.101792E+06
 -------------------------------------------------------------------------------
 # multiplications                            405
 max memory usage/rank             316.268544E+06
 # max total images/rank                        1
 # max 3D layers                                1
 # MPI messages exchanged                  145800
 MPI messages size (bytes):
  total size                        90.169440E+06
  min size                           0.000000E+00
  max size                          25.992000E+03
  average size                     618.446106E+00
 MPI breakdown and total messages size (bytes):
             size <=      128              134490                        0
       128 < size <=     8192                7710                 18759840
      8192 < size <=    32768                3600                 71409600
     32768 < size <=   131072                   0                        0
    131072 < size <=  4194304                   0                        0
   4194304 < size <= 16777216                   0                        0
  16777216 < size                               0                        0
 -------------------------------------------------------------------------------
 -                                                                             -
 -                      DBCSR MESSAGE PASSING PERFORMANCE                      -
 -                                                                             -
 -------------------------------------------------------------------------------
 ROUTINE             CALLS      AVE VOLUME [Bytes]
 MP_Bcast               14                     12.
 MP_Allreduce         2161                      8.
 MP_Alltoall          1634                   2515.
 MP_ISend             9712                    920.
 MP_IRecv             9712                    543.
 -------------------------------------------------------------------------------

 -------------------------------------------------------------------------------
 -                                                                             -
 -                                GRID STATISTICS                              -
 -                                                                             -
 -------------------------------------------------------------------------------
 LP    KERNEL             BACKEND                              COUNT     PERCENT
 2     collocate ortho    REF                                   5282      11.00%
 2     integrate ortho    REF                                   5004      10.42%
 1     collocate ortho    REF                                   4731       9.85%
 3     collocate ortho    REF                                   4484       9.34%
 1     integrate ortho    REF                                   4482       9.33%
 3     integrate ortho    REF                                   4248       8.84%
 4     collocate ortho    REF                                   3097       6.45%
 4     integrate ortho    REF                                   2934       6.11%
 0     collocate ortho    REF                                   2299       4.79%
 0     integrate ortho    REF                                   2178       4.53%
 2     collocate general  REF                                   1944       4.05%
 2     integrate general  REF                                   1944       4.05%
 5     collocate ortho    REF                                   1710       3.56%
 5     integrate ortho    REF                                   1620       3.37%
 6     collocate ortho    REF                                    741       1.54%
 6     integrate ortho    REF                                    702       1.46%
 7     collocate ortho    REF                                    266       0.55%
 7     integrate ortho    REF                                    252       0.52%
 8     collocate ortho    REF                                     57       0.12%
 8     integrate ortho    REF                                     54       0.11%
 -------------------------------------------------------------------------------

 MEMORY| Estimated peak process memory [MiB]                                 302

 -------------------------------------------------------------------------------
 -                                                                             -
 -                         MESSAGE PASSING PERFORMANCE                         -
 -                                                                             -
 -------------------------------------------------------------------------------

 ROUTINE             CALLS      AVE VOLUME [Bytes]
 MP_Group                4
 MP_Bcast              362                 637138.
 MP_Allreduce         1234                  48736.
 MP_Sync                36
 MP_Alltoall           416                7551134.
 MP_ISendRecv         3885                  92352.
 MP_Wait              7462
 MP_comm_split          16
 MP_ISend             3212                 224118.
 MP_IRecv             3212                 224151.
 MP_Recv                 3                   2304.
 -------------------------------------------------------------------------------


 -------------------------------------------------------------------------------
 -                                                                             -
 -                           R E F E R E N C E S                               -
 -                                                                             -
 -------------------------------------------------------------------------------
 
 CP2K version 10.0 (Development Version), the CP2K developers group (2022).
 CP2K is freely available from https://www.cp2k.org/ .

 Kuehne,Thomas D.; Iannuzzi,Marcella; Del Ben,Mauro;
 Rybkin,Vladimir V.; Seewald,Patrick; Stein,Frederick; Laino,Teodoro;
 Khaliullin,Rustam Z.; Schuett,Ole; Schiffmann,Florian; Golze,Dorothea;
 Wilhelm,Jan; Chulkov,Sergey; Bani-Hashemian,Mohammad Hossein;
 Weber,Valery; Borstnik,Urban; Taillefumier,Mathieu;
 Jakobovits,Alice Shoshana; Lazzaro,Alfio; Pabst,Hans; Mueller,Tiziano;
 Schade,Robert; Guidon,Manuel; Andermatt,Samuel; Holmberg,Nico;
 Schenter,Gregory K.; Hehn,Anna; Bussy,Augustin; Belleflamme,Fabian;
 Tabacchi,Gloria; Gloess,Andreas; Lass,Michael; Bethune,Iain;
 Mundy,Christopher J.; Plessl,Christian; Watkins,Matt;
 VandeVondele,Joost; Krack,Matthias; Hutter,Juerg. 
 The Journal of Chemical Physics, 152 (19), (2020). 
 CP2K: An electronic structure and molecular dynamics software package -
 Quickstep: Efficient and accurate electronic structure calculations.
 https://doi.org/10.1063/5.0007045

 Schuett, Ole; Messmer, Peter; Hutter, Juerg; VandeVondele, Joost. 
 Electronic Structure Calculations on Graphics Processing Units, John
 Wiley & Sons, Ltd, 173-190 (2016). 
 GPU-Accelerated Sparse Matrix-Matrix Multiplication for
 Linear Scaling Density Functional Theory.
 https://doi.org/10.1002/9781118670712.ch8

 Heinecke, A; Henry, G; Hutchinson, M; Pabst, H. 
 Proceedings of Intl. Supercomputing Conference, 981-991 (2016). 
 LIBXSMM: Accelerating Small Matrix Multiplications
 by Runtime Code Generation.
 https://doi.org/10.1109/SC.2016.83

 Borstnik, U; VandeVondele, J; Weber, V; Hutter, J. 
 PARALLEL COMPUTING, 40 (5-6), 47-58 (2014). 
 Sparse matrix multiplication: The distributed block-compressed sparse
 row library.
 https://doi.org/10.1016/j.parco.2014.03.012

 Hutter, J; Iannuzzi, M; Schiffmann, F; VandeVondele, J. 
 WIREs Comput Mol Sci., 4 (1), 15-25 (2014). 
 CP2K: atomistic simulations of condensed matter systems.
 https://doi.org/10.1002/wcms.1159

 Frigo, M; Johnson, SG. 
 PROCEEDINGS OF THE IEEE, 93 (2), 216-231 (2005). 
 The design and implementation of FFTW3.
 https://doi.org/10.1109/JPROC.2004.840301

 VandeVondele, J; Hutter, J. 
 JOURNAL OF CHEMICAL PHYSICS, 118 (10), 4365-4369 (2003). 
 An efficient orbital transformation method for electronic structure
 calculations.
 https://doi.org/10.1063/1.1543154

 Lippert, G; Hutter, J; Parrinello, M. 
 THEORETICAL CHEMISTRY ACCOUNTS, 103 (2), 124-140 (1999). 
 The Gaussian and augmented-plane-wave density functional method for ab
 initio molecular dynamics simulations.
 https://doi.org/10.1007/s002140050523

 Krack, M; Parrinello, M. 
 PHYSICAL CHEMISTRY CHEMICAL PHYSICS, 2 (10), 2105-2112 (2000). 
 All-electron ab-initio molecular dynamics.
 https://doi.org/10.1039/b001167n

 Perdew, JP; Burke, K; Ernzerhof, M. 
 PHYSICAL REVIEW LETTERS, 77 (18), 3865-3868 (1996). 
 Generalized gradient approximation made simple.
 https://doi.org/10.1103/PhysRevLett.77.3865


 -------------------------------------------------------------------------------
 -                                                                             -
 -                                T I M I N G                                  -
 -                                                                             -
 -------------------------------------------------------------------------------
 SUBROUTINE                       CALLS  ASD         SELF TIME        TOTAL TIME
                                MAXIMUM       AVERAGE  MAXIMUM  AVERAGE  MAXIMUM
 CP2K                                 1  1.0    0.006    0.032   10.811   10.812
 qs_energies                          1  2.0    0.000    0.000   10.600   10.600
 scf_env_do_scf                       1  3.0    0.000    0.000   10.470   10.471
 scf_env_do_scf_inner_loop           18  4.0    0.000    0.002    9.458    9.458
 qs_ks_update_qs_env                 20  5.0    0.000    0.000    8.482    8.483
 rebuild_ks_matrix                   18  6.0    0.000    0.000    8.479    8.480
 qs_ks_build_kohn_sham_matrix        18  7.0    0.004    0.004    8.479    8.480
 pw_transfer                        383 10.1    0.035    0.042    3.260    3.630
 fft_wrap_pw1pw2                    329 11.2    0.004    0.005    3.199    3.573
 fft_wrap_pw1pw2_250                218 12.6    0.189    0.238    3.033    3.383
 fft3d_ps                           329 13.2    1.209    1.484    2.536    2.956
 qs_vxc_create                       18  8.0    0.000    0.001    2.574    2.574
 xc_vxc_pw_create                    18  9.0    0.018    0.021    2.573    2.573
 rs_pw_transfer                     184  9.5    0.004    0.005    2.396    2.512
 xc_pw_derive                       108 11.0    0.001    0.001    1.812    2.189
 prepare_gapw_den                    18  8.0    0.001    0.001    1.863    1.879
 mp_alltoall_z22v                   329 15.2    1.079    1.765    1.079    1.765
 mp_sum_d                           916  5.8    1.627    1.753    1.627    1.753
 qs_rho_update_rho                   19  5.0    0.000    0.000    1.678    1.680
 xc_pw_divergence                    18 10.0    0.000    0.001    1.281    1.656
 calculate_rho_elec                  19  6.0    0.010    0.011    1.628    1.628
 xc_rho_set_and_dset_create          18 10.0    0.019    0.023    1.225    1.544
 density_rs2pw                       19  7.0    0.001    0.001    1.332    1.429
 calculate_vxc_atom                  18  8.0    0.013    0.186    1.359    1.360
 yz_to_x                            147 14.1    0.102    0.164    0.819    1.335
 sum_up_and_integrate                18  8.0    0.006    0.011    1.322    1.323
 integrate_v_rspace                  18  9.0    0.000    0.001    1.316    1.319
 potential_pw2rs                     18 10.0    0.001    0.001    1.093    1.095
 gaVxcgb_GC                          54  9.0    0.030    1.075    0.030    1.075
 calculate_rho_atom                  54  9.0    0.404    1.042    0.404    1.042
 rs_pw_transfer_RS2PW_250            37 10.0    0.488    0.568    0.917    1.017
 init_scf_loop                        2  4.0    0.000    0.000    1.012    1.012
 rs_pw_transfer_PW2RS_250            36 11.0    0.475    0.577    0.896    0.925
 mp_waitany                        3212 11.5    0.675    0.910    0.675    0.910
 integrate_vhg0_rspace               18  8.0    0.071    0.101    0.766    0.779
 put_rho0_on_grid                    18  9.0    0.011    0.013    0.729    0.745
 xc_functional_eval                 126 10.9    0.000    0.001    0.394    0.680
 pbe_lda_eval                       126 11.9    0.394    0.680    0.394    0.680
 mp_sum_dv                          310 12.7    0.547    0.594    0.547    0.594
 x_to_yz                            145 14.6    0.124    0.173    0.485    0.579
 mp_waitall_1                     30170 13.8    0.416    0.520    0.416    0.520
 grid_collocate_task_list            19  7.0    0.248    0.434    0.248    0.434
 qs_scf_new_mos                      18  5.0    0.000    0.000    0.334    0.335
 qs_scf_loop_do_ot                   18  6.0    0.000    0.000    0.334    0.335
 dbcsr_multiply_generic             405 10.0    0.011    0.012    0.324    0.328
 ot_scf_mini                         18  7.0    0.000    0.000    0.319    0.320
 pw_gather_p                        166 12.8    0.227    0.305    0.227    0.305
 rs_pw_transfer_PW2RS_90             18 12.0    0.054    0.064    0.241    0.292
 pw_scatter_p                       163 13.7    0.235    0.262    0.235    0.262
 calculate_rho0_atom                 54  9.0    0.184    0.242    0.184    0.242
 mp_alltoall_d11v                   421 11.4    0.180    0.233    0.180    0.233
 rs_gather_matrices                  18 10.0    0.000    0.001    0.169    0.222
 rs_grid_zero                        72 10.8    0.195    0.221    0.195    0.221
 grid_integrate_task_list            18 10.0    0.053    0.221    0.053    0.221
 mp_sum_dm                          168  7.6    0.170    0.218    0.170    0.218
 -------------------------------------------------------------------------------

 The number of warnings for this run is : 0
 
 -------------------------------------------------------------------------------
  **** **** ******  **  PROGRAM ENDED AT                 2022-05-09 20:44:06.863
 ***** ** ***  *** **   PROGRAM RAN ON                                   tcopt10
 **    ****   ******    PROGRAM RAN BY                                    hutter
 ***** **    ** ** **   PROGRAM PROCESS ID                                 49424
  **** **  *******  **  PROGRAM STOPPED IN /data/hutter/GITHUB/BASIS/scMOLOPT/PB
                                           E/hbcnof
