 DBCSR| CPU Multiplication driver                                           XSMM
 DBCSR| Multrec recursion limit                                              512
 DBCSR| Multiplication stack size                                           1000
 DBCSR| Maximum elements for images                                    UNLIMITED
 DBCSR| Multiplicative factor virtual images                                   1
 DBCSR| Use multiplication densification                                       T
 DBCSR| Multiplication size stacks                                             3
 DBCSR| Use memory pool for CPU allocation                                     F
 DBCSR| Number of 3D layers                                               SINGLE
 DBCSR| Use MPI memory allocation                                              F
 DBCSR| Use RMA algorithm                                                      F
 DBCSR| Use Communication thread                                               T
 DBCSR| Communication thread load                                             87
 DBCSR| MPI: My node id                                                        0
 DBCSR| MPI: Number of nodes                                                  36
 DBCSR| OMP: Current number of threads                                         1
 DBCSR| OMP: Max number of threads                                             1
 DBCSR| Split modifier for TAS multiplication algorithm                  1.0E+00


  **** **** ******  **  PROGRAM STARTED AT               2022-05-09 20:42:34.766
 ***** ** ***  *** **   PROGRAM STARTED ON                               tcopt10
 **    ****   ******    PROGRAM STARTED BY                                hutter
 ***** **    ** ** **   PROGRAM PROCESS ID                                 48867
  **** **  *******  **  PROGRAM STARTED IN /data/hutter/GITHUB/BASIS/scMOLOPT/PB
                                           E/hbcnof

 CP2K| version string:                   CP2K version 10.0 (Development Version)
 CP2K| source code revision number:                                  git:57d9aec
 CP2K| cp2kflags: omp libint fftw3 libxc elpa parallel mpi3 scalapack cosma xsmm
 CP2K|             spglib sirius libvori libbqb
 CP2K| is freely available from                            https://www.cp2k.org/
 CP2K| Program compiled at                      Fri 06 May 2022 02:09:00 PM CEST
 CP2K| Program compiled on                                               tcopt10
 CP2K| Program compiled for                                                local
 CP2K| Data directory path                   /data/hutter/GITHUB/TDLRI/cp2k/data
 CP2K| Input file name                                                N2-ref.inp

 GLOBAL| Force Environment number                                              1
 GLOBAL| Basis set file name                                        ../def2QZVPP
 GLOBAL| Potential file name                                        ../POTENTIAL
 GLOBAL| MM Potential file name                                     MM_POTENTIAL
 GLOBAL| Coordinate file name                                      __STD_INPUT__
 GLOBAL| Method name                                                        CP2K
 GLOBAL| Project name                                                      refN2
 GLOBAL| Run type                                                         ENERGY
 GLOBAL| FFT library                                                       FFTW3
 GLOBAL| Diagonalization library                                       ScaLAPACK
 GLOBAL| Orthonormality check for eigenvectors                          DISABLED
 GLOBAL| Matrix multiplication library                                     COSMA
 GLOBAL| All-to-all communication in single precision                          F
 GLOBAL| FFTs using library dependent lengths                                  F
 GLOBAL| Grid backend                                                       AUTO
 GLOBAL| Global print level                                                  LOW
 GLOBAL| MPI I/O enabled                                                       T
 GLOBAL| Total number of message passing processes                            36
 GLOBAL| Number of threads for this process                                    1
 GLOBAL| This output is from process                                           0
 GLOBAL| Stack size for threads created by OpenMP (OMP_STACKSIZE)        default
 GLOBAL| CPU model name                          AMD EPYC 7401 24-Core Processor
 GLOBAL| CPUID                                                              1002

 MEMORY| system memory details [Kb]
 MEMORY|                        rank 0           min           max       average
 MEMORY| MemTotal            263969136     263969136     263969136     263969136
 MEMORY| MemFree             245301404     245301404     245301404     245301404
 MEMORY| Buffers                   136           136           136           136
 MEMORY| Cached               12534232      12534232      12534232      12534232
 MEMORY| Slab                  1353040       1353040       1353040       1353040
 MEMORY| SReclaimable           819404        819404        819404        819404
 MEMORY| MemLikelyFree       258655176     258655176     258655176     258655176


 GENERATE|  Preliminary Number of Bonds generated:                             1
 GENERATE|  Achieved consistency in connectivity generation.
 GENERATE|  Number of Bonds generated:                                         1
 GENERATE|  Preliminary Number of Bends generated:                             0
 GENERATE|  Preliminary Number of Torsions generated:                          0

 *******************************************************************************
 *******************************************************************************
 **                                                                           **
 **     #####                         ##              ##                      **
 **    ##   ##            ##          ##              ##                      **
 **   ##     ##                       ##            ######                    **
 **   ##     ##  ##   ##  ##   #####  ##  ##   ####   ##    #####    #####    **
 **   ##     ##  ##   ##  ##  ##      ## ##   ##      ##   ##   ##  ##   ##   **
 **   ##  ## ##  ##   ##  ##  ##      ####     ###    ##   ######   ######    **
 **    ##  ###   ##   ##  ##  ##      ## ##      ##   ##   ##       ##        **
 **     #######   #####   ##   #####  ##  ##  ####    ##    #####   ##        **
 **           ##                                                    ##        **
 **                                                                           **
 **                                                ... make the atoms dance   **
 **                                                                           **
 **            Copyright (C) by CP2K developers group (2000-2022)             **
 **                      J. Chem. Phys. 152, 194103 (2020)                    **
 **                                                                           **
 *******************************************************************************


 TOTAL NUMBERS AND MAXIMUM NUMBERS

  Total number of            - Atomic kinds:                                   1
                             - Atoms:                                          2
                             - Shell sets:                                    34
                             - Shells:                                        34
                             - Primitive Cartesian functions:                 58
                             - Cartesian basis functions:                    144
                             - Spherical basis functions:                    114

  Maximum angular momentum of the orbital basis functions:                     4


 SCF PARAMETERS         Density guess:                                    ATOMIC
                        --------------------------------------------------------
                        max_scf:                                              10
                        max_scf_history:                                       0
                        max_diis:                                              4
                        --------------------------------------------------------
                        eps_scf:                                        1.00E-07
                        eps_scf_history:                                0.00E+00
                        eps_diis:                                       1.00E-01
                        eps_eigval:                                     1.00E-05
                        --------------------------------------------------------
                        level_shift [a.u.]:                                 0.00
                        --------------------------------------------------------
                        Outer loop SCF in use 
                        No variables optimised in outer loop
                        eps_scf                                         1.00E-07
                        max_scf                                               10
                        No outer loop optimization
                        step_size                                       5.00E-01

 Number of electrons:                                                         14
 Number of occupied orbitals:                                                  7
 Number of molecular orbitals:                                                 7

 Number of orbital functions:                                                114
 Number of independent orbital functions:                                    114

 Extrapolation method: initial_guess


 SCF WAVEFUNCTION OPTIMIZATION

  ----------------------------------- OT ---------------------------------------
  Minimizer      : DIIS                : direct inversion
                                         in the iterative subspace
                                         using   7 DIIS vectors
                                         safer DIIS on
  Preconditioner : FULL_ALL            : diagonalization, state selective
  Precond_solver : DEFAULT
  stepsize       :    0.15000000                  energy_gap     :    0.08000000
  eps_taylor     :   0.10000E-15                  max_taylor     :             4
  ----------------------------------- OT ---------------------------------------

  Step     Update method      Time    Convergence         Total energy    Change
  ------------------------------------------------------------------------------
     1 OT DIIS     0.15E+00    0.4     0.15534141      -106.2735737081 -1.06E+02
     2 OT DIIS     0.15E+00    0.5     0.06749119      -108.2118341948 -1.94E+00
     3 OT DIIS     0.15E+00    0.5     0.03566038      -108.6737509746 -4.62E-01
     4 OT DIIS     0.15E+00    0.5     0.02647170      -108.8065949910 -1.33E-01
     5 OT DIIS     0.15E+00    0.5     0.02345670      -108.9123294564 -1.06E-01
     6 OT SD       0.15E+00    0.5     0.02398921      -108.9711079084 -5.88E-02
     7 OT SD       0.15E+00    0.5     0.02531478      -109.0418029983 -7.07E-02
     8 OT DIIS     0.15E+00    0.5     0.02601098      -109.1197924484 -7.80E-02
     9 OT SD       0.15E+00    0.5     0.02719343      -109.1975132841 -7.77E-02
    10 OT DIIS     0.15E+00    0.5     0.02359493      -109.2795973791 -8.21E-02

  Leaving inner SCF loop after reaching    10 steps.


  Electronic density on regular grids:        -10.2001033439        3.7998966561
  Core density on regular grids:               14.0000000000        0.0000000000
  Hard and soft densities (Lebedev):          -24.1507802378      -20.3508834203
  Total Rho_soft + Rho1_hard - Rho1_soft      -14.0000001614
  Total charge density (r-space):              -0.0000001614
  Total Rho_soft + Rho0_soft (g-space):        -0.0000002636

  Overlap energy of the core charge distribution:               0.00000644596768
  Self energy of the core charge distribution:                -95.59915348636920
  Core Hamiltonian energy:                                    -14.88794042116379
  Hartree energy:                                              21.59221680985379
  Exchange-correlation energy:                                 -5.05489833019677

  GAPW| Exc from hard and soft atomic rho1:                    -8.50331918783968
  GAPW| local Eh = 1 center integrals:                         -6.82650920933608

  Total energy:                                              -109.27959737908407

  outer SCF iter =    1 RMS gradient =   0.24E-01 energy =       -109.2795973791

  ----------------------------------- OT ---------------------------------------
  Minimizer      : DIIS                : direct inversion
                                         in the iterative subspace
                                         using   7 DIIS vectors
                                         safer DIIS on
  Preconditioner : FULL_ALL            : diagonalization, state selective
  Precond_solver : DEFAULT
  stepsize       :    0.15000000                  energy_gap     :    0.08000000
  eps_taylor     :   0.10000E-15                  max_taylor     :             4
  ----------------------------------- OT ---------------------------------------

  Step     Update method      Time    Convergence         Total energy    Change
  ------------------------------------------------------------------------------
     1 OT DIIS     0.15E+00    1.0     0.05982985      -108.6035757390  6.76E-01
     2 OT DIIS     0.15E+00    0.5     0.07448403      -108.8369457106 -2.33E-01
     3 OT DIIS     0.15E+00    0.5     0.05598972      -108.9875818570 -1.51E-01
     4 OT SD       0.15E+00    0.5     0.05433349      -109.0960411432 -1.08E-01
     5 OT SD       0.15E+00    0.5     0.03759103      -109.3734202467 -2.77E-01
     6 OT DIIS     0.15E+00    0.5     0.03971858      -109.4122592340 -3.88E-02
     7 OT DIIS     0.15E+00    0.5     0.05044453      -109.2758177344  1.36E-01
     8 OT DIIS     0.15E+00    0.5     0.03408008      -109.3928471906 -1.17E-01
     9 OT DIIS     0.15E+00    0.5     0.02706408      -109.4181051013 -2.53E-02
    10 OT SD       0.15E+00    0.5     0.00890018      -109.4528789250 -3.48E-02

  Leaving inner SCF loop after reaching    10 steps.


  Electronic density on regular grids:        -10.2055110907        3.7944889093
  Core density on regular grids:               14.0000000000        0.0000000000
  Hard and soft densities (Lebedev):          -24.6321740361      -20.8376849727
  Total Rho_soft + Rho1_hard - Rho1_soft      -14.0000001542
  Total charge density (r-space):              -0.0000001542
  Total Rho_soft + Rho0_soft (g-space):        -0.0000002565

  Overlap energy of the core charge distribution:               0.00000644596768
  Self energy of the core charge distribution:                -95.59915348636920
  Core Hamiltonian energy:                                    -15.04451156608349
  Hartree energy:                                              21.58079203760163
  Exchange-correlation energy:                                 -5.05837820022370

  GAPW| Exc from hard and soft atomic rho1:                    -8.49746690336750
  GAPW| local Eh = 1 center integrals:                         -6.83416725252556

  Total energy:                                              -109.45287892500014

  outer SCF iter =    2 RMS gradient =   0.89E-02 energy =       -109.4528789250

  ----------------------------------- OT ---------------------------------------
  Minimizer      : DIIS                : direct inversion
                                         in the iterative subspace
                                         using   7 DIIS vectors
                                         safer DIIS on
  Preconditioner : FULL_ALL            : diagonalization, state selective
  Precond_solver : DEFAULT
  stepsize       :    0.15000000                  energy_gap     :    0.08000000
  eps_taylor     :   0.10000E-15                  max_taylor     :             4
  ----------------------------------- OT ---------------------------------------

  Step     Update method      Time    Convergence         Total energy    Change
  ------------------------------------------------------------------------------
     1 OT DIIS     0.15E+00    1.0     0.00410921      -109.4566743808 -3.80E-03
     2 OT DIIS     0.15E+00    0.5     0.00456335      -109.4572749974 -6.01E-04
     3 OT DIIS     0.15E+00    0.5     0.00155201      -109.4577282350 -4.53E-04
     4 OT DIIS     0.15E+00    0.5     0.00007816      -109.4578426541 -1.14E-04
     5 OT DIIS     0.15E+00    0.5     0.00000978      -109.4578431644 -5.10E-07
     6 OT DIIS     0.15E+00    0.5     0.00000264      -109.4578431718 -7.33E-09
     7 OT DIIS     0.15E+00    0.5     0.00000020      -109.4578431724 -6.48E-10
     8 OT DIIS     0.15E+00    0.5     0.00000004      -109.4578431724 -7.69E-12

  *** SCF run converged in     8 steps ***


  Electronic density on regular grids:        -10.2049412425        3.7950587575
  Core density on regular grids:               14.0000000000        0.0000000000
  Hard and soft densities (Lebedev):          -24.6133720730      -20.8183131611
  Total Rho_soft + Rho1_hard - Rho1_soft      -14.0000001545
  Total charge density (r-space):              -0.0000001545
  Total Rho_soft + Rho0_soft (g-space):        -0.0000002567

  Overlap energy of the core charge distribution:               0.00000644596768
  Self energy of the core charge distribution:                -95.59915348636920
  Core Hamiltonian energy:                                    -15.02295110394824
  Hartree energy:                                              21.55732662722887
  Exchange-correlation energy:                                 -5.06247562080057

  GAPW| Exc from hard and soft atomic rho1:                    -8.49855518419630
  GAPW| local Eh = 1 center integrals:                         -6.83204085030487

  Total energy:                                              -109.45784317242263

  outer SCF iter =    3 RMS gradient =   0.37E-07 energy =       -109.4578431724
  outer SCF loop converged in   3 iterations or   28 steps


 ENERGY| Total FORCE_EVAL ( QS ) energy [a.u.]:             -109.457843172422628

 -------------------------------------------------------------------------------
 -                                                                             -
 -                                DBCSR STATISTICS                             -
 -                                                                             -
 -------------------------------------------------------------------------------
 COUNTER                                    TOTAL       BLAS       SMM       ACC
 flops     7 x     7 x     7               163268       0.0%    100.0%      0.0%
 flops     7 x     7 x    57              1284780       0.0%    100.0%      0.0%
 flops    57 x     7 x     7              1597596       0.0%    100.0%      0.0%
 flops    57 x    57 x     7              3957282       0.0%    100.0%      0.0%
 flops    57 x     7 x    57             25108272       0.0%    100.0%      0.0%
 flops inhomo. stacks                           0       0.0%      0.0%      0.0%
 flops total                        32.111198E+06       0.0%    100.0%      0.0%
 flops max/rank                     16.120076E+06       0.0%    100.0%      0.0%
 matmuls inhomo. stacks                         0       0.0%      0.0%      0.0%
 matmuls total                               1393       0.0%    100.0%      0.0%
 number of processed stacks                  1393       0.0%    100.0%      0.0%
 average stack size                                     0.0       1.0       0.0
 marketing flops                    33.463792E+06
 -------------------------------------------------------------------------------
 # multiplications                            666
 max memory usage/rank             296.431616E+06
 # max total images/rank                        1
 # max 3D layers                                1
 # MPI messages exchanged                  239760
 MPI messages size (bytes):
  total size                        91.113640E+06
  min size                           0.000000E+00
  max size                          25.992000E+03
  average size                     380.020172E+00
 MPI breakdown and total messages size (bytes):
             size <=      128              228215                        0
       128 < size <=     8192                8785                 19375720
      8192 < size <=    32768                2760                 71737920
     32768 < size <=   131072                   0                        0
    131072 < size <=  4194304                   0                        0
   4194304 < size <= 16777216                   0                        0
  16777216 < size                               0                        0
 -------------------------------------------------------------------------------
 -                                                                             -
 -                      DBCSR MESSAGE PASSING PERFORMANCE                      -
 -                                                                             -
 -------------------------------------------------------------------------------
 ROUTINE             CALLS      AVE VOLUME [Bytes]
 MP_Bcast                6                     12.
 MP_Allreduce         3506                      8.
 MP_Alltoall          2616                   2434.
 MP_ISend            15972                    708.
 MP_IRecv            15972                    354.
 -------------------------------------------------------------------------------

 -------------------------------------------------------------------------------
 -                                                                             -
 -                                GRID STATISTICS                              -
 -                                                                             -
 -------------------------------------------------------------------------------
 LP    KERNEL             BACKEND                              COUNT     PERCENT
 2     collocate ortho    REF                                   4756      10.91%
 2     integrate ortho    REF                                   4592      10.53%
 3     collocate ortho    REF                                   4002       9.18%
 3     integrate ortho    REF                                   3864       8.86%
 1     collocate ortho    REF                                   3538       8.12%
 1     integrate ortho    REF                                   3416       7.84%
 4     collocate ortho    REF                                   3219       7.38%
 4     integrate ortho    REF                                   3108       7.13%
 2     collocate general  REF                                   2016       4.62%
 2     integrate general  REF                                   2016       4.62%
 5     collocate ortho    REF                                   1914       4.39%
 5     integrate ortho    REF                                   1848       4.24%
 0     collocate ortho    REF                                   1392       3.19%
 0     integrate ortho    REF                                   1344       3.08%
 6     collocate ortho    REF                                    870       2.00%
 6     integrate ortho    REF                                    840       1.93%
 7     collocate ortho    REF                                    348       0.80%
 7     integrate ortho    REF                                    336       0.77%
 8     collocate ortho    REF                                     87       0.20%
 8     integrate ortho    REF                                     84       0.19%
 -------------------------------------------------------------------------------

 MEMORY| Estimated peak process memory [MiB]                                 283

 -------------------------------------------------------------------------------
 -                                                                             -
 -                         MESSAGE PASSING PERFORMANCE                         -
 -                                                                             -
 -------------------------------------------------------------------------------

 ROUTINE             CALLS      AVE VOLUME [Bytes]
 MP_Group                4
 MP_Bcast              448                 181174.
 MP_Allreduce         1605                  54161.
 MP_Sync                62
 MP_Alltoall           636                5327132.
 MP_ISendRecv         5985                  92352.
 MP_Wait             11522
 MP_comm_split          29
 MP_ISend             4972                 224124.
 MP_IRecv             4972                 224145.
 MP_Recv                 6                   1824.
 -------------------------------------------------------------------------------


 -------------------------------------------------------------------------------
 -                                                                             -
 -                           R E F E R E N C E S                               -
 -                                                                             -
 -------------------------------------------------------------------------------
 
 CP2K version 10.0 (Development Version), the CP2K developers group (2022).
 CP2K is freely available from https://www.cp2k.org/ .

 Kuehne,Thomas D.; Iannuzzi,Marcella; Del Ben,Mauro;
 Rybkin,Vladimir V.; Seewald,Patrick; Stein,Frederick; Laino,Teodoro;
 Khaliullin,Rustam Z.; Schuett,Ole; Schiffmann,Florian; Golze,Dorothea;
 Wilhelm,Jan; Chulkov,Sergey; Bani-Hashemian,Mohammad Hossein;
 Weber,Valery; Borstnik,Urban; Taillefumier,Mathieu;
 Jakobovits,Alice Shoshana; Lazzaro,Alfio; Pabst,Hans; Mueller,Tiziano;
 Schade,Robert; Guidon,Manuel; Andermatt,Samuel; Holmberg,Nico;
 Schenter,Gregory K.; Hehn,Anna; Bussy,Augustin; Belleflamme,Fabian;
 Tabacchi,Gloria; Gloess,Andreas; Lass,Michael; Bethune,Iain;
 Mundy,Christopher J.; Plessl,Christian; Watkins,Matt;
 VandeVondele,Joost; Krack,Matthias; Hutter,Juerg. 
 The Journal of Chemical Physics, 152 (19), (2020). 
 CP2K: An electronic structure and molecular dynamics software package -
 Quickstep: Efficient and accurate electronic structure calculations.
 https://doi.org/10.1063/5.0007045

 Schuett, Ole; Messmer, Peter; Hutter, Juerg; VandeVondele, Joost. 
 Electronic Structure Calculations on Graphics Processing Units, John
 Wiley & Sons, Ltd, 173-190 (2016). 
 GPU-Accelerated Sparse Matrix-Matrix Multiplication for
 Linear Scaling Density Functional Theory.
 https://doi.org/10.1002/9781118670712.ch8

 Heinecke, A; Henry, G; Hutchinson, M; Pabst, H. 
 Proceedings of Intl. Supercomputing Conference, 981-991 (2016). 
 LIBXSMM: Accelerating Small Matrix Multiplications
 by Runtime Code Generation.
 https://doi.org/10.1109/SC.2016.83

 Borstnik, U; VandeVondele, J; Weber, V; Hutter, J. 
 PARALLEL COMPUTING, 40 (5-6), 47-58 (2014). 
 Sparse matrix multiplication: The distributed block-compressed sparse
 row library.
 https://doi.org/10.1016/j.parco.2014.03.012

 Hutter, J; Iannuzzi, M; Schiffmann, F; VandeVondele, J. 
 WIREs Comput Mol Sci., 4 (1), 15-25 (2014). 
 CP2K: atomistic simulations of condensed matter systems.
 https://doi.org/10.1002/wcms.1159

 Frigo, M; Johnson, SG. 
 PROCEEDINGS OF THE IEEE, 93 (2), 216-231 (2005). 
 The design and implementation of FFTW3.
 https://doi.org/10.1109/JPROC.2004.840301

 VandeVondele, J; Hutter, J. 
 JOURNAL OF CHEMICAL PHYSICS, 118 (10), 4365-4369 (2003). 
 An efficient orbital transformation method for electronic structure
 calculations.
 https://doi.org/10.1063/1.1543154

 Lippert, G; Hutter, J; Parrinello, M. 
 THEORETICAL CHEMISTRY ACCOUNTS, 103 (2), 124-140 (1999). 
 The Gaussian and augmented-plane-wave density functional method for ab
 initio molecular dynamics simulations.
 https://doi.org/10.1007/s002140050523

 Krack, M; Parrinello, M. 
 PHYSICAL CHEMISTRY CHEMICAL PHYSICS, 2 (10), 2105-2112 (2000). 
 All-electron ab-initio molecular dynamics.
 https://doi.org/10.1039/b001167n

 Perdew, JP; Burke, K; Ernzerhof, M. 
 PHYSICAL REVIEW LETTERS, 77 (18), 3865-3868 (1996). 
 Generalized gradient approximation made simple.
 https://doi.org/10.1103/PhysRevLett.77.3865


 -------------------------------------------------------------------------------
 -                                                                             -
 -                                T I M I N G                                  -
 -                                                                             -
 -------------------------------------------------------------------------------
 SUBROUTINE                       CALLS  ASD         SELF TIME        TOTAL TIME
                                MAXIMUM       AVERAGE  MAXIMUM  AVERAGE  MAXIMUM
 CP2K                                 1  1.0    0.005    0.023   14.272   14.273
 qs_energies                          1  2.0    0.000    0.000   14.142   14.142
 scf_env_do_scf                       1  3.0    0.000    0.000   14.021   14.021
 scf_env_do_scf_inner_loop           28  4.0    0.001    0.002   12.778   12.779
 qs_ks_update_qs_env                 31  5.0    0.000    0.000   10.934   10.935
 rebuild_ks_matrix                   28  6.0    0.000    0.000   10.929   10.929
 qs_ks_build_kohn_sham_matrix        28  7.0    0.005    0.006   10.929   10.929
 pw_transfer                        593 10.1    0.055    0.061    5.007    5.465
 fft_wrap_pw1pw2                    509 11.3    0.006    0.007    4.914    5.362
 fft_wrap_pw1pw2_250                338 12.7    0.293    0.367    4.653    5.143
 fft3d_ps                           509 13.3    1.873    2.255    3.888    4.381
 rs_pw_transfer                     284  9.5    0.006    0.007    3.653    3.834
 qs_vxc_create                       28  8.0    0.001    0.001    3.748    3.748
 xc_vxc_pw_create                    28  9.0    0.028    0.033    3.747    3.747
 xc_pw_derive                       168 11.0    0.001    0.002    2.743    3.169
 qs_rho_update_rho                   29  5.0    0.001    0.001    2.541    2.544
 calculate_rho_elec                  29  6.0    0.015    0.017    2.486    2.486
 mp_alltoall_z22v                   509 15.3    1.631    2.481    1.631    2.481
 xc_pw_divergence                    28 10.0    0.001    0.001    1.917    2.335
 sum_up_and_integrate                28  8.0    0.010    0.015    2.211    2.214
 integrate_v_rspace                  28  9.0    0.001    0.001    2.201    2.206
 xc_rho_set_and_dset_create          28 10.0    0.029    0.034    1.726    2.170
 density_rs2pw                       29  7.0    0.001    0.002    2.030    2.170
 prepare_gapw_den                    28  8.0    0.000    0.001    2.035    2.081
 yz_to_x                            227 14.1    0.159    0.244    1.214    1.822
 potential_pw2rs                     28 10.0    0.002    0.002    1.674    1.678
 rs_pw_transfer_RS2PW_250            57 10.0    0.756    0.913    1.379    1.515
 mp_sum_d                          1168  6.8    1.285    1.466    1.285    1.466
 rs_pw_transfer_PW2RS_250            56 11.0    0.741    0.881    1.380    1.459
 mp_waitany                        4972 11.5    0.990    1.364    0.990    1.364
 init_scf_loop                        3  4.0    0.000    0.000    1.242    1.242
 integrate_vhg0_rspace               28  8.0    0.093    0.117    1.172    1.189
 put_rho0_on_grid                    28  9.0    0.017    0.020    1.128    1.174
 calculate_vxc_atom                  28  8.0    0.010    0.112    0.940    0.941
 x_to_yz                            225 14.6    0.193    0.267    0.766    0.903
 mp_waitall_1                     49174 13.9    0.653    0.877    0.653    0.877
 xc_functional_eval                  84 10.9    0.000    0.001    0.439    0.849
 pbe_lda_eval                        84 11.9    0.439    0.849    0.439    0.849
 calculate_rho_atom                  28  9.0    0.300    0.787    0.300    0.787
 gaVxcgb_GC                          28  9.0    0.043    0.770    0.043    0.770
 grid_collocate_task_list            29  7.0    0.371    0.703    0.371    0.703
 pw_gather_p                        256 12.9    0.352    0.626    0.352    0.626
 qs_scf_new_mos                      28  5.0    0.000    0.000    0.548    0.549
 qs_scf_loop_do_ot                   28  6.0    0.000    0.000    0.548    0.548
 mp_alltoall_d11v                   657 11.6    0.488    0.544    0.488    0.544
 rs_gather_matrices                  28 10.0    0.000    0.002    0.472    0.527
 ot_scf_mini                         28  7.0    0.000    0.000    0.525    0.526
 grid_integrate_task_list            28 10.0    0.054    0.525    0.054    0.525
 dbcsr_multiply_generic             666 10.1    0.018    0.019    0.519    0.523
 mp_sum_dv                          461 12.7    0.336    0.467    0.336    0.467
 rs_pw_transfer_PW2RS_90             28 12.0    0.079    0.099    0.369    0.444
 pw_scatter_p                       253 13.7    0.363    0.404    0.363    0.404
 calculate_rho0_atom                 28  9.0    0.273    0.380    0.273    0.380
 rs_grid_zero                       112 10.8    0.301    0.349    0.301    0.349
 ot_mini                             28  8.0    0.000    0.000    0.338    0.338
 mp_sum_dm                          172  7.7    0.239    0.310    0.239    0.310
 -------------------------------------------------------------------------------

 The number of warnings for this run is : 0
 
 -------------------------------------------------------------------------------
  **** **** ******  **  PROGRAM ENDED AT                 2022-05-09 20:42:49.450
 ***** ** ***  *** **   PROGRAM RAN ON                                   tcopt10
 **    ****   ******    PROGRAM RAN BY                                    hutter
 ***** **    ** ** **   PROGRAM PROCESS ID                                 48867
  **** **  *******  **  PROGRAM STOPPED IN /data/hutter/GITHUB/BASIS/scMOLOPT/PB
                                           E/hbcnof
