 DBCSR| CPU Multiplication driver                                           XSMM
 DBCSR| Multrec recursion limit                                              512
 DBCSR| Multiplication stack size                                           1000
 DBCSR| Maximum elements for images                                    UNLIMITED
 DBCSR| Multiplicative factor virtual images                                   1
 DBCSR| Use multiplication densification                                       T
 DBCSR| Multiplication size stacks                                             3
 DBCSR| Use memory pool for CPU allocation                                     F
 DBCSR| Number of 3D layers                                               SINGLE
 DBCSR| Use MPI memory allocation                                              F
 DBCSR| Use RMA algorithm                                                      F
 DBCSR| Use Communication thread                                               T
 DBCSR| Communication thread load                                             87
 DBCSR| MPI: My node id                                                        0
 DBCSR| MPI: Number of nodes                                                  36
 DBCSR| OMP: Current number of threads                                         1
 DBCSR| OMP: Max number of threads                                             1
 DBCSR| Split modifier for TAS multiplication algorithm                  1.0E+00


  **** **** ******  **  PROGRAM STARTED AT               2022-05-09 20:44:07.123
 ***** ** ***  *** **   PROGRAM STARTED ON                               tcopt10
 **    ****   ******    PROGRAM STARTED BY                                hutter
 ***** **    ** ** **   PROGRAM PROCESS ID                                 49558
  **** **  *******  **  PROGRAM STARTED IN /data/hutter/GITHUB/BASIS/scMOLOPT/PB
                                           E/hbcnof

 CP2K| version string:                   CP2K version 10.0 (Development Version)
 CP2K| source code revision number:                                  git:57d9aec
 CP2K| cp2kflags: omp libint fftw3 libxc elpa parallel mpi3 scalapack cosma xsmm
 CP2K|             spglib sirius libvori libbqb
 CP2K| is freely available from                            https://www.cp2k.org/
 CP2K| Program compiled at                      Fri 06 May 2022 02:09:00 PM CEST
 CP2K| Program compiled on                                               tcopt10
 CP2K| Program compiled for                                                local
 CP2K| Data directory path                   /data/hutter/GITHUB/TDLRI/cp2k/data
 CP2K| Input file name                                                N4-ref.inp

 GLOBAL| Force Environment number                                              1
 GLOBAL| Basis set file name                                        ../def2QZVPP
 GLOBAL| Potential file name                                        ../POTENTIAL
 GLOBAL| MM Potential file name                                     MM_POTENTIAL
 GLOBAL| Coordinate file name                                      __STD_INPUT__
 GLOBAL| Method name                                                        CP2K
 GLOBAL| Project name                                                      refN4
 GLOBAL| Run type                                                         ENERGY
 GLOBAL| FFT library                                                       FFTW3
 GLOBAL| Diagonalization library                                       ScaLAPACK
 GLOBAL| Orthonormality check for eigenvectors                          DISABLED
 GLOBAL| Matrix multiplication library                                     COSMA
 GLOBAL| All-to-all communication in single precision                          F
 GLOBAL| FFTs using library dependent lengths                                  F
 GLOBAL| Grid backend                                                       AUTO
 GLOBAL| Global print level                                                  LOW
 GLOBAL| MPI I/O enabled                                                       T
 GLOBAL| Total number of message passing processes                            36
 GLOBAL| Number of threads for this process                                    1
 GLOBAL| This output is from process                                           0
 GLOBAL| Stack size for threads created by OpenMP (OMP_STACKSIZE)        default
 GLOBAL| CPU model name                          AMD EPYC 7401 24-Core Processor
 GLOBAL| CPUID                                                              1002

 MEMORY| system memory details [Kb]
 MEMORY|                        rank 0           min           max       average
 MEMORY| MemTotal            263969136     263969136     263969136     263969136
 MEMORY| MemFree             245270512     245270512     245270512     245270512
 MEMORY| Buffers                   136           136           136           136
 MEMORY| Cached               12536184      12536184      12536184      12536184
 MEMORY| Slab                  1356292       1356292       1356292       1356292
 MEMORY| SReclaimable           818916        818916        818916        818916
 MEMORY| MemLikelyFree       258625748     258625748     258625748     258625748


 GENERATE|  Preliminary Number of Bonds generated:                             6
 GENERATE|  Achieved consistency in connectivity generation.
 GENERATE|  Number of Bonds generated:                                         6
 GENERATE|  Preliminary Number of Bends generated:                            12
 GENERATE|  Number of Bends generated:                                        12
 GENERATE|  Number of UB generated:                                           12
 GENERATE|  Preliminary Number of Torsions generated:                         12
 GENERATE|  Number of Torsions generated:                                     12
 GENERATE|  Number of Impropers generated:                                     4

 *******************************************************************************
 *******************************************************************************
 **                                                                           **
 **     #####                         ##              ##                      **
 **    ##   ##            ##          ##              ##                      **
 **   ##     ##                       ##            ######                    **
 **   ##     ##  ##   ##  ##   #####  ##  ##   ####   ##    #####    #####    **
 **   ##     ##  ##   ##  ##  ##      ## ##   ##      ##   ##   ##  ##   ##   **
 **   ##  ## ##  ##   ##  ##  ##      ####     ###    ##   ######   ######    **
 **    ##  ###   ##   ##  ##  ##      ## ##      ##   ##   ##       ##        **
 **     #######   #####   ##   #####  ##  ##  ####    ##    #####   ##        **
 **           ##                                                    ##        **
 **                                                                           **
 **                                                ... make the atoms dance   **
 **                                                                           **
 **            Copyright (C) by CP2K developers group (2000-2022)             **
 **                      J. Chem. Phys. 152, 194103 (2020)                    **
 **                                                                           **
 *******************************************************************************


 TOTAL NUMBERS AND MAXIMUM NUMBERS

  Total number of            - Atomic kinds:                                   1
                             - Atoms:                                          4
                             - Shell sets:                                    68
                             - Shells:                                        68
                             - Primitive Cartesian functions:                116
                             - Cartesian basis functions:                    288
                             - Spherical basis functions:                    228

  Maximum angular momentum of the orbital basis functions:                     4


 SCF PARAMETERS         Density guess:                                    ATOMIC
                        --------------------------------------------------------
                        max_scf:                                              10
                        max_scf_history:                                       0
                        max_diis:                                              4
                        --------------------------------------------------------
                        eps_scf:                                        1.00E-07
                        eps_scf_history:                                0.00E+00
                        eps_diis:                                       1.00E-01
                        eps_eigval:                                     1.00E-05
                        --------------------------------------------------------
                        level_shift [a.u.]:                                 0.00
                        --------------------------------------------------------
                        Outer loop SCF in use 
                        No variables optimised in outer loop
                        eps_scf                                         1.00E-07
                        max_scf                                               10
                        No outer loop optimization
                        step_size                                       5.00E-01

 Number of electrons:                                                         28
 Number of occupied orbitals:                                                 14
 Number of molecular orbitals:                                                14

 Number of orbital functions:                                                228
 Number of independent orbital functions:                                    228

 Extrapolation method: initial_guess


 SCF WAVEFUNCTION OPTIMIZATION

  ----------------------------------- OT ---------------------------------------
  Minimizer      : DIIS                : direct inversion
                                         in the iterative subspace
                                         using   7 DIIS vectors
                                         safer DIIS on
  Preconditioner : FULL_ALL            : diagonalization, state selective
  Precond_solver : DEFAULT
  stepsize       :    0.15000000                  energy_gap     :    0.08000000
  eps_taylor     :   0.10000E-15                  max_taylor     :             4
  ----------------------------------- OT ---------------------------------------

  Step     Update method      Time    Convergence         Total energy    Change
  ------------------------------------------------------------------------------
     1 OT DIIS     0.15E+00    0.5     0.18934267      -207.3363542841 -2.07E+02
     2 OT DIIS     0.15E+00    0.6     0.04258379      -216.8117889420 -9.48E+00
     3 OT DIIS     0.15E+00    0.6     0.02278297      -217.4255497749 -6.14E-01
     4 OT DIIS     0.15E+00    0.6     0.01668241      -217.6895034432 -2.64E-01
     5 OT DIIS     0.15E+00    0.6     0.01348053      -217.9162708883 -2.27E-01
     6 OT DIIS     0.15E+00    0.6     0.01147334      -218.1487455959 -2.32E-01
     7 OT DIIS     0.15E+00    0.6     0.01090757      -218.3014630595 -1.53E-01
     8 OT DIIS     0.15E+00    0.6     0.01012583      -218.3659663041 -6.45E-02
     9 OT DIIS     0.15E+00    0.6     0.00627791      -218.5944440855 -2.28E-01
    10 OT DIIS     0.15E+00    0.6     0.00580845      -218.6032083640 -8.76E-03

  Leaving inner SCF loop after reaching    10 steps.


  Electronic density on regular grids:        -20.4300129079        7.5699870921
  Core density on regular grids:               28.0000000000        0.0000000000
  Hard and soft densities (Lebedev):          -50.4322582339      -42.8622711144
  Total Rho_soft + Rho1_hard - Rho1_soft      -28.0000000275
  Total charge density (r-space):              -0.0000000275
  Total Rho_soft + Rho0_soft (g-space):        -0.0000002286

  Overlap energy of the core charge distribution:               0.00000000177669
  Self energy of the core charge distribution:               -191.19830697273841
  Core Hamiltonian energy:                                    -30.03983610907809
  Hartree energy:                                              43.51684909843378
  Exchange-correlation energy:                                -10.18552643267540

  GAPW| Exc from hard and soft atomic rho1:                   -16.96946214853744
  GAPW| local Eh = 1 center integrals:                        -13.72692580119463

  Total energy:                                              -218.60320836401351

  outer SCF iter =    1 RMS gradient =   0.58E-02 energy =       -218.6032083640

  ----------------------------------- OT ---------------------------------------
  Minimizer      : DIIS                : direct inversion
                                         in the iterative subspace
                                         using   7 DIIS vectors
                                         safer DIIS on
  Preconditioner : FULL_ALL            : diagonalization, state selective
  Precond_solver : DEFAULT
  stepsize       :    0.15000000                  energy_gap     :    0.08000000
  eps_taylor     :   0.10000E-15                  max_taylor     :             4
  ----------------------------------- OT ---------------------------------------

  Step     Update method      Time    Convergence         Total energy    Change
  ------------------------------------------------------------------------------
     1 OT DIIS     0.15E+00    1.1     0.00594493      -218.6602473984 -5.70E-02
     2 OT DIIS     0.15E+00    0.6     0.00446550      -218.6689819669 -8.73E-03
     3 OT DIIS     0.15E+00    0.6     0.00285744      -218.6709243345 -1.94E-03
     4 OT DIIS     0.15E+00    0.5     0.00011113      -218.6721906100 -1.27E-03
     5 OT DIIS     0.15E+00    0.6     0.00005809      -218.6721932970 -2.69E-06
     6 OT DIIS     0.15E+00    0.6     0.00003601      -218.6721936080 -3.11E-07
     7 OT DIIS     0.15E+00    0.6     0.00000298      -218.6721937692 -1.61E-07
     8 OT DIIS     0.15E+00    0.6     0.00000072      -218.6721937717 -2.51E-09
     9 OT DIIS     0.15E+00    0.6     0.00000020      -218.6721937718 -1.25E-10
    10 OT DIIS     0.15E+00    0.5     0.00000017      -218.6721937719 -1.73E-11

  Leaving inner SCF loop after reaching    10 steps.


  Electronic density on regular grids:        -20.4404437584        7.5595562416
  Core density on regular grids:               28.0000000000        0.0000000000
  Hard and soft densities (Lebedev):          -50.6324809062      -43.0729246320
  Total Rho_soft + Rho1_hard - Rho1_soft      -28.0000000326
  Total charge density (r-space):              -0.0000000326
  Total Rho_soft + Rho0_soft (g-space):        -0.0000002339

  Overlap energy of the core charge distribution:               0.00000000177669
  Self energy of the core charge distribution:               -191.19830697273841
  Core Hamiltonian energy:                                    -30.12501662999724
  Hartree energy:                                              43.54678645828197
  Exchange-correlation energy:                                -10.19789054329871

  GAPW| Exc from hard and soft atomic rho1:                   -16.96301499369789
  GAPW| local Eh = 1 center integrals:                        -13.73475109218295

  Total energy:                                              -218.67219377185654

  outer SCF iter =    2 RMS gradient =   0.17E-06 energy =       -218.6721937719

  ----------------------------------- OT ---------------------------------------
  Minimizer      : DIIS                : direct inversion
                                         in the iterative subspace
                                         using   7 DIIS vectors
                                         safer DIIS on
  Preconditioner : FULL_ALL            : diagonalization, state selective
  Precond_solver : DEFAULT
  stepsize       :    0.15000000                  energy_gap     :    0.08000000
  eps_taylor     :   0.10000E-15                  max_taylor     :             4
  ----------------------------------- OT ---------------------------------------

  Step     Update method      Time    Convergence         Total energy    Change
  ------------------------------------------------------------------------------
     1 OT DIIS     0.15E+00    1.1     0.00000003      -218.6721937719 -1.99E-12

  *** SCF run converged in     1 steps ***


  Electronic density on regular grids:        -20.4404437410        7.5595562590
  Core density on regular grids:               28.0000000000        0.0000000000
  Hard and soft densities (Lebedev):          -50.6324803842      -43.0729240925
  Total Rho_soft + Rho1_hard - Rho1_soft      -28.0000000326
  Total charge density (r-space):              -0.0000000326
  Total Rho_soft + Rho0_soft (g-space):        -0.0000002339

  Overlap energy of the core charge distribution:               0.00000000177669
  Self energy of the core charge distribution:               -191.19830697273841
  Core Hamiltonian energy:                                    -30.12501709653565
  Hartree energy:                                              43.54678685809596
  Exchange-correlation energy:                                -10.19789044993994

  GAPW| Exc from hard and soft atomic rho1:                   -16.96301498540232
  GAPW| local Eh = 1 center integrals:                        -13.73475112711489

  Total energy:                                              -218.67219377185853

  outer SCF iter =    3 RMS gradient =   0.35E-07 energy =       -218.6721937719
  outer SCF loop converged in   3 iterations or   21 steps


 ENERGY| Total FORCE_EVAL ( QS ) energy [a.u.]:             -218.672193771858531

 -------------------------------------------------------------------------------
 -                                                                             -
 -                                DBCSR STATISTICS                             -
 -                                                                             -
 -------------------------------------------------------------------------------
 COUNTER                                    TOTAL       BLAS       SMM       ACC
 flops    14 x    14 x    14              1223824       0.0%    100.0%      0.0%
 flops    14 x    14 x    57              7775712       0.0%    100.0%      0.0%
 flops    57 x    14 x    14              9652608       0.0%    100.0%      0.0%
 flops    57 x    57 x    14             20013840       0.0%    100.0%      0.0%
 flops    57 x    14 x    57            160110720       0.0%    100.0%      0.0%
 flops inhomo. stacks                           0       0.0%      0.0%      0.0%
 flops total                       198.776704E+06       0.0%    100.0%      0.0%
 flops max/rank                     53.441752E+06       0.0%    100.0%      0.0%
 matmuls inhomo. stacks                         0       0.0%      0.0%      0.0%
 matmuls total                               2983       0.0%    100.0%      0.0%
 number of processed stacks                  2983       0.0%    100.0%      0.0%
 average stack size                                     0.0       1.0       0.0
 marketing flops                   211.053344E+06
 -------------------------------------------------------------------------------
 # multiplications                            553
 max memory usage/rank             298.713088E+06
 # max total images/rank                        1
 # max 3D layers                                1
 # MPI messages exchanged                  199080
 MPI messages size (bytes):
  total size                       288.741440E+06
  min size                           0.000000E+00
  max size                          25.992000E+03
  average size                       1.450379E+03
 MPI breakdown and total messages size (bytes):
             size <=      128              178790                        0
       128 < size <=     8192               11490                 60011840
      8192 < size <=    32768                8800                228729600
     32768 < size <=   131072                   0                        0
    131072 < size <=  4194304                   0                        0
   4194304 < size <= 16777216                   0                        0
  16777216 < size                               0                        0
 -------------------------------------------------------------------------------
 -                                                                             -
 -                      DBCSR MESSAGE PASSING PERFORMANCE                      -
 -                                                                             -
 -------------------------------------------------------------------------------
 ROUTINE             CALLS      AVE VOLUME [Bytes]
 MP_Bcast                6                     12.
 MP_Allreduce         2893                      8.
 MP_Alltoall          2165                   3079.
 MP_ISend            13260                   1605.
 MP_IRecv            13260                   1113.
 -------------------------------------------------------------------------------

 -------------------------------------------------------------------------------
 -                                                                             -
 -                                GRID STATISTICS                              -
 -                                                                             -
 -------------------------------------------------------------------------------
 LP    KERNEL             BACKEND                              COUNT     PERCENT
 2     collocate ortho    REF                                  11836      11.18%
 2     integrate ortho    REF                                  11298      10.67%
 3     collocate ortho    REF                                  10120       9.56%
 3     integrate ortho    REF                                   9660       9.12%
 1     collocate ortho    REF                                   9328       8.81%
 1     integrate ortho    REF                                   8904       8.41%
 4     collocate ortho    REF                                   8140       7.69%
 4     integrate ortho    REF                                   7770       7.34%
 5     collocate ortho    REF                                   4840       4.57%
 5     integrate ortho    REF                                   4620       4.36%
 0     collocate ortho    REF                                   3520       3.32%
 0     integrate ortho    REF                                   3360       3.17%
 2     collocate general  REF                                   3024       2.86%
 2     integrate general  REF                                   3024       2.86%
 6     collocate ortho    REF                                   2200       2.08%
 6     integrate ortho    REF                                   2100       1.98%
 7     collocate ortho    REF                                    880       0.83%
 7     integrate ortho    REF                                    840       0.79%
 8     collocate ortho    REF                                    220       0.21%
 8     integrate ortho    REF                                    210       0.20%
 -------------------------------------------------------------------------------

 MEMORY| Estimated peak process memory [MiB]                                 285

 -------------------------------------------------------------------------------
 -                                                                             -
 -                         MESSAGE PASSING PERFORMANCE                         -
 -                                                                             -
 -------------------------------------------------------------------------------

 ROUTINE             CALLS      AVE VOLUME [Bytes]
 MP_Group                4
 MP_Bcast              550                 152321.
 MP_Allreduce         1748                  74521.
 MP_Sync                42
 MP_Alltoall           482                5801805.
 MP_ISendRecv         4515                  92352.
 MP_Wait              8680
 MP_comm_split          19
 MP_ISend             3740                 224120.
 MP_IRecv             3740                 224148.
 MP_Recv                 8                   5472.
 -------------------------------------------------------------------------------


 -------------------------------------------------------------------------------
 -                                                                             -
 -                           R E F E R E N C E S                               -
 -                                                                             -
 -------------------------------------------------------------------------------
 
 CP2K version 10.0 (Development Version), the CP2K developers group (2022).
 CP2K is freely available from https://www.cp2k.org/ .

 Kuehne,Thomas D.; Iannuzzi,Marcella; Del Ben,Mauro;
 Rybkin,Vladimir V.; Seewald,Patrick; Stein,Frederick; Laino,Teodoro;
 Khaliullin,Rustam Z.; Schuett,Ole; Schiffmann,Florian; Golze,Dorothea;
 Wilhelm,Jan; Chulkov,Sergey; Bani-Hashemian,Mohammad Hossein;
 Weber,Valery; Borstnik,Urban; Taillefumier,Mathieu;
 Jakobovits,Alice Shoshana; Lazzaro,Alfio; Pabst,Hans; Mueller,Tiziano;
 Schade,Robert; Guidon,Manuel; Andermatt,Samuel; Holmberg,Nico;
 Schenter,Gregory K.; Hehn,Anna; Bussy,Augustin; Belleflamme,Fabian;
 Tabacchi,Gloria; Gloess,Andreas; Lass,Michael; Bethune,Iain;
 Mundy,Christopher J.; Plessl,Christian; Watkins,Matt;
 VandeVondele,Joost; Krack,Matthias; Hutter,Juerg. 
 The Journal of Chemical Physics, 152 (19), (2020). 
 CP2K: An electronic structure and molecular dynamics software package -
 Quickstep: Efficient and accurate electronic structure calculations.
 https://doi.org/10.1063/5.0007045

 Schuett, Ole; Messmer, Peter; Hutter, Juerg; VandeVondele, Joost. 
 Electronic Structure Calculations on Graphics Processing Units, John
 Wiley & Sons, Ltd, 173-190 (2016). 
 GPU-Accelerated Sparse Matrix-Matrix Multiplication for
 Linear Scaling Density Functional Theory.
 https://doi.org/10.1002/9781118670712.ch8

 Heinecke, A; Henry, G; Hutchinson, M; Pabst, H. 
 Proceedings of Intl. Supercomputing Conference, 981-991 (2016). 
 LIBXSMM: Accelerating Small Matrix Multiplications
 by Runtime Code Generation.
 https://doi.org/10.1109/SC.2016.83

 Borstnik, U; VandeVondele, J; Weber, V; Hutter, J. 
 PARALLEL COMPUTING, 40 (5-6), 47-58 (2014). 
 Sparse matrix multiplication: The distributed block-compressed sparse
 row library.
 https://doi.org/10.1016/j.parco.2014.03.012

 Hutter, J; Iannuzzi, M; Schiffmann, F; VandeVondele, J. 
 WIREs Comput Mol Sci., 4 (1), 15-25 (2014). 
 CP2K: atomistic simulations of condensed matter systems.
 https://doi.org/10.1002/wcms.1159

 Frigo, M; Johnson, SG. 
 PROCEEDINGS OF THE IEEE, 93 (2), 216-231 (2005). 
 The design and implementation of FFTW3.
 https://doi.org/10.1109/JPROC.2004.840301

 VandeVondele, J; Hutter, J. 
 JOURNAL OF CHEMICAL PHYSICS, 118 (10), 4365-4369 (2003). 
 An efficient orbital transformation method for electronic structure
 calculations.
 https://doi.org/10.1063/1.1543154

 Lippert, G; Hutter, J; Parrinello, M. 
 THEORETICAL CHEMISTRY ACCOUNTS, 103 (2), 124-140 (1999). 
 The Gaussian and augmented-plane-wave density functional method for ab
 initio molecular dynamics simulations.
 https://doi.org/10.1007/s002140050523

 Krack, M; Parrinello, M. 
 PHYSICAL CHEMISTRY CHEMICAL PHYSICS, 2 (10), 2105-2112 (2000). 
 All-electron ab-initio molecular dynamics.
 https://doi.org/10.1039/b001167n

 Perdew, JP; Burke, K; Ernzerhof, M. 
 PHYSICAL REVIEW LETTERS, 77 (18), 3865-3868 (1996). 
 Generalized gradient approximation made simple.
 https://doi.org/10.1103/PhysRevLett.77.3865


 -------------------------------------------------------------------------------
 -                                                                             -
 -                                T I M I N G                                  -
 -                                                                             -
 -------------------------------------------------------------------------------
 SUBROUTINE                       CALLS  ASD         SELF TIME        TOTAL TIME
                                MAXIMUM       AVERAGE  MAXIMUM  AVERAGE  MAXIMUM
 CP2K                                 1  1.0    0.006    0.028   12.108   12.108
 qs_energies                          1  2.0    0.000    0.000   11.972   11.972
 scf_env_do_scf                       1  3.0    0.000    0.000   11.817   11.818
 scf_env_do_scf_inner_loop           21  4.0    0.000    0.002   10.399   10.400
 qs_ks_update_qs_env                 24  5.0    0.000    0.000    9.064    9.066
 rebuild_ks_matrix                   21  6.0    0.000    0.000    9.061    9.062
 qs_ks_build_kohn_sham_matrix        21  7.0    0.004    0.005    9.061    9.062
 pw_transfer                        446 10.1    0.041    0.047    3.720    4.112
 fft_wrap_pw1pw2                    383 11.2    0.005    0.005    3.650    4.042
 fft_wrap_pw1pw2_250                254 12.6    0.220    0.275    3.474    3.849
 fft3d_ps                           383 13.2    1.398    1.735    2.876    3.295
 rs_pw_transfer                     214  9.5    0.004    0.005    3.003    3.182
 qs_vxc_create                       21  8.0    0.000    0.001    2.866    2.866
 xc_vxc_pw_create                    21  9.0    0.021    0.024    2.866    2.866
 xc_pw_derive                       126 11.0    0.001    0.001    2.049    2.433
 qs_rho_update_rho                   22  5.0    0.000    0.000    2.247    2.250
 sum_up_and_integrate                21  8.0    0.008    0.011    2.165    2.168
 integrate_v_rspace                  21  9.0    0.000    0.001    2.157    2.162
 calculate_rho_elec                  22  6.0    0.012    0.013    2.161    2.161
 density_rs2pw                       22  7.0    0.001    0.001    1.778    1.941
 mp_alltoall_z22v                   383 15.2    1.190    1.902    1.190    1.902
 xc_pw_divergence                    21 10.0    0.001    0.001    1.421    1.807
 xc_rho_set_and_dset_create          21 10.0    0.022    0.027    1.373    1.710
 prepare_gapw_den                    21  8.0    0.000    0.000    1.672    1.694
 mp_waitany                        3740 11.5    1.037    1.465    1.037    1.465
 rs_pw_transfer_RS2PW_250            43 10.0    0.544    0.671    1.300    1.462
 yz_to_x                            171 14.1    0.120    0.194    0.909    1.451
 init_scf_loop                        3  4.0    0.000    0.000    1.417    1.417
 potential_pw2rs                     21 10.0    0.002    0.002    1.241    1.244
 rs_pw_transfer_PW2RS_250            42 11.0    0.556    0.664    1.041    1.077
 mp_sum_d                          1057  6.5    0.881    1.072    0.881    1.072
 integrate_vhg0_rspace               21  8.0    0.136    0.158    1.058    1.070
 mp_alltoall_d11v                   538 11.3    0.807    0.931    0.807    0.931
 rs_gather_matrices                  21 10.0    0.000    0.001    0.792    0.915
 grid_integrate_task_list            21 10.0    0.123    0.913    0.123    0.913
 grid_collocate_task_list            22  7.0    0.325    0.893    0.325    0.893
 put_rho0_on_grid                    21  9.0    0.013    0.017    0.862    0.884
 xc_functional_eval                  63 10.8    0.000    0.000    0.407    0.745
 pbe_lda_eval                        63 11.8    0.407    0.744    0.407    0.744
 calculate_vxc_atom                  21  8.0    0.012    0.083    0.711    0.711
 mp_waitall_1                     40332 13.9    0.492    0.680    0.492    0.680
 x_to_yz                            169 14.6    0.145    0.203    0.543    0.659
 calculate_rho0_atom                 21  9.0    0.398    0.591    0.398    0.591
 gaVxcgb_GC                          21  9.0    0.064    0.582    0.064    0.582
 calculate_rho_atom                  21  9.0    0.246    0.578    0.246    0.578
 dbcsr_multiply_generic             553 10.1    0.015    0.016    0.466    0.476
 qs_scf_new_mos                      21  5.0    0.000    0.000    0.470    0.473
 qs_scf_loop_do_ot                   21  6.0    0.000    0.000    0.470    0.473
 ot_scf_mini                         21  7.0    0.000    0.000    0.452    0.454
 mp_sum_dm                          260  7.6    0.330    0.409    0.330    0.409
 mp_sum_dv                          601 12.9    0.169    0.389    0.169    0.389
 pw_gather_p                        193 12.8    0.267    0.365    0.267    0.365
 rs_pw_transfer_PW2RS_90             21 12.0    0.061    0.071    0.268    0.319
 ot_mini                             21  8.0    0.000    0.000    0.303    0.305
 pw_scatter_p                       190 13.7    0.273    0.300    0.273    0.300
 rs_grid_zero                        84 10.8    0.226    0.259    0.226    0.259
 qs_ot_get_derivative                21  9.0    0.000    0.000    0.250    0.252
 -------------------------------------------------------------------------------

 The number of warnings for this run is : 0
 
 -------------------------------------------------------------------------------
  **** **** ******  **  PROGRAM ENDED AT                 2022-05-09 20:44:19.624
 ***** ** ***  *** **   PROGRAM RAN ON                                   tcopt10
 **    ****   ******    PROGRAM RAN BY                                    hutter
 ***** **    ** ** **   PROGRAM PROCESS ID                                 49558
  **** **  *******  **  PROGRAM STOPPED IN /data/hutter/GITHUB/BASIS/scMOLOPT/PB
                                           E/hbcnof
