 DBCSR| CPU Multiplication driver                                           XSMM
 DBCSR| Multrec recursion limit                                              512
 DBCSR| Multiplication stack size                                           1000
 DBCSR| Maximum elements for images                                    UNLIMITED
 DBCSR| Multiplicative factor virtual images                                   1
 DBCSR| Use multiplication densification                                       T
 DBCSR| Multiplication size stacks                                             3
 DBCSR| Use memory pool for CPU allocation                                     F
 DBCSR| Number of 3D layers                                               SINGLE
 DBCSR| Use MPI memory allocation                                              F
 DBCSR| Use RMA algorithm                                                      F
 DBCSR| Use Communication thread                                               T
 DBCSR| Communication thread load                                             87
 DBCSR| MPI: My node id                                                        0
 DBCSR| MPI: Number of nodes                                                  36
 DBCSR| OMP: Current number of threads                                         1
 DBCSR| OMP: Max number of threads                                             1
 DBCSR| Split modifier for TAS multiplication algorithm                  1.0E+00


  **** **** ******  **  PROGRAM STARTED AT               2022-05-09 20:35:18.171
 ***** ** ***  *** **   PROGRAM STARTED ON                               tcopt10
 **    ****   ******    PROGRAM STARTED BY                                hutter
 ***** **    ** ** **   PROGRAM PROCESS ID                                 44468
  **** **  *******  **  PROGRAM STARTED IN /data/hutter/GITHUB/BASIS/scMOLOPT/PB
                                           E/hbcnof

 CP2K| version string:                   CP2K version 10.0 (Development Version)
 CP2K| source code revision number:                                  git:57d9aec
 CP2K| cp2kflags: omp libint fftw3 libxc elpa parallel mpi3 scalapack cosma xsmm
 CP2K|             spglib sirius libvori libbqb
 CP2K| is freely available from                            https://www.cp2k.org/
 CP2K| Program compiled at                      Fri 06 May 2022 02:09:00 PM CEST
 CP2K| Program compiled on                                               tcopt10
 CP2K| Program compiled for                                                local
 CP2K| Data directory path                   /data/hutter/GITHUB/TDLRI/cp2k/data
 CP2K| Input file name                                               NF3-ref.inp

 GLOBAL| Force Environment number                                              1
 GLOBAL| Basis set file name                                        ../def2QZVPP
 GLOBAL| Potential file name                                        ../POTENTIAL
 GLOBAL| MM Potential file name                                     MM_POTENTIAL
 GLOBAL| Coordinate file name                                      __STD_INPUT__
 GLOBAL| Method name                                                        CP2K
 GLOBAL| Project name                                                     refNF3
 GLOBAL| Run type                                                         ENERGY
 GLOBAL| FFT library                                                       FFTW3
 GLOBAL| Diagonalization library                                       ScaLAPACK
 GLOBAL| Orthonormality check for eigenvectors                          DISABLED
 GLOBAL| Matrix multiplication library                                     COSMA
 GLOBAL| All-to-all communication in single precision                          F
 GLOBAL| FFTs using library dependent lengths                                  F
 GLOBAL| Grid backend                                                       AUTO
 GLOBAL| Global print level                                                  LOW
 GLOBAL| MPI I/O enabled                                                       T
 GLOBAL| Total number of message passing processes                            36
 GLOBAL| Number of threads for this process                                    1
 GLOBAL| This output is from process                                           0
 GLOBAL| Stack size for threads created by OpenMP (OMP_STACKSIZE)        default
 GLOBAL| CPU model name                          AMD EPYC 7401 24-Core Processor
 GLOBAL| CPUID                                                              1002

 MEMORY| system memory details [Kb]
 MEMORY|                        rank 0           min           max       average
 MEMORY| MemTotal            263969136     263969136     263969136     263969136
 MEMORY| MemFree             245317588     245317588     245317588     245317588
 MEMORY| Buffers                   136           136           136           136
 MEMORY| Cached               12532968      12532968      12532968      12532968
 MEMORY| Slab                  1359152       1359152       1359152       1359152
 MEMORY| SReclaimable           822672        822672        822672        822672
 MEMORY| MemLikelyFree       258673364     258673364     258673364     258673364


 GENERATE|  Preliminary Number of Bonds generated:                             0
 GENERATE|  Achieved consistency in connectivity generation.

 *******************************************************************************
 *******************************************************************************
 **                                                                           **
 **     #####                         ##              ##                      **
 **    ##   ##            ##          ##              ##                      **
 **   ##     ##                       ##            ######                    **
 **   ##     ##  ##   ##  ##   #####  ##  ##   ####   ##    #####    #####    **
 **   ##     ##  ##   ##  ##  ##      ## ##   ##      ##   ##   ##  ##   ##   **
 **   ##  ## ##  ##   ##  ##  ##      ####     ###    ##   ######   ######    **
 **    ##  ###   ##   ##  ##  ##      ## ##      ##   ##   ##       ##        **
 **     #######   #####   ##   #####  ##  ##  ####    ##    #####   ##        **
 **           ##                                                    ##        **
 **                                                                           **
 **                                                ... make the atoms dance   **
 **                                                                           **
 **            Copyright (C) by CP2K developers group (2000-2022)             **
 **                      J. Chem. Phys. 152, 194103 (2020)                    **
 **                                                                           **
 *******************************************************************************


 TOTAL NUMBERS AND MAXIMUM NUMBERS

  Total number of            - Atomic kinds:                                   2
                             - Atoms:                                          4
                             - Shell sets:                                    68
                             - Shells:                                        68
                             - Primitive Cartesian functions:                116
                             - Cartesian basis functions:                    288
                             - Spherical basis functions:                    228

  Maximum angular momentum of the orbital basis functions:                     4


 SCF PARAMETERS         Density guess:                                    ATOMIC
                        --------------------------------------------------------
                        max_scf:                                              10
                        max_scf_history:                                       0
                        max_diis:                                              4
                        --------------------------------------------------------
                        eps_scf:                                        1.00E-07
                        eps_scf_history:                                0.00E+00
                        eps_diis:                                       1.00E-01
                        eps_eigval:                                     1.00E-05
                        --------------------------------------------------------
                        level_shift [a.u.]:                                 0.00
                        --------------------------------------------------------
                        Outer loop SCF in use 
                        No variables optimised in outer loop
                        eps_scf                                         1.00E-07
                        max_scf                                               10
                        No outer loop optimization
                        step_size                                       5.00E-01

 Number of electrons:                                                         34
 Number of occupied orbitals:                                                 17
 Number of molecular orbitals:                                                17

 Number of orbital functions:                                                228
 Number of independent orbital functions:                                    228

 Extrapolation method: initial_guess


 SCF WAVEFUNCTION OPTIMIZATION

  ----------------------------------- OT ---------------------------------------
  Minimizer      : DIIS                : direct inversion
                                         in the iterative subspace
                                         using   7 DIIS vectors
                                         safer DIIS on
  Preconditioner : FULL_ALL            : diagonalization, state selective
  Precond_solver : DEFAULT
  stepsize       :    0.15000000                  energy_gap     :    0.08000000
  eps_taylor     :   0.10000E-15                  max_taylor     :             4
  ----------------------------------- OT ---------------------------------------

  Step     Update method      Time    Convergence         Total energy    Change
  ------------------------------------------------------------------------------
     1 OT DIIS     0.15E+00    0.6     0.12513046      -345.8065324407 -3.46E+02
     2 OT DIIS     0.15E+00    0.6     0.04670471      -352.0425689979 -6.24E+00
     3 OT DIIS     0.15E+00    0.6     0.01275919      -353.0182274384 -9.76E-01
     4 OT DIIS     0.15E+00    0.6     0.01045630      -353.0979693612 -7.97E-02
     5 OT DIIS     0.15E+00    0.6     0.00839926      -353.2068624077 -1.09E-01
     6 OT DIIS     0.15E+00    0.6     0.00737642      -353.2936553902 -8.68E-02
     7 OT SD       0.15E+00    0.6     0.00747419      -353.3599257746 -6.63E-02
     8 OT SD       0.15E+00    0.6     0.00762273      -353.3925684644 -3.26E-02
     9 OT SD       0.15E+00    0.6     0.00784373      -353.4268198701 -3.43E-02
    10 OT SD       0.15E+00    0.6     0.00804538      -353.4630505129 -3.62E-02

  Leaving inner SCF loop after reaching    10 steps.


  Electronic density on regular grids:        -24.8302324039        9.1697675961
  Core density on regular grids:               34.0000000000        0.0000000000
  Hard and soft densities (Lebedev):          -44.8265621079      -35.6567910169
  Total Rho_soft + Rho1_hard - Rho1_soft      -34.0000034948
  Total charge density (r-space):              -0.0000034948
  Total Rho_soft + Rho0_soft (g-space):        -0.0000037610

  Overlap energy of the core charge distribution:               0.00000000002939
  Self energy of the core charge distribution:               -361.48974579757913
  Core Hamiltonian energy:                                    -21.14458997314583
  Hartree energy:                                              52.00367729127262
  Exchange-correlation energy:                                -14.86158488909774

  GAPW| Exc from hard and soft atomic rho1:                   -22.90452905415292
  GAPW| local Eh = 1 center integrals:                         14.93372190977789

  Total energy:                                              -353.46305051289579

  outer SCF iter =    1 RMS gradient =   0.80E-02 energy =       -353.4630505129

  ----------------------------------- OT ---------------------------------------
  Minimizer      : DIIS                : direct inversion
                                         in the iterative subspace
                                         using   7 DIIS vectors
                                         safer DIIS on
  Preconditioner : FULL_ALL            : diagonalization, state selective
  Precond_solver : DEFAULT
  stepsize       :    0.15000000                  energy_gap     :    0.08000000
  eps_taylor     :   0.10000E-15                  max_taylor     :             4
  ----------------------------------- OT ---------------------------------------

  Step     Update method      Time    Convergence         Total energy    Change
  ------------------------------------------------------------------------------
     1 OT DIIS     0.15E+00    1.2     0.03576297      -353.5010425384 -3.80E-02
     2 OT DIIS     0.15E+00    0.6     0.02233199      -353.8813085743 -3.80E-01
     3 OT DIIS     0.15E+00    0.6     0.01702119      -353.9209508258 -3.96E-02
     4 OT DIIS     0.15E+00    0.6     0.00499449      -353.9481076719 -2.72E-02
     5 OT DIIS     0.15E+00    0.6     0.00452838      -353.9496611296 -1.55E-03
     6 OT DIIS     0.15E+00    0.6     0.00228834      -353.9512818664 -1.62E-03
     7 OT DIIS     0.15E+00    0.6     0.00051165      -353.9517407768 -4.59E-04
     8 OT DIIS     0.15E+00    0.6     0.00052375      -353.9517513606 -1.06E-05
     9 OT DIIS     0.15E+00    0.6     0.00007062      -353.9517798884 -2.85E-05
    10 OT DIIS     0.15E+00    0.6     0.00002506      -353.9517809230 -1.03E-06

  Leaving inner SCF loop after reaching    10 steps.


  Electronic density on regular grids:        -24.8062042955        9.1937957045
  Core density on regular grids:               34.0000000000        0.0000000000
  Hard and soft densities (Lebedev):          -44.1141548861      -34.9203553862
  Total Rho_soft + Rho1_hard - Rho1_soft      -34.0000037954
  Total charge density (r-space):              -0.0000037954
  Total Rho_soft + Rho0_soft (g-space):        -0.0000040613

  Overlap energy of the core charge distribution:               0.00000000002939
  Self energy of the core charge distribution:               -361.48974579757913
  Core Hamiltonian energy:                                    -21.88960043278187
  Hartree energy:                                              52.24179535847890
  Exchange-correlation energy:                                -14.82755239066253

  GAPW| Exc from hard and soft atomic rho1:                   -22.91283215940560
  GAPW| local Eh = 1 center integrals:                         14.92615449892441

  Total energy:                                              -353.95178092299642

  outer SCF iter =    2 RMS gradient =   0.25E-04 energy =       -353.9517809230

  ----------------------------------- OT ---------------------------------------
  Minimizer      : DIIS                : direct inversion
                                         in the iterative subspace
                                         using   7 DIIS vectors
                                         safer DIIS on
  Preconditioner : FULL_ALL            : diagonalization, state selective
  Precond_solver : DEFAULT
  stepsize       :    0.15000000                  energy_gap     :    0.08000000
  eps_taylor     :   0.10000E-15                  max_taylor     :             4
  ----------------------------------- OT ---------------------------------------

  Step     Update method      Time    Convergence         Total energy    Change
  ------------------------------------------------------------------------------
     1 OT DIIS     0.15E+00    1.2     0.00001269      -353.9517811224 -1.99E-07
     2 OT DIIS     0.15E+00    0.6     0.00001312      -353.9517811380 -1.56E-08
     3 OT DIIS     0.15E+00    0.6     0.00000250      -353.9517811610 -2.30E-08
     4 OT DIIS     0.15E+00    0.6     0.00000016      -353.9517811635 -2.47E-09
     5 OT DIIS     0.15E+00    0.6     0.00000014      -353.9517811635 -6.05E-11
     6 OT DIIS     0.15E+00    0.6     0.00000002      -353.9517811635 -9.83E-12

  *** SCF run converged in     6 steps ***


  Electronic density on regular grids:        -24.8061929237        9.1938070763
  Core density on regular grids:               34.0000000000        0.0000000000
  Hard and soft densities (Lebedev):          -44.1142443587      -34.9204334878
  Total Rho_soft + Rho1_hard - Rho1_soft      -34.0000037945
  Total charge density (r-space):              -0.0000037945
  Total Rho_soft + Rho0_soft (g-space):        -0.0000040604

  Overlap energy of the core charge distribution:               0.00000000002939
  Self energy of the core charge distribution:               -361.48974579757913
  Core Hamiltonian energy:                                    -21.88910279992800
  Hartree energy:                                              52.24139858850126
  Exchange-correlation energy:                                -14.82758178102834

  GAPW| Exc from hard and soft atomic rho1:                   -22.91286254814139
  GAPW| local Eh = 1 center integrals:                         14.92611317460906

  Total energy:                                              -353.95178116353725

  outer SCF iter =    3 RMS gradient =   0.19E-07 energy =       -353.9517811635
  outer SCF loop converged in   3 iterations or   26 steps


 ENERGY| Total FORCE_EVAL ( QS ) energy [a.u.]:             -353.951781163537248

 -------------------------------------------------------------------------------
 -                                                                             -
 -                                DBCSR STATISTICS                             -
 -                                                                             -
 -------------------------------------------------------------------------------
 COUNTER                                    TOTAL       BLAS       SMM       ACC
 flops    17 x    17 x    17              1709724       0.0%    100.0%      0.0%
 flops    17 x    17 x    57             14100888       0.0%    100.0%      0.0%
 flops    57 x    17 x    17             17527272       0.0%    100.0%      0.0%
 flops    57 x    57 x    17             29825820       0.0%    100.0%      0.0%
 flops    57 x    17 x    57            229769280       0.0%    100.0%      0.0%
 flops inhomo. stacks                           0       0.0%      0.0%      0.0%
 flops total                       292.932984E+06       0.0%    100.0%      0.0%
 flops max/rank                     80.617332E+06       0.0%    100.0%      0.0%
 matmuls inhomo. stacks                         0       0.0%      0.0%      0.0%
 matmuls total                               3484       0.0%    100.0%      0.0%
 number of processed stacks                  3484       0.0%    100.0%      0.0%
 average stack size                                     0.0       1.0       0.0
 marketing flops                   311.223616E+06
 -------------------------------------------------------------------------------
 # multiplications                            574
 max memory usage/rank             313.217024E+06
 # max total images/rank                        1
 # max 3D layers                                1
 # MPI messages exchanged                  206640
 MPI messages size (bytes):
  total size                       358.203392E+06
  min size                           0.000000E+00
  max size                          25.992000E+03
  average size                       1.733466E+03
 MPI breakdown and total messages size (bytes):
             size <=      128              183215                        0
       128 < size <=     8192               13025                 87886600
      8192 < size <=    32768               10400                270316800
     32768 < size <=   131072                   0                        0
    131072 < size <=  4194304                   0                        0
   4194304 < size <= 16777216                   0                        0
  16777216 < size                               0                        0
 -------------------------------------------------------------------------------
 -                                                                             -
 -                      DBCSR MESSAGE PASSING PERFORMANCE                      -
 -                                                                             -
 -------------------------------------------------------------------------------
 ROUTINE             CALLS      AVE VOLUME [Bytes]
 MP_Bcast                6                     12.
 MP_Allreduce         3028                      8.
 MP_Alltoall          2404                   3270.
 MP_ISend            13764                   2000.
 MP_IRecv            13764                   1374.
 -------------------------------------------------------------------------------

 -------------------------------------------------------------------------------
 -                                                                             -
 -                                GRID STATISTICS                              -
 -                                                                             -
 -------------------------------------------------------------------------------
 LP    KERNEL             BACKEND                              COUNT     PERCENT
 2     collocate ortho    REF                                   9315       9.83%
 2     integrate ortho    REF                                   8970       9.47%
 3     collocate ortho    REF                                   8694       9.18%
 3     integrate ortho    REF                                   8372       8.84%
 4     collocate ortho    REF                                   7722       8.15%
 1     collocate ortho    REF                                   7479       7.90%
 4     integrate ortho    REF                                   7436       7.85%
 1     integrate ortho    REF                                   7202       7.60%
 5     collocate ortho    REF                                   4725       4.99%
 5     integrate ortho    REF                                   4550       4.80%
 2     collocate general  REF                                   3744       3.95%
 2     integrate general  REF                                   3744       3.95%
 0     collocate ortho    REF                                   2862       3.02%
 0     integrate ortho    REF                                   2756       2.91%
 6     collocate ortho    REF                                   2295       2.42%
 6     integrate ortho    REF                                   2210       2.33%
 7     collocate ortho    REF                                   1080       1.14%
 7     integrate ortho    REF                                   1040       1.10%
 8     collocate ortho    REF                                    270       0.29%
 8     integrate ortho    REF                                    260       0.27%
 -------------------------------------------------------------------------------

 MEMORY| Estimated peak process memory [MiB]                                 299

 -------------------------------------------------------------------------------
 -                                                                             -
 -                         MESSAGE PASSING PERFORMANCE                         -
 -                                                                             -
 -------------------------------------------------------------------------------

 ROUTINE             CALLS      AVE VOLUME [Bytes]
 MP_Group                4
 MP_Bcast              622                 259326.
 MP_Allreduce         1903                  84638.
 MP_Sync                62
 MP_Alltoall           592                6283143.
 MP_ISendRecv         5565                  92352.
 MP_Wait             10710
 MP_comm_split          29
 MP_ISend             4620                 224123.
 MP_IRecv             4620                 224146.
 MP_Recv                10                   5472.
 -------------------------------------------------------------------------------


 -------------------------------------------------------------------------------
 -                                                                             -
 -                           R E F E R E N C E S                               -
 -                                                                             -
 -------------------------------------------------------------------------------
 
 CP2K version 10.0 (Development Version), the CP2K developers group (2022).
 CP2K is freely available from https://www.cp2k.org/ .

 Kuehne,Thomas D.; Iannuzzi,Marcella; Del Ben,Mauro;
 Rybkin,Vladimir V.; Seewald,Patrick; Stein,Frederick; Laino,Teodoro;
 Khaliullin,Rustam Z.; Schuett,Ole; Schiffmann,Florian; Golze,Dorothea;
 Wilhelm,Jan; Chulkov,Sergey; Bani-Hashemian,Mohammad Hossein;
 Weber,Valery; Borstnik,Urban; Taillefumier,Mathieu;
 Jakobovits,Alice Shoshana; Lazzaro,Alfio; Pabst,Hans; Mueller,Tiziano;
 Schade,Robert; Guidon,Manuel; Andermatt,Samuel; Holmberg,Nico;
 Schenter,Gregory K.; Hehn,Anna; Bussy,Augustin; Belleflamme,Fabian;
 Tabacchi,Gloria; Gloess,Andreas; Lass,Michael; Bethune,Iain;
 Mundy,Christopher J.; Plessl,Christian; Watkins,Matt;
 VandeVondele,Joost; Krack,Matthias; Hutter,Juerg. 
 The Journal of Chemical Physics, 152 (19), (2020). 
 CP2K: An electronic structure and molecular dynamics software package -
 Quickstep: Efficient and accurate electronic structure calculations.
 https://doi.org/10.1063/5.0007045

 Schuett, Ole; Messmer, Peter; Hutter, Juerg; VandeVondele, Joost. 
 Electronic Structure Calculations on Graphics Processing Units, John
 Wiley & Sons, Ltd, 173-190 (2016). 
 GPU-Accelerated Sparse Matrix-Matrix Multiplication for
 Linear Scaling Density Functional Theory.
 https://doi.org/10.1002/9781118670712.ch8

 Heinecke, A; Henry, G; Hutchinson, M; Pabst, H. 
 Proceedings of Intl. Supercomputing Conference, 981-991 (2016). 
 LIBXSMM: Accelerating Small Matrix Multiplications
 by Runtime Code Generation.
 https://doi.org/10.1109/SC.2016.83

 Borstnik, U; VandeVondele, J; Weber, V; Hutter, J. 
 PARALLEL COMPUTING, 40 (5-6), 47-58 (2014). 
 Sparse matrix multiplication: The distributed block-compressed sparse
 row library.
 https://doi.org/10.1016/j.parco.2014.03.012

 Hutter, J; Iannuzzi, M; Schiffmann, F; VandeVondele, J. 
 WIREs Comput Mol Sci., 4 (1), 15-25 (2014). 
 CP2K: atomistic simulations of condensed matter systems.
 https://doi.org/10.1002/wcms.1159

 Frigo, M; Johnson, SG. 
 PROCEEDINGS OF THE IEEE, 93 (2), 216-231 (2005). 
 The design and implementation of FFTW3.
 https://doi.org/10.1109/JPROC.2004.840301

 VandeVondele, J; Hutter, J. 
 JOURNAL OF CHEMICAL PHYSICS, 118 (10), 4365-4369 (2003). 
 An efficient orbital transformation method for electronic structure
 calculations.
 https://doi.org/10.1063/1.1543154

 Lippert, G; Hutter, J; Parrinello, M. 
 THEORETICAL CHEMISTRY ACCOUNTS, 103 (2), 124-140 (1999). 
 The Gaussian and augmented-plane-wave density functional method for ab
 initio molecular dynamics simulations.
 https://doi.org/10.1007/s002140050523

 Krack, M; Parrinello, M. 
 PHYSICAL CHEMISTRY CHEMICAL PHYSICS, 2 (10), 2105-2112 (2000). 
 All-electron ab-initio molecular dynamics.
 https://doi.org/10.1039/b001167n

 Perdew, JP; Burke, K; Ernzerhof, M. 
 PHYSICAL REVIEW LETTERS, 77 (18), 3865-3868 (1996). 
 Generalized gradient approximation made simple.
 https://doi.org/10.1103/PhysRevLett.77.3865


 -------------------------------------------------------------------------------
 -                                                                             -
 -                                T I M I N G                                  -
 -                                                                             -
 -------------------------------------------------------------------------------
 SUBROUTINE                       CALLS  ASD         SELF TIME        TOTAL TIME
                                MAXIMUM       AVERAGE  MAXIMUM  AVERAGE  MAXIMUM
 CP2K                                 1  1.0    0.006    0.029   16.055   16.056
 qs_energies                          1  2.0    0.000    0.000   15.870   15.870
 scf_env_do_scf                       1  3.0    0.000    0.000   15.726   15.726
 scf_env_do_scf_inner_loop           26  4.0    0.000    0.002   14.141   14.141
 qs_ks_update_qs_env                 29  5.0    0.000    0.000   12.594   12.596
 rebuild_ks_matrix                   26  6.0    0.000    0.000   12.590   12.592
 qs_ks_build_kohn_sham_matrix        26  7.0    0.005    0.006   12.590   12.591
 pw_transfer                        551 10.1    0.051    0.059    4.580    4.975
 fft_wrap_pw1pw2                    473 11.3    0.006    0.006    4.494    4.891
 fft_wrap_pw1pw2_250                314 12.6    0.271    0.344    4.265    4.652
 fft3d_ps                           473 13.3    1.733    2.076    3.542    3.976
 rs_pw_transfer                     264  9.5    0.005    0.007    3.569    3.752
 qs_vxc_create                       26  8.0    0.001    0.001    3.439    3.440
 xc_vxc_pw_create                    26  9.0    0.026    0.030    3.439    3.439
 xc_pw_derive                       156 11.0    0.001    0.002    2.516    2.892
 prepare_gapw_den                    26  8.0    0.001    0.001    2.804    2.824
 qs_rho_update_rho                   27  5.0    0.000    0.001    2.577    2.580
 calculate_rho_elec                  27  6.0    0.014    0.016    2.471    2.471
 sum_up_and_integrate                26  8.0    0.009    0.013    2.456    2.461
 integrate_v_rspace                  26  9.0    0.001    0.001    2.447    2.452
 mp_alltoall_z22v                   473 15.3    1.452    2.262    1.452    2.262
 mp_sum_d                          1154  6.8    2.021    2.254    2.021    2.254
 density_rs2pw                       27  7.0    0.001    0.002    2.035    2.199
 xc_pw_divergence                    26 10.0    0.001    0.001    1.752    2.127
 xc_rho_set_and_dset_create          26 10.0    0.027    0.033    1.596    1.981
 calculate_vxc_atom                  26  8.0    0.019    0.206    1.714    1.714
 yz_to_x                            211 14.1    0.148    0.241    1.096    1.683
 rs_pw_transfer_RS2PW_250            53 10.0    0.686    0.880    1.447    1.610
 init_scf_loop                        3  4.0    0.000    0.000    1.584    1.584
 potential_pw2rs                     26 10.0    0.002    0.002    1.555    1.558
 mp_waitany                        4620 11.5    1.113    1.528    1.113    1.528
 gaVxcgb_GC                          52  9.0    0.079    1.414    0.079    1.414
 calculate_rho_atom                  52  9.0    0.552    1.394    0.552    1.394
 rs_pw_transfer_PW2RS_250            52 11.0    0.690    0.815    1.293    1.355
 integrate_vhg0_rspace               26  8.0    0.172    0.217    1.330    1.346
 put_rho0_on_grid                    26  9.0    0.017    0.022    1.039    1.060
 mp_sum_dv                          597 12.9    0.720    0.978    0.720    0.978
 mp_alltoall_d11v                   641 11.5    0.798    0.908    0.798    0.908
 grid_collocate_task_list            27  7.0    0.368    0.899    0.368    0.899
 rs_gather_matrices                  26 10.0    0.000    0.001    0.782    0.891
 grid_integrate_task_list            26 10.0    0.109    0.888    0.109    0.888
 x_to_yz                            209 14.6    0.179    0.246    0.681    0.818
 mp_waitall_1                     42826 13.8    0.618    0.777    0.618    0.777
 xc_functional_eval                 130 10.8    0.000    0.001    0.407    0.766
 pbe_lda_eval                       130 11.8    0.406    0.766    0.406    0.766
 calculate_rho0_atom                 52  9.0    0.495    0.677    0.495    0.677
 qs_scf_new_mos                      26  5.0    0.000    0.000    0.518    0.521
 qs_scf_loop_do_ot                   26  6.0    0.000    0.000    0.518    0.521
 mp_sum_dm                          320  7.7    0.414    0.514    0.414    0.514
 dbcsr_multiply_generic             574 10.0    0.016    0.016    0.489    0.501
 ot_scf_mini                         26  7.0    0.000    0.000    0.496    0.498
 pw_gather_p                        238 12.9    0.325    0.423    0.325    0.423
 rs_pw_transfer_PW2RS_90             26 12.0    0.075    0.089    0.340    0.413
 pw_scatter_p                       235 13.7    0.337    0.364    0.337    0.364
 -------------------------------------------------------------------------------

 The number of warnings for this run is : 0
 
 -------------------------------------------------------------------------------
  **** **** ******  **  PROGRAM ENDED AT                 2022-05-09 20:35:34.624
 ***** ** ***  *** **   PROGRAM RAN ON                                   tcopt10
 **    ****   ******    PROGRAM RAN BY                                    hutter
 ***** **    ** ** **   PROGRAM PROCESS ID                                 44468
  **** **  *******  **  PROGRAM STOPPED IN /data/hutter/GITHUB/BASIS/scMOLOPT/PB
                                           E/hbcnof
