 DBCSR| CPU Multiplication driver                                           XSMM
 DBCSR| Multrec recursion limit                                              512
 DBCSR| Multiplication stack size                                           1000
 DBCSR| Maximum elements for images                                    UNLIMITED
 DBCSR| Multiplicative factor virtual images                                   1
 DBCSR| Use multiplication densification                                       T
 DBCSR| Multiplication size stacks                                             3
 DBCSR| Use memory pool for CPU allocation                                     F
 DBCSR| Number of 3D layers                                               SINGLE
 DBCSR| Use MPI memory allocation                                              F
 DBCSR| Use RMA algorithm                                                      F
 DBCSR| Use Communication thread                                               T
 DBCSR| Communication thread load                                             87
 DBCSR| MPI: My node id                                                        0
 DBCSR| MPI: Number of nodes                                                  36
 DBCSR| OMP: Current number of threads                                         1
 DBCSR| OMP: Max number of threads                                             1
 DBCSR| Split modifier for TAS multiplication algorithm                  1.0E+00


  **** **** ******  **  PROGRAM STARTED AT               2022-05-31 12:20:02.122
 ***** ** ***  *** **   PROGRAM STARTED ON                               tcopt10
 **    ****   ******    PROGRAM STARTED BY                                hutter
 ***** **    ** ** **   PROGRAM PROCESS ID                                 80458
  **** **  *******  **  PROGRAM STARTED IN /data/hutter/GITHUB/BASIS/scMOLOPT/PB
                                           E/Ru

 CP2K| version string:                   CP2K version 10.0 (Development Version)
 CP2K| source code revision number:                                  git:d19b00a
 CP2K| cp2kflags: omp libint fftw3 libxc elpa parallel mpi3 scalapack cosma xsmm
 CP2K|             spglib sirius libvori libbqb
 CP2K| is freely available from                            https://www.cp2k.org/
 CP2K| Program compiled at                      Wed 18 May 2022 12:15:59 PM CEST
 CP2K| Program compiled on                                               tcopt10
 CP2K| Program compiled for                                                local
 CP2K| Data directory path                   /data/hutter/GITHUB/TDLRI/cp2k/data
 CP2K| Input file name                                              RuO2-ref.inp

 GLOBAL| Force Environment number                                              1
 GLOBAL| Basis set file name                                        ../def2QZVPP
 GLOBAL| Potential file name                                        ../POTENTIAL
 GLOBAL| MM Potential file name                                     MM_POTENTIAL
 GLOBAL| Coordinate file name                                      __STD_INPUT__
 GLOBAL| Method name                                                        CP2K
 GLOBAL| Project name                                                    refRuO2
 GLOBAL| Run type                                                         ENERGY
 GLOBAL| FFT library                                                       FFTW3
 GLOBAL| Diagonalization library                                            ELPA
 GLOBAL| Minimum number of eigenvectors for ELPA usage                        16
 GLOBAL| Orthonormality check for eigenvectors                          DISABLED
 GLOBAL| Matrix multiplication library                                     COSMA
 GLOBAL| All-to-all communication in single precision                          F
 GLOBAL| FFTs using library dependent lengths                                  F
 GLOBAL| Grid backend                                                       AUTO
 GLOBAL| Global print level                                                  LOW
 GLOBAL| MPI I/O enabled                                                       T
 GLOBAL| Total number of message passing processes                            36
 GLOBAL| Number of threads for this process                                    1
 GLOBAL| This output is from process                                           0
 GLOBAL| Stack size for threads created by OpenMP (OMP_STACKSIZE)        default
 GLOBAL| CPU model name                          AMD EPYC 7401 24-Core Processor
 GLOBAL| CPUID                                                              1002

 MEMORY| system memory details [Kb]
 MEMORY|                        rank 0           min           max       average
 MEMORY| MemTotal            263969132     263969132     263969132     263969132
 MEMORY| MemFree             237258900     237258900     237258900     237258900
 MEMORY| Buffers                  2836          2836          2836          2836
 MEMORY| Cached               20264816      20264812      20264816      20264812
 MEMORY| Slab                  1471960       1471960       1471960       1471960
 MEMORY| SReclaimable           878644        878644        878644        878644
 MEMORY| MemLikelyFree       258405196     258405192     258405196     258405192


 GENERATE|  Preliminary Number of Bonds generated:                             0
 GENERATE|  Achieved consistency in connectivity generation.

 *******************************************************************************
 *******************************************************************************
 **                                                                           **
 **     #####                         ##              ##                      **
 **    ##   ##            ##          ##              ##                      **
 **   ##     ##                       ##            ######                    **
 **   ##     ##  ##   ##  ##   #####  ##  ##   ####   ##    #####    #####    **
 **   ##     ##  ##   ##  ##  ##      ## ##   ##      ##   ##   ##  ##   ##   **
 **   ##  ## ##  ##   ##  ##  ##      ####     ###    ##   ######   ######    **
 **    ##  ###   ##   ##  ##  ##      ## ##      ##   ##   ##       ##        **
 **     #######   #####   ##   #####  ##  ##  ####    ##    #####   ##        **
 **           ##                                                    ##        **
 **                                                                           **
 **                                                ... make the atoms dance   **
 **                                                                           **
 **            Copyright (C) by CP2K developers group (2000-2022)             **
 **                      J. Chem. Phys. 152, 194103 (2020)                    **
 **                                                                           **
 *******************************************************************************


 TOTAL NUMBERS AND MAXIMUM NUMBERS

  Total number of            - Atomic kinds:                                   2
                             - Atoms:                                          3
                             - Shell sets:                                    56
                             - Shells:                                        56
                             - Primitive Cartesian functions:                 88
                             - Cartesian basis functions:                    260
                             - Spherical basis functions:                    202

  Maximum angular momentum of- Orbital basis functions:                        4
                             - Local part of the GTH pseudopotential:          2
                             - Non-local part of the GTH pseudopotential:      4


 SCF PARAMETERS         Density guess:                                    ATOMIC
                        --------------------------------------------------------
                        max_scf:                                              20
                        max_scf_history:                                       0
                        max_diis:                                              4
                        --------------------------------------------------------
                        eps_scf:                                        1.00E-07
                        eps_scf_history:                                0.00E+00
                        eps_diis:                                       1.00E-01
                        eps_eigval:                                     1.00E-05
                        --------------------------------------------------------
                        level_shift [a.u.]:                             0.000000
                        --------------------------------------------------------
                        Outer loop SCF in use 
                        No variables optimised in outer loop
                        eps_scf                                         1.00E-07
                        max_scf                                                5
                        No outer loop optimization
                        step_size                                       5.00E-01

 Number of electrons:                                                         32
 Number of occupied orbitals:                                                 16
 Number of molecular orbitals:                                                16

 Number of orbital functions:                                                202
 Number of independent orbital functions:                                    202

 Extrapolation method: initial_guess


 SCF WAVEFUNCTION OPTIMIZATION

  ----------------------------------- OT ---------------------------------------
  Minimizer      : DIIS                : direct inversion
                                         in the iterative subspace
                                         using   7 DIIS vectors
                                         safer DIIS on
  Preconditioner : FULL_ALL            : diagonalization, state selective
  Precond_solver : DEFAULT
  stepsize       :    0.10000000                  energy_gap     :    0.08000000
  eps_taylor     :   0.10000E-15                  max_taylor     :             4
  ----------------------------------- OT ---------------------------------------

  Step     Update method      Time    Convergence         Total energy    Change
  ------------------------------------------------------------------------------
     1 OT DIIS     0.10E+00    0.7     0.19686576      -230.3318602603 -2.30E+02
     2 OT DIIS     0.10E+00    0.8     0.08903348      -239.4312720715 -9.10E+00
     3 OT DIIS     0.10E+00    0.8     0.02987329      -241.4836355892 -2.05E+00
     4 OT DIIS     0.10E+00    0.8     0.02379160      -241.7047568454 -2.21E-01
     5 OT DIIS     0.10E+00    0.8     0.01387507      -242.0375363382 -3.33E-01
     6 OT DIIS     0.10E+00    0.8     0.01207785      -242.1415359460 -1.04E-01
     7 OT DIIS     0.10E+00    0.8     0.00810805      -242.2719606793 -1.30E-01
     8 OT DIIS     0.10E+00    0.8     0.00618923      -242.3691670695 -9.72E-02
     9 OT DIIS     0.10E+00    0.8     0.00533722      -242.4050855955 -3.59E-02
    10 OT DIIS     0.10E+00    0.8     0.00398949      -242.4612518032 -5.62E-02
    11 OT DIIS     0.10E+00    0.8     0.00376328      -242.4738925638 -1.26E-02
    12 OT DIIS     0.10E+00    0.8     0.00330732      -242.4946823607 -2.08E-02
    13 OT DIIS     0.10E+00    0.8     0.00294576      -242.5129889331 -1.83E-02
    14 OT DIIS     0.10E+00    0.8     0.00260826      -242.5326145271 -1.96E-02
    15 OT DIIS     0.10E+00    0.8     0.00246479      -242.5499699629 -1.74E-02
    16 OT DIIS     0.10E+00    0.8     0.00289076      -242.5551341208 -5.16E-03
    17 OT DIIS     0.10E+00    0.8     0.00208413      -242.5623792870 -7.25E-03
    18 OT DIIS     0.10E+00    0.8     0.00190099      -242.5735821220 -1.12E-02
    19 OT DIIS     0.10E+00    0.8     0.00183117      -242.5789084462 -5.33E-03
    20 OT DIIS     0.10E+00    0.8     0.00172718      -242.5881923456 -9.28E-03

  Leaving inner SCF loop after reaching    20 steps.


  Electronic density on regular grids:        -29.1116391025        2.8883608975
  Core density on regular grids:               32.0000000000        0.0000000000
  Hard and soft densities (Lebedev):          -47.1679083564      -44.2795487995
  Total Rho_soft + Rho1_hard - Rho1_soft      -31.9999986593
  Total charge density (r-space):               0.0000013407
  Total Rho_soft + Rho0_soft (g-space):         0.0000010644

  Overlap energy of the core charge distribution:               0.00000001190689
  Self energy of the core charge distribution:               -310.25291229970685
  Core Hamiltonian energy:                                     24.61985031048736
  Hartree energy:                                             164.13499909704439
  Exchange-correlation energy:                                -17.80992482090799

  GAPW| Exc from hard and soft atomic rho1:                    -8.82730935547019
  GAPW| local Eh = 1 center integrals:                        -94.45289528897207

  Total energy:                                              -242.58819234561844

  outer SCF iter =    1 RMS gradient =   0.17E-02 energy =       -242.5881923456

  ----------------------------------- OT ---------------------------------------
  Minimizer      : DIIS                : direct inversion
                                         in the iterative subspace
                                         using   7 DIIS vectors
                                         safer DIIS on
  Preconditioner : FULL_ALL            : diagonalization, state selective
  Precond_solver : DEFAULT
  stepsize       :    0.10000000                  energy_gap     :    0.08000000
  eps_taylor     :   0.10000E-15                  max_taylor     :             4
  ----------------------------------- OT ---------------------------------------

  Step     Update method      Time    Convergence         Total energy    Change
  ------------------------------------------------------------------------------
     1 OT DIIS     0.10E+00    1.6     0.00955937      -242.5950087117 -6.82E-03
     2 OT DIIS     0.10E+00    0.8     0.00988084      -242.6235791957 -2.86E-02
     3 OT SD       0.10E+00    0.8     0.00994401      -242.6345414483 -1.10E-02
     4 OT SD       0.10E+00    0.8     0.01080625      -242.6666228392 -3.21E-02
     5 OT SD       0.10E+00    0.8     0.01388673      -242.6971775836 -3.06E-02
     6 OT DIIS     0.10E+00    0.8     0.03171768      -242.6961102690  1.07E-03
     7 OT DIIS     0.10E+00    0.8     0.01497675      -242.7130250987 -1.69E-02
     8 OT DIIS     0.10E+00    0.8     0.01055117      -242.7428038136 -2.98E-02
     9 OT DIIS     0.10E+00    0.8     0.01288597      -242.7324474842  1.04E-02
    10 OT DIIS     0.10E+00    0.8     0.00674953      -242.7512534196 -1.88E-02
    11 OT DIIS     0.10E+00    0.8     0.00413571      -242.7614116300 -1.02E-02
    12 OT DIIS     0.10E+00    0.8     0.00132406      -242.7658744373 -4.46E-03
    13 OT DIIS     0.10E+00    0.8     0.00091965      -242.7666555439 -7.81E-04
    14 OT DIIS     0.10E+00    0.8     0.00065477      -242.7668023632 -1.47E-04
    15 OT DIIS     0.10E+00    0.8     0.00056310      -242.7668345679 -3.22E-05
    16 OT DIIS     0.10E+00    0.8     0.00029644      -242.7668589296 -2.44E-05
    17 OT DIIS     0.10E+00    0.8     0.00010147      -242.7668767283 -1.78E-05
    18 OT DIIS     0.10E+00    0.8     0.00012481      -242.7668775395 -8.11E-07
    19 OT DIIS     0.10E+00    0.8     0.00001174      -242.7668796143 -2.07E-06
    20 OT DIIS     0.10E+00    0.8     0.00000656      -242.7668796574 -4.31E-08

  Leaving inner SCF loop after reaching    20 steps.


  Electronic density on regular grids:        -29.0499073996        2.9500926004
  Core density on regular grids:               32.0000000000        0.0000000000
  Hard and soft densities (Lebedev):          -46.8373344769      -43.8872435018
  Total Rho_soft + Rho1_hard - Rho1_soft      -31.9999983747
  Total charge density (r-space):               0.0000016253
  Total Rho_soft + Rho0_soft (g-space):         0.0000013500

  Overlap energy of the core charge distribution:               0.00000001190689
  Self energy of the core charge distribution:               -310.25291229970685
  Core Hamiltonian energy:                                     24.67966407319390
  Hartree energy:                                             163.88890049231122
  Exchange-correlation energy:                                -17.82234978064425

  GAPW| Exc from hard and soft atomic rho1:                    -8.90085114326773
  GAPW| local Eh = 1 center integrals:                        -94.35933101119355

  Total energy:                                              -242.76687965740035

  outer SCF iter =    2 RMS gradient =   0.66E-05 energy =       -242.7668796574

  ----------------------------------- OT ---------------------------------------
  Minimizer      : DIIS                : direct inversion
                                         in the iterative subspace
                                         using   7 DIIS vectors
                                         safer DIIS on
  Preconditioner : FULL_ALL            : diagonalization, state selective
  Precond_solver : DEFAULT
  stepsize       :    0.10000000                  energy_gap     :    0.08000000
  eps_taylor     :   0.10000E-15                  max_taylor     :             4
  ----------------------------------- OT ---------------------------------------

  Step     Update method      Time    Convergence         Total energy    Change
  ------------------------------------------------------------------------------
     1 OT DIIS     0.10E+00    1.6     0.00000210      -242.7668796790 -2.16E-08
     2 OT DIIS     0.10E+00    0.8     0.00000150      -242.7668796800 -1.06E-09
     3 OT DIIS     0.10E+00    0.8     0.00000255      -242.7668796802 -1.40E-10
     4 OT DIIS     0.10E+00    0.8     0.00000022      -242.7668796806 -4.50E-10
     5 OT DIIS     0.10E+00    0.8     0.00000018      -242.7668796806 -3.67E-12
     6 OT DIIS     0.10E+00    0.8     0.00000002      -242.7668796806 -6.82E-13

  *** SCF run converged in     6 steps ***


  Electronic density on regular grids:        -29.0498894047        2.9501105953
  Core density on regular grids:               32.0000000000        0.0000000000
  Hard and soft densities (Lebedev):          -46.8373065450      -43.8871975750
  Total Rho_soft + Rho1_hard - Rho1_soft      -31.9999983746
  Total charge density (r-space):               0.0000016254
  Total Rho_soft + Rho0_soft (g-space):         0.0000013501

  Overlap energy of the core charge distribution:               0.00000001190689
  Self energy of the core charge distribution:               -310.25291229970685
  Core Hamiltonian energy:                                     24.67968888563396
  Hartree energy:                                             163.88884217408093
  Exchange-correlation energy:                                -17.82233340952483

  GAPW| Exc from hard and soft atomic rho1:                    -8.90087472458627
  GAPW| local Eh = 1 center integrals:                        -94.35929031841439

  Total energy:                                              -242.76687968061060

  outer SCF iter =    3 RMS gradient =   0.20E-07 energy =       -242.7668796806
  outer SCF loop converged in   3 iterations or   46 steps


 ENERGY| Total FORCE_EVAL ( QS ) energy [a.u.]:             -242.766879680610600

 -------------------------------------------------------------------------------
 -                                                                             -
 -                                DBCSR STATISTICS                             -
 -                                                                             -
 -------------------------------------------------------------------------------
 COUNTER                                    TOTAL       BLAS       SMM       ACC
 flops    16 x    16 x    16              2899968       0.0%    100.0%      0.0%
 flops    57 x    88 x    16              7544064       0.0%    100.0%      0.0%
 flops    88 x    57 x    16              7544064       0.0%    100.0%      0.0%
 flops    16 x    16 x    88              8425472       0.0%    100.0%      0.0%
 flops    88 x    16 x    16             10498048       0.0%    100.0%      0.0%
 flops    16 x    16 x    57             10914816       0.0%    100.0%      0.0%
 flops    88 x    88 x    16             11646976       0.0%    100.0%      0.0%
 flops    57 x    16 x    16             13599744       0.0%    100.0%      0.0%
 flops    57 x    57 x    16             14659488       0.0%    100.0%      0.0%
 flops    88 x    16 x    88             52039680       0.0%    100.0%      0.0%
 flops    88 x    16 x    57             67415040       0.0%    100.0%      0.0%
 flops    57 x    16 x    88             67415040       0.0%    100.0%      0.0%
 flops    57 x    16 x    57             87333120       0.0%    100.0%      0.0%
 flops inhomo. stacks                           0       0.0%      0.0%      0.0%
 flops total                       361.935520E+06       0.0%    100.0%      0.0%
 flops max/rank                    163.840000E+06       0.0%    100.0%      0.0%
 matmuls inhomo. stacks                         0       0.0%      0.0%      0.0%
 matmuls total                               3786       0.0%    100.0%      0.0%
 number of processed stacks                  3786       0.0%    100.0%      0.0%
 average stack size                                     0.0       1.0       0.0
 marketing flops                   382.220608E+06
 -------------------------------------------------------------------------------
 # multiplications                           1034
 max memory usage/rank             398.192640E+06
 # max total images/rank                        1
 # max 3D layers                                1
 # MPI messages exchanged                  372240
 MPI messages size (bytes):
  total size                       470.163520E+06
  min size                           0.000000E+00
  max size                          61.952000E+03
  average size                       1.263066E+03
 MPI breakdown and total messages size (bytes):
             size <=      128              344420                        0
       128 < size <=     8192               13815                 76102400
      8192 < size <=    32768                8755                160473920
     32768 < size <=   131072                5250                233587200
    131072 < size <=  4194304                   0                        0
   4194304 < size <= 16777216                   0                        0
  16777216 < size                               0                        0
 -------------------------------------------------------------------------------
 -                                                                             -
 -                      DBCSR MESSAGE PASSING PERFORMANCE                      -
 -                                                                             -
 -------------------------------------------------------------------------------
 ROUTINE             CALLS      AVE VOLUME [Bytes]
 MP_Bcast               14                     12.
 MP_Allreduce         5524                      8.
 MP_Alltoall          3856                   3098.
 MP_ISend            24804                   2096.
 MP_IRecv            24804                   1079.
 -------------------------------------------------------------------------------

 -------------------------------------------------------------------------------
 -                                                                             -
 -                                GRID STATISTICS                              -
 -                                                                             -
 -------------------------------------------------------------------------------
 LP    KERNEL             BACKEND                              COUNT     PERCENT
 2     collocate ortho    REF                                  36284      11.38%
 2     integrate ortho    REF                                  35512      11.14%
 3     collocate ortho    REF                                  32618      10.23%
 3     integrate ortho    REF                                  31924      10.01%
 1     collocate ortho    REF                                  30080       9.43%
 1     integrate ortho    REF                                  29440       9.23%
 4     collocate ortho    REF                                  24863       7.80%
 4     integrate ortho    REF                                  24334       7.63%
 5     collocate ortho    REF                                  13724       4.30%
 5     integrate ortho    REF                                  13432       4.21%
 0     collocate ortho    REF                                  11045       3.46%
 0     integrate ortho    REF                                  10810       3.39%
 6     collocate ortho    REF                                   5029       1.58%
 2     collocate general  REF                                   4968       1.56%
 2     integrate general  REF                                   4968       1.56%
 6     integrate ortho    REF                                   4922       1.54%
 7     collocate ortho    REF                                   1974       0.62%
 7     integrate ortho    REF                                   1932       0.61%
 8     collocate ortho    REF                                    517       0.16%
 8     integrate ortho    REF                                    506       0.16%
 -------------------------------------------------------------------------------

 MEMORY| Estimated peak process memory [MiB]                                 380

 -------------------------------------------------------------------------------
 -                                                                             -
 -                         MESSAGE PASSING PERFORMANCE                         -
 -                                                                             -
 -------------------------------------------------------------------------------

 ROUTINE             CALLS      AVE VOLUME [Bytes]
 MP_Group                4
 MP_Bcast             1089                 210294.
 MP_Allreduce         2992                 128064.
 MP_Sync               102
 MP_Alltoall           938                6526497.
 MP_ISendRecv         9765                 115968.
 MP_Wait             18830
 MP_comm_split          49
 MP_ISend             8140                 289178.
 MP_IRecv             8140                 289178.
 MP_Recv                15                   4848.
 -------------------------------------------------------------------------------


 -------------------------------------------------------------------------------
 -                                                                             -
 -                           R E F E R E N C E S                               -
 -                                                                             -
 -------------------------------------------------------------------------------
 
 CP2K version 10.0 (Development Version), the CP2K developers group (2022).
 CP2K is freely available from https://www.cp2k.org/ .

 Kuehne,Thomas D.; Iannuzzi,Marcella; Del Ben,Mauro;
 Rybkin,Vladimir V.; Seewald,Patrick; Stein,Frederick; Laino,Teodoro;
 Khaliullin,Rustam Z.; Schuett,Ole; Schiffmann,Florian; Golze,Dorothea;
 Wilhelm,Jan; Chulkov,Sergey; Bani-Hashemian,Mohammad Hossein;
 Weber,Valery; Borstnik,Urban; Taillefumier,Mathieu;
 Jakobovits,Alice Shoshana; Lazzaro,Alfio; Pabst,Hans; Mueller,Tiziano;
 Schade,Robert; Guidon,Manuel; Andermatt,Samuel; Holmberg,Nico;
 Schenter,Gregory K.; Hehn,Anna; Bussy,Augustin; Belleflamme,Fabian;
 Tabacchi,Gloria; Gloess,Andreas; Lass,Michael; Bethune,Iain;
 Mundy,Christopher J.; Plessl,Christian; Watkins,Matt;
 VandeVondele,Joost; Krack,Matthias; Hutter,Juerg. 
 The Journal of Chemical Physics, 152 (19), (2020). 
 CP2K: An electronic structure and molecular dynamics software package -
 Quickstep: Efficient and accurate electronic structure calculations.
 https://doi.org/10.1063/5.0007045

 Schuett, Ole; Messmer, Peter; Hutter, Juerg; VandeVondele, Joost. 
 Electronic Structure Calculations on Graphics Processing Units, John
 Wiley & Sons, Ltd, 173-190 (2016). 
 GPU-Accelerated Sparse Matrix-Matrix Multiplication for
 Linear Scaling Density Functional Theory.
 https://doi.org/10.1002/9781118670712.ch8

 Heinecke, A; Henry, G; Hutchinson, M; Pabst, H. 
 Proceedings of Intl. Supercomputing Conference, 981-991 (2016). 
 LIBXSMM: Accelerating Small Matrix Multiplications
 by Runtime Code Generation.
 https://doi.org/10.1109/SC.2016.83

 Borstnik, U; VandeVondele, J; Weber, V; Hutter, J. 
 PARALLEL COMPUTING, 40 (5-6), 47-58 (2014). 
 Sparse matrix multiplication: The distributed block-compressed sparse
 row library.
 https://doi.org/10.1016/j.parco.2014.03.012

 Hutter, J; Iannuzzi, M; Schiffmann, F; VandeVondele, J. 
 WIREs Comput Mol Sci., 4 (1), 15-25 (2014). 
 CP2K: atomistic simulations of condensed matter systems.
 https://doi.org/10.1002/wcms.1159

 Marek, A; Blum, V; Johanni, R; Havu, V; Lang, B; Auckenthaler, T;
 Heinecke, A; Bungartz, H; Lederer, H. 
 Journal of Physics: Condensed Matter, 26 (21), (2014). 
 The ELPA library: scalable parallel eigenvalue solutions for
 electronic structure
 theory and computational science.
 https://doi.org/10.1088/0953-8984/26/21/213201

 Krack, M. 
 THEORETICAL CHEMISTRY ACCOUNTS, 114 (1-3), 145-152 (2005). 
 Pseudopotentials for H to Kr optimized for gradient-corrected
 exchange-correlation functionals.
 https://doi.org/10.1007/s00214-005-0655-y

 Frigo, M; Johnson, SG. 
 PROCEEDINGS OF THE IEEE, 93 (2), 216-231 (2005). 
 The design and implementation of FFTW3.
 https://doi.org/10.1109/JPROC.2004.840301

 VandeVondele, J; Hutter, J. 
 JOURNAL OF CHEMICAL PHYSICS, 118 (10), 4365-4369 (2003). 
 An efficient orbital transformation method for electronic structure
 calculations.
 https://doi.org/10.1063/1.1543154

 Lippert, G; Hutter, J; Parrinello, M. 
 THEORETICAL CHEMISTRY ACCOUNTS, 103 (2), 124-140 (1999). 
 The Gaussian and augmented-plane-wave density functional method for ab
 initio molecular dynamics simulations.
 https://doi.org/10.1007/s002140050523

 Krack, M; Parrinello, M. 
 PHYSICAL CHEMISTRY CHEMICAL PHYSICS, 2 (10), 2105-2112 (2000). 
 All-electron ab-initio molecular dynamics.
 https://doi.org/10.1039/b001167n

 Hartwigsen, C; Goedecker, S; Hutter, J. 
 PHYSICAL REVIEW B, 58 (7), 3641-3662 (1998). 
 Relativistic separable dual-space Gaussian pseudopotentials from H to Rn.
 https://doi.org/10.1103/PhysRevB.58.3641

 Perdew, JP; Burke, K; Ernzerhof, M. 
 PHYSICAL REVIEW LETTERS, 77 (18), 3865-3868 (1996). 
 Generalized gradient approximation made simple.
 https://doi.org/10.1103/PhysRevLett.77.3865

 Goedecker, S; Teter, M; Hutter, J. 
 PHYSICAL REVIEW B, 54 (3), 1703-1710 (1996). 
 Separable dual-space Gaussian pseudopotentials.
 https://doi.org/10.1103/PhysRevB.54.1703


 -------------------------------------------------------------------------------
 -                                                                             -
 -                                T I M I N G                                  -
 -                                                                             -
 -------------------------------------------------------------------------------
 SUBROUTINE                       CALLS  ASD         SELF TIME        TOTAL TIME
                                MAXIMUM       AVERAGE  MAXIMUM  AVERAGE  MAXIMUM
 CP2K                                 1  1.0    0.007    0.031   37.525   37.526
 qs_energies                          1  2.0    0.000    0.000   37.284   37.284
 scf_env_do_scf                       1  3.0    0.000    0.000   36.541   36.541
 scf_env_do_scf_inner_loop           46  4.0    0.001    0.002   34.597   34.597
 qs_ks_update_qs_env                 49  5.0    0.000    0.001   29.464   29.468
 rebuild_ks_matrix                   46  6.0    0.000    0.000   29.457   29.461
 qs_ks_build_kohn_sham_matrix        46  7.0    0.009    0.011   29.457   29.461
 pw_transfer                        971 10.1    0.101    0.124   11.651   11.847
 fft_wrap_pw1pw2                    833 11.3    0.012    0.015   11.446   11.665
 fft_wrap_pw1pw2_300                554 12.7    0.752    0.849   10.697   10.891
 qs_vxc_create                       46  8.0    0.001    0.001   10.295   10.296
 xc_vxc_pw_create                    46  9.0    0.075    0.093   10.294   10.295
 fft3d_ps                           833 13.3    4.600    5.437    8.830    9.248
 rs_pw_transfer                     464  9.5    0.011    0.014    7.624    7.976
 prepare_gapw_den                    46  8.0    0.001    0.002    6.883    6.947
 xc_pw_derive                       276 11.0    0.003    0.003    6.062    6.224
 qs_rho_update_rho                   47  5.0    0.001    0.001    6.112    6.117
 xc_rho_set_and_dset_create          46 10.0    0.072    0.093    5.741    5.858
 calculate_rho_elec                  47  6.0    0.034    0.034    5.649    5.649
 density_rs2pw                       47  7.0    0.002    0.003    4.390    4.691
 sum_up_and_integrate                46  8.0    0.023    0.031    4.479    4.490
 integrate_v_rspace                  46  9.0    0.001    0.001    4.456    4.460
 xc_pw_divergence                    46 10.0    0.002    0.002    4.245    4.416
 mp_alltoall_z22v                   833 15.3    3.235    4.099    3.235    4.099
 mp_sum_d                          1758  8.1    3.557    3.920    3.557    3.920
 potential_pw2rs                     46 10.0    0.004    0.004    3.792    3.796
 calculate_rho_atom                  92  9.0    1.212    3.742    1.212    3.742
 rs_pw_transfer_RS2PW_300            93 10.0    1.611    1.964    2.876    3.215
 rs_pw_transfer_PW2RS_300            92 11.0    1.601    1.948    2.971    3.088
 integrate_vhg0_rspace               46  8.0    0.323    0.508    2.853    2.884
 xc_functional_eval                 138 10.9    0.001    0.001    2.728    2.819
 pbe_lda_eval                       138 11.9    2.727    2.818    2.727    2.818
 yz_to_x                            418 13.9    0.453    0.596    2.275    2.791
 mp_waitany                        8140 11.5    2.107    2.751    2.107    2.751
 put_rho0_on_grid                    46  9.0    0.039    0.054    2.518    2.583
 calculate_vxc_atom                  46  8.0    0.028    0.188    2.549    2.549
 gaVxcgb_GC                          46  9.0    0.133    2.268    0.133    2.268
 x_to_yz                            415 14.7    0.511    0.588    1.924    2.224
 calculate_rho0_atom                 92  9.0    1.643    1.986    1.643    1.986
 init_scf_loop                        3  4.0    0.000    0.000    1.943    1.943
 mp_sum_dv                         1149 12.9    1.515    1.805    1.515    1.805
 mp_waitall_1                     76866 13.9    1.244    1.561    1.244    1.561
 mp_sum_dm                          420  7.7    1.263    1.498    1.263    1.498
 grid_collocate_task_list            47  7.0    0.955    1.492    0.955    1.492
 dbcsr_multiply_generic            1034 10.1    0.028    0.029    1.219    1.247
 pw_gather_p                        418 12.9    0.926    1.133    0.926    1.133
 rs_pw_transfer_PW2RS_100            46 12.0    0.175    0.210    0.827    1.006
 pw_scatter_p                       415 13.7    0.898    1.001    0.898    1.001
 qs_scf_new_mos                      46  5.0    0.000    0.000    0.971    0.974
 qs_scf_loop_do_ot                   46  6.0    0.000    0.000    0.971    0.974
 ot_scf_mini                         46  7.0    0.001    0.001    0.931    0.934
 rs_grid_zero                       184 10.8    0.650    0.768    0.650    0.768
 -------------------------------------------------------------------------------

 The number of warnings for this run is : 0
 
 -------------------------------------------------------------------------------
  **** **** ******  **  PROGRAM ENDED AT                 2022-05-31 12:20:40.051
 ***** ** ***  *** **   PROGRAM RAN ON                                   tcopt10
 **    ****   ******    PROGRAM RAN BY                                    hutter
 ***** **    ** ** **   PROGRAM PROCESS ID                                 80458
  **** **  *******  **  PROGRAM STOPPED IN /data/hutter/GITHUB/BASIS/scMOLOPT/PB
                                           E/Ru
