 DBCSR| CPU Multiplication driver                                           XSMM
 DBCSR| Multrec recursion limit                                              512
 DBCSR| Multiplication stack size                                           1000
 DBCSR| Maximum elements for images                                    UNLIMITED
 DBCSR| Multiplicative factor virtual images                                   1
 DBCSR| Use multiplication densification                                       T
 DBCSR| Multiplication size stacks                                             3
 DBCSR| Use memory pool for CPU allocation                                     F
 DBCSR| Number of 3D layers                                               SINGLE
 DBCSR| Use MPI memory allocation                                              F
 DBCSR| Use RMA algorithm                                                      F
 DBCSR| Use Communication thread                                               T
 DBCSR| Communication thread load                                             87
 DBCSR| MPI: My node id                                                        0
 DBCSR| MPI: Number of nodes                                                  36
 DBCSR| OMP: Current number of threads                                         1
 DBCSR| OMP: Max number of threads                                             1
 DBCSR| Split modifier for TAS multiplication algorithm                  1.0E+00


  **** **** ******  **  PROGRAM STARTED AT               2022-05-31 12:20:51.029
 ***** ** ***  *** **   PROGRAM STARTED ON                               tcopt10
 **    ****   ******    PROGRAM STARTED BY                                hutter
 ***** **    ** ** **   PROGRAM PROCESS ID                                 80650
  **** **  *******  **  PROGRAM STARTED IN /data/hutter/GITHUB/BASIS/scMOLOPT/PB
                                           E/Ru

 CP2K| version string:                   CP2K version 10.0 (Development Version)
 CP2K| source code revision number:                                  git:d19b00a
 CP2K| cp2kflags: omp libint fftw3 libxc elpa parallel mpi3 scalapack cosma xsmm
 CP2K|             spglib sirius libvori libbqb
 CP2K| is freely available from                            https://www.cp2k.org/
 CP2K| Program compiled at                      Wed 18 May 2022 12:15:59 PM CEST
 CP2K| Program compiled on                                               tcopt10
 CP2K| Program compiled for                                                local
 CP2K| Data directory path                   /data/hutter/GITHUB/TDLRI/cp2k/data
 CP2K| Input file name                                              RuO4-ref.inp

 GLOBAL| Force Environment number                                              1
 GLOBAL| Basis set file name                                        ../def2QZVPP
 GLOBAL| Potential file name                                        ../POTENTIAL
 GLOBAL| MM Potential file name                                     MM_POTENTIAL
 GLOBAL| Coordinate file name                                      __STD_INPUT__
 GLOBAL| Method name                                                        CP2K
 GLOBAL| Project name                                                    refRuO4
 GLOBAL| Run type                                                         ENERGY
 GLOBAL| FFT library                                                       FFTW3
 GLOBAL| Diagonalization library                                            ELPA
 GLOBAL| Minimum number of eigenvectors for ELPA usage                        16
 GLOBAL| Orthonormality check for eigenvectors                          DISABLED
 GLOBAL| Matrix multiplication library                                     COSMA
 GLOBAL| All-to-all communication in single precision                          F
 GLOBAL| FFTs using library dependent lengths                                  F
 GLOBAL| Grid backend                                                       AUTO
 GLOBAL| Global print level                                                  LOW
 GLOBAL| MPI I/O enabled                                                       T
 GLOBAL| Total number of message passing processes                            36
 GLOBAL| Number of threads for this process                                    1
 GLOBAL| This output is from process                                           0
 GLOBAL| Stack size for threads created by OpenMP (OMP_STACKSIZE)        default
 GLOBAL| CPU model name                          AMD EPYC 7401 24-Core Processor
 GLOBAL| CPUID                                                              1002

 MEMORY| system memory details [Kb]
 MEMORY|                        rank 0           min           max       average
 MEMORY| MemTotal            263969132     263969132     263969132     263969132
 MEMORY| MemFree             237261724     237261724     237261724     237261724
 MEMORY| Buffers                  2836          2836          2836          2836
 MEMORY| Cached               20264576      20264576      20264576      20264576
 MEMORY| Slab                  1471552       1471552       1471552       1471552
 MEMORY| SReclaimable           878612        878612        878612        878612
 MEMORY| MemLikelyFree       258407748     258407748     258407748     258407748


 GENERATE|  Preliminary Number of Bonds generated:                             0
 GENERATE|  Achieved consistency in connectivity generation.

 *******************************************************************************
 *******************************************************************************
 **                                                                           **
 **     #####                         ##              ##                      **
 **    ##   ##            ##          ##              ##                      **
 **   ##     ##                       ##            ######                    **
 **   ##     ##  ##   ##  ##   #####  ##  ##   ####   ##    #####    #####    **
 **   ##     ##  ##   ##  ##  ##      ## ##   ##      ##   ##   ##  ##   ##   **
 **   ##  ## ##  ##   ##  ##  ##      ####     ###    ##   ######   ######    **
 **    ##  ###   ##   ##  ##  ##      ## ##      ##   ##   ##       ##        **
 **     #######   #####   ##   #####  ##  ##  ####    ##    #####   ##        **
 **           ##                                                    ##        **
 **                                                                           **
 **                                                ... make the atoms dance   **
 **                                                                           **
 **            Copyright (C) by CP2K developers group (2000-2022)             **
 **                      J. Chem. Phys. 152, 194103 (2020)                    **
 **                                                                           **
 *******************************************************************************


 TOTAL NUMBERS AND MAXIMUM NUMBERS

  Total number of            - Atomic kinds:                                   2
                             - Atoms:                                          5
                             - Shell sets:                                    90
                             - Shells:                                        90
                             - Primitive Cartesian functions:                146
                             - Cartesian basis functions:                    404
                             - Spherical basis functions:                    316

  Maximum angular momentum of- Orbital basis functions:                        4
                             - Local part of the GTH pseudopotential:          2
                             - Non-local part of the GTH pseudopotential:      4


 SCF PARAMETERS         Density guess:                                    ATOMIC
                        --------------------------------------------------------
                        max_scf:                                              20
                        max_scf_history:                                       0
                        max_diis:                                              4
                        --------------------------------------------------------
                        eps_scf:                                        1.00E-07
                        eps_scf_history:                                0.00E+00
                        eps_diis:                                       1.00E-01
                        eps_eigval:                                     1.00E-05
                        --------------------------------------------------------
                        level_shift [a.u.]:                             0.000000
                        --------------------------------------------------------
                        Outer loop SCF in use 
                        No variables optimised in outer loop
                        eps_scf                                         1.00E-07
                        max_scf                                                5
                        No outer loop optimization
                        step_size                                       5.00E-01

 Number of electrons:                                                         48
 Number of occupied orbitals:                                                 24
 Number of molecular orbitals:                                                24

 Number of orbital functions:                                                316
 Number of independent orbital functions:                                    316

 Extrapolation method: initial_guess


 SCF WAVEFUNCTION OPTIMIZATION

  ----------------------------------- OT ---------------------------------------
  Minimizer      : DIIS                : direct inversion
                                         in the iterative subspace
                                         using   7 DIIS vectors
                                         safer DIIS on
  Preconditioner : FULL_ALL            : diagonalization, state selective
  Precond_solver : DEFAULT
  stepsize       :    0.10000000                  energy_gap     :    0.08000000
  eps_taylor     :   0.10000E-15                  max_taylor     :             4
  ----------------------------------- OT ---------------------------------------

  Step     Update method      Time    Convergence         Total energy    Change
  ------------------------------------------------------------------------------
     1 OT DIIS     0.10E+00    0.7     0.16046418      -371.8940980771 -3.72E+02
     2 OT DIIS     0.10E+00    0.8     0.08125808      -386.6668544009 -1.48E+01
     3 OT DIIS     0.10E+00    0.8     0.02261349      -391.1952719733 -4.53E+00
     4 OT DIIS     0.10E+00    0.8     0.01666099      -391.4901021781 -2.95E-01
     5 OT DIIS     0.10E+00    0.8     0.01159382      -391.8534660101 -3.63E-01
     6 OT DIIS     0.10E+00    0.8     0.00909073      -392.1114309366 -2.58E-01
     7 OT DIIS     0.10E+00    0.8     0.00796762      -392.2685765251 -1.57E-01
     8 OT DIIS     0.10E+00    0.8     0.00679990      -392.4844195607 -2.16E-01
     9 OT DIIS     0.10E+00    0.8     0.00590559      -392.6055229923 -1.21E-01
    10 OT DIIS     0.10E+00    0.8     0.00518443      -392.7455664382 -1.40E-01
    11 OT DIIS     0.10E+00    0.8     0.00447028      -392.8230335423 -7.75E-02
    12 OT DIIS     0.10E+00    0.8     0.00374680      -392.9336434212 -1.11E-01
    13 OT DIIS     0.10E+00    0.8     0.00324297      -392.9708604982 -3.72E-02
    14 OT DIIS     0.10E+00    0.8     0.00310438      -393.0039163057 -3.31E-02
    15 OT SD       0.10E+00    0.8     0.00329095      -393.0216235938 -1.77E-02
    16 OT DIIS     0.10E+00    0.8     0.00278346      -393.0289305925 -7.31E-03
    17 OT DIIS     0.10E+00    0.8     0.00306722      -393.0683589933 -3.94E-02
    18 OT DIIS     0.10E+00    0.8     0.00255460      -393.0753722761 -7.01E-03
    19 OT DIIS     0.10E+00    0.8     0.00268347      -393.0840762399 -8.70E-03
    20 OT DIIS     0.10E+00    0.8     0.00214932      -393.1003654752 -1.63E-02

  Leaving inner SCF loop after reaching    20 steps.


  Electronic density on regular grids:        -40.6076893986        7.3923106014
  Core density on regular grids:               48.0000000000        0.0000000000
  Hard and soft densities (Lebedev):          -74.7133450186      -67.3210359279
  Total Rho_soft + Rho1_hard - Rho1_soft      -47.9999984894
  Total charge density (r-space):               0.0000015106
  Total Rho_soft + Rho0_soft (g-space):         0.0000011607

  Overlap energy of the core charge distribution:               0.00000002026547
  Self energy of the core charge distribution:               -456.07315275544397
  Core Hamiltonian energy:                                     11.22223008290526
  Hartree energy:                                             188.88592907551293
  Exchange-correlation energy:                                -24.17777159450986

  GAPW| Exc from hard and soft atomic rho1:                   -19.36311652855594
  GAPW| local Eh = 1 center integrals:                        -93.59448377535166

  Total energy:                                              -393.10036547517780

  outer SCF iter =    1 RMS gradient =   0.21E-02 energy =       -393.1003654752

  ----------------------------------- OT ---------------------------------------
  Minimizer      : DIIS                : direct inversion
                                         in the iterative subspace
                                         using   7 DIIS vectors
                                         safer DIIS on
  Preconditioner : FULL_ALL            : diagonalization, state selective
  Precond_solver : DEFAULT
  stepsize       :    0.10000000                  energy_gap     :    0.08000000
  eps_taylor     :   0.10000E-15                  max_taylor     :             4
  ----------------------------------- OT ---------------------------------------

  Step     Update method      Time    Convergence         Total energy    Change
  ------------------------------------------------------------------------------
     1 OT DIIS     0.10E+00    1.7     0.00957338      -393.1330113689 -3.26E-02
     2 OT DIIS     0.10E+00    0.8     0.00709010      -393.1823802872 -4.94E-02
     3 OT DIIS     0.10E+00    0.8     0.00880423      -393.1896762804 -7.30E-03
     4 OT DIIS     0.10E+00    0.8     0.00701170      -393.1961001385 -6.42E-03
     5 OT DIIS     0.10E+00    0.8     0.00377116      -393.2001302476 -4.03E-03
     6 OT DIIS     0.10E+00    0.8     0.00188521      -393.2015575400 -1.43E-03
     7 OT DIIS     0.10E+00    0.8     0.00086102      -393.2019015279 -3.44E-04
     8 OT DIIS     0.10E+00    0.8     0.00051400      -393.2019878613 -8.63E-05
     9 OT DIIS     0.10E+00    0.8     0.00006780      -393.2020184193 -3.06E-05
    10 OT DIIS     0.10E+00    0.8     0.00001890      -393.2020199602 -1.54E-06
    11 OT DIIS     0.10E+00    0.8     0.00000724      -393.2020201394 -1.79E-07
    12 OT DIIS     0.10E+00    0.8     0.00000595      -393.2020201653 -2.59E-08
    13 OT DIIS     0.10E+00    0.8     0.00000355      -393.2020201718 -6.55E-09
    14 OT DIIS     0.10E+00    0.8     0.00000053      -393.2020201737 -1.87E-09
    15 OT DIIS     0.10E+00    0.8     0.00000031      -393.2020201738 -1.15E-10
    16 OT DIIS     0.10E+00    0.8     0.00000029      -393.2020201739 -3.25E-11
    17 OT DIIS     0.10E+00    0.8     0.00000036      -393.2020201739  1.09E-11
    18 OT DIIS     0.10E+00    0.8     0.00000003      -393.2020201739 -1.25E-11

  *** SCF run converged in    18 steps ***


  Electronic density on regular grids:        -40.6190674575        7.3809325425
  Core density on regular grids:               48.0000000000        0.0000000000
  Hard and soft densities (Lebedev):          -74.8094926064      -67.4285612650
  Total Rho_soft + Rho1_hard - Rho1_soft      -47.9999987988
  Total charge density (r-space):               0.0000012012
  Total Rho_soft + Rho0_soft (g-space):         0.0000008512

  Overlap energy of the core charge distribution:               0.00000002026547
  Self energy of the core charge distribution:               -456.07315275544397
  Core Hamiltonian energy:                                     11.01621624102322
  Hartree energy:                                             188.99450043913180
  Exchange-correlation energy:                                -24.17580297271205

  GAPW| Exc from hard and soft atomic rho1:                   -19.34828330169468
  GAPW| local Eh = 1 center integrals:                        -93.61549784443439

  Total energy:                                              -393.20202017386458

  outer SCF iter =    2 RMS gradient =   0.32E-07 energy =       -393.2020201739
  outer SCF loop converged in   2 iterations or   38 steps


 ENERGY| Total FORCE_EVAL ( QS ) energy [a.u.]:             -393.202020173864582

 -------------------------------------------------------------------------------
 -                                                                             -
 -                                DBCSR STATISTICS                             -
 -                                                                             -
 -------------------------------------------------------------------------------
 COUNTER                                    TOTAL       BLAS       SMM       ACC
 flops    24 x    24 x    24              9123840       0.0%    100.0%      0.0%
 flops    88 x    88 x    24             14496768       0.0%    100.0%      0.0%
 flops    24 x    24 x    88             15611904       0.0%    100.0%      0.0%
 flops    57 x    88 x    24             18779904       0.0%    100.0%      0.0%
 flops    88 x    57 x    24             18779904       0.0%    100.0%      0.0%
 flops    88 x    24 x    24             19464192       0.0%    100.0%      0.0%
 flops    24 x    24 x    57             40449024       0.0%    100.0%      0.0%
 flops    57 x    24 x    24             50429952       0.0%    100.0%      0.0%
 flops    57 x    57 x    24             60821280       0.0%    100.0%      0.0%
 flops    88 x    24 x    88             63191040       0.0%    100.0%      0.0%
 flops    88 x    24 x    57            163722240       0.0%    100.0%      0.0%
 flops    57 x    24 x    88            163722240       0.0%    100.0%      0.0%
 flops    57 x    24 x    57            424189440       0.0%    100.0%      0.0%
 flops inhomo. stacks                           0       0.0%      0.0%      0.0%
 flops total                         1.062782E+09       0.0%    100.0%      0.0%
 flops max/rank                    326.059008E+06       0.0%    100.0%      0.0%
 matmuls inhomo. stacks                         0       0.0%      0.0%      0.0%
 matmuls total                               6895       0.0%    100.0%      0.0%
 number of processed stacks                  6895       0.0%    100.0%      0.0%
 average stack size                                     0.0       1.0       0.0
 marketing flops                     1.137564E+09
 -------------------------------------------------------------------------------
 # multiplications                            887
 max memory usage/rank             396.054528E+06
 # max total images/rank                        1
 # max 3D layers                                1
 # MPI messages exchanged                  319320
 MPI messages size (bytes):
  total size                       925.564160E+06
  min size                           0.000000E+00
  max size                          61.952000E+03
  average size                       2.898547E+03
 MPI breakdown and total messages size (bytes):
             size <=      128              275110                        0
       128 < size <=     8192                4260                 19630080
      8192 < size <=    32768               32300                580404480
     32768 < size <=   131072                7650                325529600
    131072 < size <=  4194304                   0                        0
   4194304 < size <= 16777216                   0                        0
  16777216 < size                               0                        0
 -------------------------------------------------------------------------------
 -                                                                             -
 -                      DBCSR MESSAGE PASSING PERFORMANCE                      -
 -                                                                             -
 -------------------------------------------------------------------------------
 ROUTINE             CALLS      AVE VOLUME [Bytes]
 MP_Bcast               14                     12.
 MP_Allreduce         4751                      8.
 MP_Alltoall          3233                   3428.
 MP_ISend            21280                   3596.
 MP_IRecv            21280                   2322.
 -------------------------------------------------------------------------------

 -------------------------------------------------------------------------------
 -                                                                             -
 -                                GRID STATISTICS                              -
 -                                                                             -
 -------------------------------------------------------------------------------
 LP    KERNEL             BACKEND                              COUNT     PERCENT
 2     collocate ortho    REF                                  49296      11.10%
 2     integrate ortho    REF                                  48032      10.82%
 3     collocate ortho    REF                                  45708      10.29%
 3     integrate ortho    REF                                  44536      10.03%
 1     collocate ortho    REF                                  40404       9.10%
 1     integrate ortho    REF                                  39368       8.86%
 4     collocate ortho    REF                                  35529       8.00%
 4     integrate ortho    REF                                  34618       7.79%
 5     collocate ortho    REF                                  20124       4.53%
 5     integrate ortho    REF                                  19608       4.42%
 0     collocate ortho    REF                                  14157       3.19%
 0     integrate ortho    REF                                  13794       3.11%
 6     collocate ortho    REF                                   8502       1.91%
 6     integrate ortho    REF                                   8284       1.87%
 2     collocate general  REF                                   6840       1.54%
 2     integrate general  REF                                   6840       1.54%
 7     collocate ortho    REF                                   3432       0.77%
 7     integrate ortho    REF                                   3344       0.75%
 8     collocate ortho    REF                                    858       0.19%
 8     integrate ortho    REF                                    836       0.19%
 -------------------------------------------------------------------------------

 MEMORY| Estimated peak process memory [MiB]                                 378

 -------------------------------------------------------------------------------
 -                                                                             -
 -                         MESSAGE PASSING PERFORMANCE                         -
 -                                                                             -
 -------------------------------------------------------------------------------

 ROUTINE             CALLS      AVE VOLUME [Bytes]
 MP_Group                4
 MP_Bcast             1526                 152699.
 MP_Allreduce         3935                 110315.
 MP_Sync                92
 MP_Alltoall           778                6462927.
 MP_ISendRecv         8085                 115968.
 MP_Wait             15582
 MP_comm_split          44
 MP_ISend             6732                 289178.
 MP_IRecv             6732                 289178.
 MP_Recv                10                  10112.
 -------------------------------------------------------------------------------


 -------------------------------------------------------------------------------
 -                                                                             -
 -                           R E F E R E N C E S                               -
 -                                                                             -
 -------------------------------------------------------------------------------
 
 CP2K version 10.0 (Development Version), the CP2K developers group (2022).
 CP2K is freely available from https://www.cp2k.org/ .

 Kuehne,Thomas D.; Iannuzzi,Marcella; Del Ben,Mauro;
 Rybkin,Vladimir V.; Seewald,Patrick; Stein,Frederick; Laino,Teodoro;
 Khaliullin,Rustam Z.; Schuett,Ole; Schiffmann,Florian; Golze,Dorothea;
 Wilhelm,Jan; Chulkov,Sergey; Bani-Hashemian,Mohammad Hossein;
 Weber,Valery; Borstnik,Urban; Taillefumier,Mathieu;
 Jakobovits,Alice Shoshana; Lazzaro,Alfio; Pabst,Hans; Mueller,Tiziano;
 Schade,Robert; Guidon,Manuel; Andermatt,Samuel; Holmberg,Nico;
 Schenter,Gregory K.; Hehn,Anna; Bussy,Augustin; Belleflamme,Fabian;
 Tabacchi,Gloria; Gloess,Andreas; Lass,Michael; Bethune,Iain;
 Mundy,Christopher J.; Plessl,Christian; Watkins,Matt;
 VandeVondele,Joost; Krack,Matthias; Hutter,Juerg. 
 The Journal of Chemical Physics, 152 (19), (2020). 
 CP2K: An electronic structure and molecular dynamics software package -
 Quickstep: Efficient and accurate electronic structure calculations.
 https://doi.org/10.1063/5.0007045

 Schuett, Ole; Messmer, Peter; Hutter, Juerg; VandeVondele, Joost. 
 Electronic Structure Calculations on Graphics Processing Units, John
 Wiley & Sons, Ltd, 173-190 (2016). 
 GPU-Accelerated Sparse Matrix-Matrix Multiplication for
 Linear Scaling Density Functional Theory.
 https://doi.org/10.1002/9781118670712.ch8

 Heinecke, A; Henry, G; Hutchinson, M; Pabst, H. 
 Proceedings of Intl. Supercomputing Conference, 981-991 (2016). 
 LIBXSMM: Accelerating Small Matrix Multiplications
 by Runtime Code Generation.
 https://doi.org/10.1109/SC.2016.83

 Borstnik, U; VandeVondele, J; Weber, V; Hutter, J. 
 PARALLEL COMPUTING, 40 (5-6), 47-58 (2014). 
 Sparse matrix multiplication: The distributed block-compressed sparse
 row library.
 https://doi.org/10.1016/j.parco.2014.03.012

 Hutter, J; Iannuzzi, M; Schiffmann, F; VandeVondele, J. 
 WIREs Comput Mol Sci., 4 (1), 15-25 (2014). 
 CP2K: atomistic simulations of condensed matter systems.
 https://doi.org/10.1002/wcms.1159

 Marek, A; Blum, V; Johanni, R; Havu, V; Lang, B; Auckenthaler, T;
 Heinecke, A; Bungartz, H; Lederer, H. 
 Journal of Physics: Condensed Matter, 26 (21), (2014). 
 The ELPA library: scalable parallel eigenvalue solutions for
 electronic structure
 theory and computational science.
 https://doi.org/10.1088/0953-8984/26/21/213201

 Krack, M. 
 THEORETICAL CHEMISTRY ACCOUNTS, 114 (1-3), 145-152 (2005). 
 Pseudopotentials for H to Kr optimized for gradient-corrected
 exchange-correlation functionals.
 https://doi.org/10.1007/s00214-005-0655-y

 Frigo, M; Johnson, SG. 
 PROCEEDINGS OF THE IEEE, 93 (2), 216-231 (2005). 
 The design and implementation of FFTW3.
 https://doi.org/10.1109/JPROC.2004.840301

 VandeVondele, J; Hutter, J. 
 JOURNAL OF CHEMICAL PHYSICS, 118 (10), 4365-4369 (2003). 
 An efficient orbital transformation method for electronic structure
 calculations.
 https://doi.org/10.1063/1.1543154

 Lippert, G; Hutter, J; Parrinello, M. 
 THEORETICAL CHEMISTRY ACCOUNTS, 103 (2), 124-140 (1999). 
 The Gaussian and augmented-plane-wave density functional method for ab
 initio molecular dynamics simulations.
 https://doi.org/10.1007/s002140050523

 Krack, M; Parrinello, M. 
 PHYSICAL CHEMISTRY CHEMICAL PHYSICS, 2 (10), 2105-2112 (2000). 
 All-electron ab-initio molecular dynamics.
 https://doi.org/10.1039/b001167n

 Hartwigsen, C; Goedecker, S; Hutter, J. 
 PHYSICAL REVIEW B, 58 (7), 3641-3662 (1998). 
 Relativistic separable dual-space Gaussian pseudopotentials from H to Rn.
 https://doi.org/10.1103/PhysRevB.58.3641

 Perdew, JP; Burke, K; Ernzerhof, M. 
 PHYSICAL REVIEW LETTERS, 77 (18), 3865-3868 (1996). 
 Generalized gradient approximation made simple.
 https://doi.org/10.1103/PhysRevLett.77.3865

 Goedecker, S; Teter, M; Hutter, J. 
 PHYSICAL REVIEW B, 54 (3), 1703-1710 (1996). 
 Separable dual-space Gaussian pseudopotentials.
 https://doi.org/10.1103/PhysRevB.54.1703


 -------------------------------------------------------------------------------
 -                                                                             -
 -                                T I M I N G                                  -
 -                                                                             -
 -------------------------------------------------------------------------------
 SUBROUTINE                       CALLS  ASD         SELF TIME        TOTAL TIME
                                MAXIMUM       AVERAGE  MAXIMUM  AVERAGE  MAXIMUM
 CP2K                                 1  1.0    0.007    0.028   32.589   32.591
 qs_energies                          1  2.0    0.000    0.000   32.352   32.352
 scf_env_do_scf                       1  3.0    0.000    0.000   31.618   31.618
 scf_env_do_scf_inner_loop           38  4.0    0.001    0.002   30.228   30.229
 qs_ks_update_qs_env                 40  5.0    0.000    0.001   25.509   25.513
 rebuild_ks_matrix                   38  6.0    0.000    0.000   25.502   25.506
 qs_ks_build_kohn_sham_matrix        38  7.0    0.007    0.009   25.502   25.506
 pw_transfer                        803 10.1    0.083    0.106    9.695    9.814
 fft_wrap_pw1pw2                    689 11.3    0.010    0.012    9.525    9.630
 fft_wrap_pw1pw2_300                458 12.7    0.625    0.700    8.895    9.153
 qs_vxc_create                       38  8.0    0.001    0.001    8.605    8.606
 xc_vxc_pw_create                    38  9.0    0.064    0.078    8.604    8.605
 fft3d_ps                           689 13.3    3.773    4.553    7.353    7.664
 rs_pw_transfer                     384  9.5    0.009    0.012    6.189    6.512
 prepare_gapw_den                    38  8.0    0.001    0.001    5.890    5.972
 xc_pw_derive                       228 11.0    0.002    0.003    5.083    5.231
 qs_rho_update_rho                   39  5.0    0.001    0.001    5.220    5.224
 xc_rho_set_and_dset_create          38 10.0    0.060    0.077    4.740    4.820
 calculate_rho_elec                  39  6.0    0.028    0.029    4.672    4.672
 sum_up_and_integrate                38  8.0    0.019    0.026    4.097    4.104
 integrate_v_rspace                  38  9.0    0.001    0.001    4.078    4.084
 density_rs2pw                       39  7.0    0.002    0.002    3.524    3.877
 xc_pw_divergence                    38 10.0    0.001    0.002    3.615    3.755
 mp_alltoall_z22v                   689 15.3    2.752    3.552    2.752    3.552
 mp_sum_d                          1772  8.3    2.856    3.226    2.856    3.226
 calculate_rho_atom                  76  9.0    1.044    3.171    1.044    3.171
 potential_pw2rs                     38 10.0    0.003    0.003    3.125    3.128
 integrate_vhg0_rspace               38  8.0    0.387    0.536    2.714    2.732
 rs_pw_transfer_RS2PW_300            77 10.0    1.275    1.560    2.265    2.575
 rs_pw_transfer_PW2RS_300            76 11.0    1.295    1.624    2.445    2.550
 yz_to_x                            346 13.9    0.381    0.498    1.916    2.390
 xc_functional_eval                 114 10.8    0.001    0.001    2.257    2.331
 pbe_lda_eval                       114 11.8    2.256    2.330    2.256    2.330
 mp_waitany                        6732 11.5    1.691    2.305    1.691    2.305
 calculate_rho0_atom                 76  9.0    1.658    2.180    1.658    2.180
 put_rho0_on_grid                    38  9.0    0.033    0.044    2.054    2.136
 calculate_vxc_atom                  38  8.0    0.031    0.155    2.090    2.090
 x_to_yz                            343 14.7    0.421    0.489    1.638    1.888
 gaVxcgb_GC                          38  9.0    0.167    1.857    0.167    1.857
 mp_sum_dm                          580  7.7    1.418    1.617    1.418    1.617
 mp_sum_dv                         1870 13.1    1.144    1.570    1.144    1.570
 init_scf_loop                        2  4.0    0.000    0.000    1.389    1.389
 mp_waitall_1                     65618 13.9    1.086    1.346    1.086    1.346
 grid_collocate_task_list            39  7.0    0.900    1.267    0.900    1.267
 dbcsr_multiply_generic             887 10.1    0.024    0.025    1.161    1.204
 mp_alltoall_d11v                   758 12.0    0.500    0.974    0.500    0.974
 pw_gather_p                        346 12.9    0.766    0.961    0.766    0.961
 rs_gather_matrices                  38 10.0    0.001    0.007    0.478    0.952
 grid_integrate_task_list            38 10.0    0.474    0.948    0.474    0.948
 qs_scf_new_mos                      38  5.0    0.000    0.000    0.912    0.920
 qs_scf_loop_do_ot                   38  6.0    0.000    0.000    0.912    0.920
 ot_scf_mini                         38  7.0    0.000    0.001    0.878    0.884
 rs_pw_transfer_PW2RS_100            38 12.0    0.149    0.176    0.694    0.872
 pw_scatter_p                       343 13.7    0.747    0.843    0.747    0.843
 rs_grid_zero                       152 10.8    0.540    0.733    0.540    0.733
 -------------------------------------------------------------------------------

 The number of warnings for this run is : 0
 
 -------------------------------------------------------------------------------
  **** **** ******  **  PROGRAM ENDED AT                 2022-05-31 12:21:24.005
 ***** ** ***  *** **   PROGRAM RAN ON                                   tcopt10
 **    ****   ******    PROGRAM RAN BY                                    hutter
 ***** **    ** ** **   PROGRAM PROCESS ID                                 80650
  **** **  *******  **  PROGRAM STOPPED IN /data/hutter/GITHUB/BASIS/scMOLOPT/PB
                                           E/Ru
