 DBCSR| CPU Multiplication driver                                           XSMM
 DBCSR| Multrec recursion limit                                              512
 DBCSR| Multiplication stack size                                           1000
 DBCSR| Maximum elements for images                                    UNLIMITED
 DBCSR| Multiplicative factor virtual images                                   1
 DBCSR| Use multiplication densification                                       T
 DBCSR| Multiplication size stacks                                             3
 DBCSR| Use memory pool for CPU allocation                                     F
 DBCSR| Number of 3D layers                                               SINGLE
 DBCSR| Use MPI memory allocation                                              F
 DBCSR| Use RMA algorithm                                                      F
 DBCSR| Use Communication thread                                               T
 DBCSR| Communication thread load                                             87
 DBCSR| MPI: My node id                                                        0
 DBCSR| MPI: Number of nodes                                                  48
 DBCSR| OMP: Current number of threads                                         1
 DBCSR| OMP: Max number of threads                                             1
 DBCSR| Split modifier for TAS multiplication algorithm                  1.0E+00


  **** **** ******  **  PROGRAM STARTED AT               2022-05-13 21:09:44.113
 ***** ** ***  *** **   PROGRAM STARTED ON                               tcopt10
 **    ****   ******    PROGRAM STARTED BY                                hutter
 ***** **    ** ** **   PROGRAM PROCESS ID                                 35417
  **** **  *******  **  PROGRAM STARTED IN /data/hutter/GITHUB/BASIS/scMOLOPT/PB
                                           E/Ge

 CP2K| version string:                   CP2K version 10.0 (Development Version)
 CP2K| source code revision number:                                  git:13fcfd8
 CP2K| cp2kflags: omp libint fftw3 libxc elpa parallel mpi3 scalapack cosma xsmm
 CP2K|             spglib sirius libvori libbqb
 CP2K| is freely available from                            https://www.cp2k.org/
 CP2K| Program compiled at                      Tue 10 May 2022 02:27:21 PM CEST
 CP2K| Program compiled on                                               tcopt10
 CP2K| Program compiled for                                                local
 CP2K| Data directory path                   /data/hutter/GITHUB/TDLRI/cp2k/data
 CP2K| Input file name                                             GeCl4-ref.inp

 GLOBAL| Force Environment number                                              1
 GLOBAL| Basis set file name                                        ../def2QZVPP
 GLOBAL| Potential file name                                        ../POTENTIAL
 GLOBAL| MM Potential file name                                     MM_POTENTIAL
 GLOBAL| Coordinate file name                                      __STD_INPUT__
 GLOBAL| Method name                                                        CP2K
 GLOBAL| Project name                                                   refGeCl4
 GLOBAL| Run type                                                         ENERGY
 GLOBAL| FFT library                                                       FFTW3
 GLOBAL| Diagonalization library                                       ScaLAPACK
 GLOBAL| Orthonormality check for eigenvectors                          DISABLED
 GLOBAL| Matrix multiplication library                                     COSMA
 GLOBAL| All-to-all communication in single precision                          F
 GLOBAL| FFTs using library dependent lengths                                  F
 GLOBAL| Grid backend                                                       AUTO
 GLOBAL| Global print level                                                  LOW
 GLOBAL| MPI I/O enabled                                                       T
 GLOBAL| Total number of message passing processes                            48
 GLOBAL| Number of threads for this process                                    1
 GLOBAL| This output is from process                                           0
 GLOBAL| Stack size for threads created by OpenMP (OMP_STACKSIZE)        default
 GLOBAL| CPU model name                          AMD EPYC 7401 24-Core Processor
 GLOBAL| CPUID                                                              1002

 MEMORY| system memory details [Kb]
 MEMORY|                        rank 0           min           max       average
 MEMORY| MemTotal            263969136     263969136     263969136     263969136
 MEMORY| MemFree             237760592     237760592     237760592     237760592
 MEMORY| Buffers                   136           136           136           136
 MEMORY| Cached               18981956      18981956      18981956      18981956
 MEMORY| Slab                  1428588       1428588       1428588       1428588
 MEMORY| SReclaimable           872016        872016        872016        872016
 MEMORY| MemLikelyFree       257614700     257614700     257614700     257614700


 GENERATE|  Preliminary Number of Bonds generated:                             0
 GENERATE|  Achieved consistency in connectivity generation.

 *******************************************************************************
 *******************************************************************************
 **                                                                           **
 **     #####                         ##              ##                      **
 **    ##   ##            ##          ##              ##                      **
 **   ##     ##                       ##            ######                    **
 **   ##     ##  ##   ##  ##   #####  ##  ##   ####   ##    #####    #####    **
 **   ##     ##  ##   ##  ##  ##      ## ##   ##      ##   ##   ##  ##   ##   **
 **   ##  ## ##  ##   ##  ##  ##      ####     ###    ##   ######   ######    **
 **    ##  ###   ##   ##  ##  ##      ## ##      ##   ##   ##       ##        **
 **     #######   #####   ##   #####  ##  ##  ####    ##    #####   ##        **
 **           ##                                                    ##        **
 **                                                                           **
 **                                                ... make the atoms dance   **
 **                                                                           **
 **            Copyright (C) by CP2K developers group (2000-2022)             **
 **                      J. Chem. Phys. 152, 194103 (2020)                    **
 **                                                                           **
 *******************************************************************************


 TOTAL NUMBERS AND MAXIMUM NUMBERS

  Total number of            - Atomic kinds:                                   2
                             - Atoms:                                          5
                             - Shell sets:                                   115
                             - Shells:                                       115
                             - Primitive Cartesian functions:                222
                             - Cartesian basis functions:                    455
                             - Spherical basis functions:                    369

  Maximum angular momentum of the orbital basis functions:                     4


 SCF PARAMETERS         Density guess:                                    ATOMIC
                        --------------------------------------------------------
                        max_scf:                                              20
                        max_scf_history:                                       0
                        max_diis:                                              4
                        --------------------------------------------------------
                        eps_scf:                                        5.00E-07
                        eps_scf_history:                                0.00E+00
                        eps_diis:                                       1.00E-01
                        eps_eigval:                                     1.00E-05
                        --------------------------------------------------------
                        level_shift [a.u.]:                             0.000000
                        --------------------------------------------------------
                        Outer loop SCF in use 
                        No variables optimised in outer loop
                        eps_scf                                         5.00E-07
                        max_scf                                               10
                        No outer loop optimization
                        step_size                                       5.00E-01

 Number of electrons:                                                        100
 Number of occupied orbitals:                                                 50
 Number of molecular orbitals:                                                50

 Number of orbital functions:                                                369
 Number of independent orbital functions:                                    369

 Extrapolation method: initial_guess


 SCF WAVEFUNCTION OPTIMIZATION

  ----------------------------------- OT ---------------------------------------
  Minimizer      : DIIS                : direct inversion
                                         in the iterative subspace
                                         using   7 DIIS vectors
                                         safer DIIS on
  Preconditioner : FULL_ALL            : diagonalization, state selective
  Precond_solver : DEFAULT
  stepsize       :    0.10000000                  energy_gap     :    0.08000000
  eps_taylor     :   0.10000E-15                  max_taylor     :             4
  ----------------------------------- OT ---------------------------------------

  Step     Update method      Time    Convergence         Total energy    Change
  ------------------------------------------------------------------------------
     1 OT DIIS     0.10E+00    2.1     0.14050582     -3866.6834011248 -3.87E+03
     2 OT DIIS     0.10E+00    2.2     0.08641173     -3896.0700882172 -2.94E+01
     3 OT DIIS     0.10E+00    2.2     0.02171905     -3913.1962889022 -1.71E+01
     4 OT DIIS     0.10E+00    2.2     0.01731866     -3914.3000867139 -1.10E+00
     5 OT DIIS     0.10E+00    2.2     0.00819255     -3915.6192045500 -1.32E+00
     6 OT DIIS     0.10E+00    2.2     0.00556221     -3915.9178358947 -2.99E-01
     7 OT DIIS     0.10E+00    2.2     0.00458768     -3916.0538026455 -1.36E-01
     8 OT DIIS     0.10E+00    2.2     0.00370626     -3916.3268308192 -2.73E-01
     9 OT DIIS     0.10E+00    2.2     0.00356774     -3916.3510580491 -2.42E-02
    10 OT DIIS     0.10E+00    2.2     0.00265535     -3916.5574213561 -2.06E-01
    11 OT DIIS     0.10E+00    2.2     0.00242787     -3916.6238514222 -6.64E-02
    12 OT DIIS     0.10E+00    2.2     0.00185944     -3916.7366293358 -1.13E-01
    13 OT DIIS     0.10E+00    2.2     0.00176626     -3916.7490892695 -1.25E-02
    14 OT DIIS     0.10E+00    2.2     0.00170846     -3916.8040452630 -5.50E-02
    15 OT DIIS     0.10E+00    2.2     0.00139122     -3916.8223297663 -1.83E-02
    16 OT DIIS     0.10E+00    2.2     0.00132144     -3916.8389037673 -1.66E-02
    17 OT DIIS     0.10E+00    2.2     0.00122144     -3916.8656451923 -2.67E-02
    18 OT DIIS     0.10E+00    2.2     0.00140819     -3916.8837336022 -1.81E-02
    19 OT DIIS     0.10E+00    2.2     0.00117814     -3916.8950167746 -1.13E-02
    20 OT SD       0.10E+00    2.2     0.00110104     -3916.8953625732 -3.46E-04

  Leaving inner SCF loop after reaching    20 steps.


  Electronic density on regular grids:        -45.3693392737       54.6306607263
  Core density on regular grids:              100.0000000000        0.0000000000
  Hard and soft densities (Lebedev):         -107.4410651257      -52.8104050337
  Total Rho_soft + Rho1_hard - Rho1_soft      -99.9999993657
  Total charge density (r-space):               0.0000006343
  Total Rho_soft + Rho0_soft (g-space):        -0.0000003938

  Overlap energy of the core charge distribution:               0.00000108128977
  Self energy of the core charge distribution:              -1330.30501443211710
  Core Hamiltonian energy:                                  -2766.54228409720690
  Hartree energy:                                             179.18594160115157
  Exchange-correlation energy:                                -24.19326098254544

  GAPW| Exc from hard and soft atomic rho1:                  -166.84263996097309
  GAPW| local Eh = 1 center integrals:                        191.80189421723972

  Total energy:                                             -3916.89536257316058

  outer SCF iter =    1 RMS gradient =   0.11E-02 energy =      -3916.8953625732

  ----------------------------------- OT ---------------------------------------
  Minimizer      : DIIS                : direct inversion
                                         in the iterative subspace
                                         using   7 DIIS vectors
                                         safer DIIS on
  Preconditioner : FULL_ALL            : diagonalization, state selective
  Precond_solver : DEFAULT
  stepsize       :    0.10000000                  energy_gap     :    0.08000000
  eps_taylor     :   0.10000E-15                  max_taylor     :             4
  ----------------------------------- OT ---------------------------------------

  Step     Update method      Time    Convergence         Total energy    Change
  ------------------------------------------------------------------------------
     1 OT DIIS     0.10E+00    4.5     0.01123126     -3916.8975614972 -2.20E-03
     2 OT DIIS     0.10E+00    2.2     0.00438782     -3917.0508297156 -1.53E-01
     3 OT DIIS     0.10E+00    2.2     0.00175471     -3917.0744654452 -2.36E-02
     4 OT DIIS     0.10E+00    2.2     0.00070100     -3917.0788105476 -4.35E-03
     5 OT DIIS     0.10E+00    2.2     0.00033241     -3917.0796143534 -8.04E-04
     6 OT DIIS     0.10E+00    2.2     0.00025614     -3917.0797067563 -9.24E-05
     7 OT DIIS     0.10E+00    2.2     0.00003838     -3917.0797550070 -4.83E-05
     8 OT DIIS     0.10E+00    2.2     0.00001442     -3917.0797574699 -2.46E-06
     9 OT DIIS     0.10E+00    2.2     0.00000361     -3917.0797577656 -2.96E-07
    10 OT DIIS     0.10E+00    2.2     0.00000147     -3917.0797577881 -2.25E-08
    11 OT DIIS     0.10E+00    2.2     0.00000040     -3917.0797577840  4.06E-09

  *** SCF run converged in    11 steps ***


  Electronic density on regular grids:        -45.3579686384       54.6420313616
  Core density on regular grids:              100.0000000000        0.0000000000
  Hard and soft densities (Lebedev):         -107.5679970171      -52.9259664822
  Total Rho_soft + Rho1_hard - Rho1_soft      -99.9999991732
  Total charge density (r-space):               0.0000008268
  Total Rho_soft + Rho0_soft (g-space):        -0.0000002012

  Overlap energy of the core charge distribution:               0.00000108128977
  Self energy of the core charge distribution:              -1330.30501443211710
  Core Hamiltonian energy:                                  -2766.75909050283826
  Hartree energy:                                             179.33642440562775
  Exchange-correlation energy:                                -24.15999941553128

  GAPW| Exc from hard and soft atomic rho1:                  -166.85129179956419
  GAPW| local Eh = 1 center integrals:                        191.65921287908884

  Total energy:                                             -3917.07975778404352

  outer SCF iter =    2 RMS gradient =   0.40E-06 energy =      -3917.0797577840
  outer SCF loop converged in   2 iterations or   31 steps


 ENERGY| Total FORCE_EVAL ( QS ) energy [a.u.]:            -3917.079757784043522

 -------------------------------------------------------------------------------
 -                                                                             -
 -                                DBCSR STATISTICS                             -
 -                                                                             -
 -------------------------------------------------------------------------------
 COUNTER                                    TOTAL       BLAS       SMM       ACC
 flops    89 x    18 x    18               115344       0.0%    100.0%      0.0%
 flops    89 x    32 x    32               364544       0.0%    100.0%      0.0%
 flops    18 x    18 x    18              3114288       0.0%    100.0%      0.0%
 flops    18 x    18 x    32              5536512       0.0%    100.0%      0.0%
 flops    18 x    32 x    18              5536512       0.0%    100.0%      0.0%
 flops    32 x    18 x    18              5536512       0.0%    100.0%      0.0%
 flops    18 x    18 x    89              7266672       0.0%    100.0%      0.0%
 flops    70 x    18 x    18              7393680       0.0%    100.0%      0.0%
 flops    89 x    89 x    18              9124992       0.0%    100.0%      0.0%
 flops    32 x    32 x    18              9842688       0.0%    100.0%      0.0%
 flops    18 x    32 x    32              9842688       0.0%    100.0%      0.0%
 flops    32 x    18 x    32              9842688       0.0%    100.0%      0.0%
 flops    70 x    18 x    32             12499200       0.0%    100.0%      0.0%
 flops    70 x    32 x    18             12499200       0.0%    100.0%      0.0%
 flops    18 x    32 x    89             12918528       0.0%    100.0%      0.0%
 flops    32 x    18 x    89             12918528       0.0%    100.0%      0.0%
 flops   140 x    18 x    18             14061600       0.0%    100.0%      0.0%
 flops    70 x    89 x    18             14353920       0.0%    100.0%      0.0%
 flops    89 x    70 x    18             14353920       0.0%    100.0%      0.0%
 flops   159 x    18 x    18             15969960       0.0%    100.0%      0.0%
 flops    89 x    89 x    32             16222208       0.0%    100.0%      0.0%
 flops    32 x    32 x    32             17498112       0.0%    100.0%      0.0%
 flops    89 x    18 x    89             21671856       0.0%    100.0%      0.0%
 flops    18 x    18 x    70             22861440       0.0%    100.0%      0.0%
 flops    32 x    32 x    89             22966272       0.0%    100.0%      0.0%
 flops    70 x    32 x    32             23367680       0.0%    100.0%      0.0%
 flops   140 x    18 x    32             24998400       0.0%    100.0%      0.0%
 flops   140 x    32 x    18             24998400       0.0%    100.0%      0.0%
 flops    70 x    89 x    32             25518080       0.0%    100.0%      0.0%
 flops    89 x    70 x    32             25518080       0.0%    100.0%      0.0%
 flops   159 x    32 x    18             28391040       0.0%    100.0%      0.0%
 flops   159 x    18 x    32             28391040       0.0%    100.0%      0.0%
 flops   140 x    18 x    89             29604960       0.0%    100.0%      0.0%
 flops   159 x    18 x    89             33622776       0.0%    100.0%      0.0%
 flops    89 x    32 x    89             38527744       0.0%    100.0%      0.0%
 flops    18 x    32 x    70             40642560       0.0%    100.0%      0.0%
 flops    32 x    18 x    70             40642560       0.0%    100.0%      0.0%
 flops   140 x    32 x    32             44441600       0.0%    100.0%      0.0%
 flops   159 x    32 x    32             50472960       0.0%    100.0%      0.0%
 flops   140 x    32 x    89             52631040       0.0%    100.0%      0.0%
 flops    70 x    70 x    18             56448000       0.0%    100.0%      0.0%
 flops   159 x    32 x    89             59773824       0.0%    100.0%      0.0%
 flops    89 x    18 x    70             68181120       0.0%    100.0%      0.0%
 flops    32 x    32 x    70             72253440       0.0%    100.0%      0.0%
 flops    70 x    18 x    89             82983600       0.0%    100.0%      0.0%
 flops   140 x    18 x    70             93139200       0.0%    100.0%      0.0%
 flops    70 x    70 x    32            100352000       0.0%    100.0%      0.0%
 flops   159 x    18 x    70            105779520       0.0%    100.0%      0.0%
 flops    89 x    32 x    70            121210880       0.0%    100.0%      0.0%
 flops    70 x    32 x    89            147526400       0.0%    100.0%      0.0%
 flops   140 x    32 x    70            165580800       0.0%    100.0%      0.0%
 flops   159 x    32 x    70            188052480       0.0%    100.0%      0.0%
 flops    70 x    18 x    70            261072000       0.0%    100.0%      0.0%
 flops    70 x    32 x    70            464128000       0.0%    100.0%      0.0%
 flops inhomo. stacks                           0       0.0%      0.0%      0.0%
 flops total                         2.782562E+09       0.0%    100.0%      0.0%
 flops max/rank                    760.625024E+06       0.0%    100.0%      0.0%
 matmuls inhomo. stacks                         0       0.0%      0.0%      0.0%
 matmuls total                              13276       0.0%    100.0%      0.0%
 number of processed stacks                 12448       0.0%    100.0%      0.0%
 average stack size                                     0.0       1.1       0.0
 marketing flops                     2.961761E+09
 -------------------------------------------------------------------------------
 # multiplications                            726
 max memory usage/rank             608.878592E+06
 # max total images/rank                        3
 # max 3D layers                                1
 # MPI messages exchanged                  696960
 MPI messages size (bytes):
  total size                         2.429866E+09
  min size                           0.000000E+00
  max size                         113.208000E+03
  average size                       3.486379E+03
 MPI breakdown and total messages size (bytes):
             size <=      128              621372                        0
       128 < size <=     8192               16824                 84124704
      8192 < size <=    32768               31176                485139024
     32768 < size <=   131072               27588               1860602832
    131072 < size <=  4194304                   0                        0
   4194304 < size <= 16777216                   0                        0
  16777216 < size                               0                        0
 -------------------------------------------------------------------------------

 *** WARNING in dbcsr_mm.F:290 :: Using a non-square number of MPI ranks ***
 *** might lead to poor performance. Used ranks: 48 Suggested: 49 100    ***

 -------------------------------------------------------------------------------
 -                                                                             -
 -                      DBCSR MESSAGE PASSING PERFORMANCE                      -
 -                                                                             -
 -------------------------------------------------------------------------------
 ROUTINE             CALLS      AVE VOLUME [Bytes]
 MP_Bcast               55                     12.
 MP_Allreduce         3965                      9.
 MP_Alltoall          2729                   6813.
 MP_ISend            32318                   4093.
 MP_IRecv            32400                   2756.
 -------------------------------------------------------------------------------

 -------------------------------------------------------------------------------
 -                                                                             -
 -                                GRID STATISTICS                              -
 -                                                                             -
 -------------------------------------------------------------------------------
 LP    KERNEL             BACKEND                              COUNT     PERCENT
 2     collocate ortho    REF                                  33792      11.20%
 2     integrate ortho    REF                                  32736      10.85%
 3     collocate ortho    REF                                  29120       9.65%
 1     collocate ortho    REF                                  28672       9.50%
 3     integrate ortho    REF                                  28210       9.35%
 1     integrate ortho    REF                                  27776       9.20%
 4     collocate ortho    REF                                  22848       7.57%
 4     integrate ortho    REF                                  22134       7.33%
 5     collocate ortho    REF                                  13312       4.41%
 5     integrate ortho    REF                                  12896       4.27%
 0     collocate ortho    REF                                  10016       3.32%
 0     integrate ortho    REF                                   9703       3.21%
 2     collocate general  REF                                   7440       2.46%
 2     integrate general  REF                                   7440       2.46%
 6     collocate ortho    REF                                   5408       1.79%
 6     integrate ortho    REF                                   5239       1.74%
 7     collocate ortho    REF                                   2112       0.70%
 7     integrate ortho    REF                                   2046       0.68%
 8     collocate ortho    REF                                    480       0.16%
 8     integrate ortho    REF                                    465       0.15%
 -------------------------------------------------------------------------------

 MEMORY| Estimated peak process memory [MiB]                                 581

 -------------------------------------------------------------------------------
 -                                                                             -
 -                         MESSAGE PASSING PERFORMANCE                         -
 -                                                                             -
 -------------------------------------------------------------------------------

 ROUTINE             CALLS      AVE VOLUME [Bytes]
 MP_Group                4
 MP_Bcast             1133                 217577.
 MP_Allreduce         3081                 404759.
 MP_Sync                78
 MP_Alltoall           702                7271513.
 MP_ISendRecv         8883                 115392.
 MP_Wait             16508
 MP_comm_split          37
 MP_ISend             7000                 283629.
 MP_IRecv             7000                 283680.
 MP_Recv                18                  14760.
 -------------------------------------------------------------------------------


 -------------------------------------------------------------------------------
 -                                                                             -
 -                           R E F E R E N C E S                               -
 -                                                                             -
 -------------------------------------------------------------------------------
 
 CP2K version 10.0 (Development Version), the CP2K developers group (2022).
 CP2K is freely available from https://www.cp2k.org/ .

 Kuehne,Thomas D.; Iannuzzi,Marcella; Del Ben,Mauro;
 Rybkin,Vladimir V.; Seewald,Patrick; Stein,Frederick; Laino,Teodoro;
 Khaliullin,Rustam Z.; Schuett,Ole; Schiffmann,Florian; Golze,Dorothea;
 Wilhelm,Jan; Chulkov,Sergey; Bani-Hashemian,Mohammad Hossein;
 Weber,Valery; Borstnik,Urban; Taillefumier,Mathieu;
 Jakobovits,Alice Shoshana; Lazzaro,Alfio; Pabst,Hans; Mueller,Tiziano;
 Schade,Robert; Guidon,Manuel; Andermatt,Samuel; Holmberg,Nico;
 Schenter,Gregory K.; Hehn,Anna; Bussy,Augustin; Belleflamme,Fabian;
 Tabacchi,Gloria; Gloess,Andreas; Lass,Michael; Bethune,Iain;
 Mundy,Christopher J.; Plessl,Christian; Watkins,Matt;
 VandeVondele,Joost; Krack,Matthias; Hutter,Juerg. 
 The Journal of Chemical Physics, 152 (19), (2020). 
 CP2K: An electronic structure and molecular dynamics software package -
 Quickstep: Efficient and accurate electronic structure calculations.
 https://doi.org/10.1063/5.0007045

 Schuett, Ole; Messmer, Peter; Hutter, Juerg; VandeVondele, Joost. 
 Electronic Structure Calculations on Graphics Processing Units, John
 Wiley & Sons, Ltd, 173-190 (2016). 
 GPU-Accelerated Sparse Matrix-Matrix Multiplication for
 Linear Scaling Density Functional Theory.
 https://doi.org/10.1002/9781118670712.ch8

 Heinecke, A; Henry, G; Hutchinson, M; Pabst, H. 
 Proceedings of Intl. Supercomputing Conference, 981-991 (2016). 
 LIBXSMM: Accelerating Small Matrix Multiplications
 by Runtime Code Generation.
 https://doi.org/10.1109/SC.2016.83

 Borstnik, U; VandeVondele, J; Weber, V; Hutter, J. 
 PARALLEL COMPUTING, 40 (5-6), 47-58 (2014). 
 Sparse matrix multiplication: The distributed block-compressed sparse
 row library.
 https://doi.org/10.1016/j.parco.2014.03.012

 Hutter, J; Iannuzzi, M; Schiffmann, F; VandeVondele, J. 
 WIREs Comput Mol Sci., 4 (1), 15-25 (2014). 
 CP2K: atomistic simulations of condensed matter systems.
 https://doi.org/10.1002/wcms.1159

 Frigo, M; Johnson, SG. 
 PROCEEDINGS OF THE IEEE, 93 (2), 216-231 (2005). 
 The design and implementation of FFTW3.
 https://doi.org/10.1109/JPROC.2004.840301

 VandeVondele, J; Hutter, J. 
 JOURNAL OF CHEMICAL PHYSICS, 118 (10), 4365-4369 (2003). 
 An efficient orbital transformation method for electronic structure
 calculations.
 https://doi.org/10.1063/1.1543154

 Lippert, G; Hutter, J; Parrinello, M. 
 THEORETICAL CHEMISTRY ACCOUNTS, 103 (2), 124-140 (1999). 
 The Gaussian and augmented-plane-wave density functional method for ab
 initio molecular dynamics simulations.
 https://doi.org/10.1007/s002140050523

 Krack, M; Parrinello, M. 
 PHYSICAL CHEMISTRY CHEMICAL PHYSICS, 2 (10), 2105-2112 (2000). 
 All-electron ab-initio molecular dynamics.
 https://doi.org/10.1039/b001167n

 Perdew, JP; Burke, K; Ernzerhof, M. 
 PHYSICAL REVIEW LETTERS, 77 (18), 3865-3868 (1996). 
 Generalized gradient approximation made simple.
 https://doi.org/10.1103/PhysRevLett.77.3865


 -------------------------------------------------------------------------------
 -                                                                             -
 -                                T I M I N G                                  -
 -                                                                             -
 -------------------------------------------------------------------------------
 SUBROUTINE                       CALLS  ASD         SELF TIME        TOTAL TIME
                                MAXIMUM       AVERAGE  MAXIMUM  AVERAGE  MAXIMUM
 CP2K                                 1  1.0    0.012    0.037   69.642   69.643
 qs_energies                          1  2.0    0.000    0.000   69.266   69.268
 scf_env_do_scf                       1  3.0    0.000    0.000   68.744   68.746
 scf_env_do_scf_inner_loop           31  4.0    0.001    0.002   64.589   64.591
 qs_ks_update_qs_env                 33  5.0    0.000    0.000   62.613   62.622
 rebuild_ks_matrix                   31  6.0    0.000    0.000   62.606   62.614
 qs_ks_build_kohn_sham_matrix        31  7.0    0.007    0.008   62.606   62.614
 mp_sum_d                          1476  7.8   27.510   28.429   27.510   28.429
 calculate_vxc_atom                  31  8.0    0.087    1.308   26.235   26.236
 gaVxcgb_GC                          31  9.0    0.634   24.308    0.634   24.308
 prepare_gapw_den                    31  8.0    0.001    0.002   17.239   17.262
 calculate_rho_atom                  62  9.0    4.524   12.679    4.524   12.679
 calculate_rho0_atom                 62  9.0    8.869    9.627    8.869    9.627
 rs_pw_transfer                     314  9.5    0.008    0.010    8.095    8.254
 pw_transfer                        656 10.1    0.070    0.084    6.926    7.515
 fft_wrap_pw1pw2                    563 11.3    0.008    0.009    6.785    7.372
 fft_wrap_pw1pw2_300                374 12.7    0.442    0.509    6.370    6.953
 integrate_vhg0_rspace               31  8.0    0.868    1.273    6.637    6.714
 fft3d_ps                           563 13.3    2.478    2.889    5.357    5.946
 qs_vxc_create                       31  8.0    0.001    0.001    5.571    5.571
 xc_vxc_pw_create                    31  9.0    0.034    0.040    5.570    5.570
 qs_rho_update_rho                   32  5.0    0.001    0.001    5.084    5.089
 calculate_rho_elec                  32  6.0    0.017    0.019    4.690    4.690
 mp_sum_dm                          475  7.7    4.263    4.405    4.263    4.405
 mp_sum_dv                         1354 13.1    1.606    4.360    1.606    4.360
 xc_pw_derive                       186 11.0    0.002    0.002    3.648    4.290
 init_scf_loop                        2  4.0    0.000    0.000    4.153    4.153
 density_rs2pw                       32  7.0    0.002    0.002    3.624    3.772
 sum_up_and_integrate                31  8.0    0.018    0.021    3.710    3.714
 integrate_v_rspace                  31  9.0    0.001    0.001    3.693    3.697
 mp_alltoall_z22v                   563 15.3    2.297    3.443    2.297    3.443
 rs_pw_transfer_PW2RS_300            62 11.0    2.081    2.173    3.243    3.389
 potential_pw2rs                     31 10.0    0.002    0.003    3.374    3.377
 xc_rho_set_and_dset_create          31 10.0    0.043    0.050    2.969    3.299
 rs_pw_transfer_RS2PW_300            63 10.0    2.089    2.231    3.078    3.209
 xc_pw_divergence                    31 10.0    0.001    0.001    2.444    3.069
 yz_to_x                            251 14.1    0.244    0.309    1.449    2.329
 put_rho0_on_grid                    31  9.0    0.022    0.030    2.247    2.270
 xc_functional_eval                  93 10.8    0.000    0.001    1.096    1.919
 pbe_lda_eval                        93 11.8    1.095    1.918    1.095    1.918
 mp_waitany                        7000 11.5    1.658    1.903    1.658    1.903
 Vh_1c_gg_integrals                  31  8.0    0.140    1.799    1.818    1.866
 mp_waitall_1                     67588 13.9    1.321    1.569    1.321    1.569
 x_to_yz                            249 14.6    0.291    0.330    1.379    1.487
 -------------------------------------------------------------------------------

 The number of warnings for this run is : 1
 
 -------------------------------------------------------------------------------
  **** **** ******  **  PROGRAM ENDED AT                 2022-05-13 21:10:54.185
 ***** ** ***  *** **   PROGRAM RAN ON                                   tcopt10
 **    ****   ******    PROGRAM RAN BY                                    hutter
 ***** **    ** ** **   PROGRAM PROCESS ID                                 35417
  **** **  *******  **  PROGRAM STOPPED IN /data/hutter/GITHUB/BASIS/scMOLOPT/PB
                                           E/Ge
