 DBCSR| CPU Multiplication driver                                           XSMM
 DBCSR| Multrec recursion limit                                              512
 DBCSR| Multiplication stack size                                           1000
 DBCSR| Maximum elements for images                                    UNLIMITED
 DBCSR| Multiplicative factor virtual images                                   1
 DBCSR| Use multiplication densification                                       T
 DBCSR| Multiplication size stacks                                             3
 DBCSR| Use memory pool for CPU allocation                                     F
 DBCSR| Number of 3D layers                                               SINGLE
 DBCSR| Use MPI memory allocation                                              F
 DBCSR| Use RMA algorithm                                                      F
 DBCSR| Use Communication thread                                               T
 DBCSR| Communication thread load                                             87
 DBCSR| MPI: My node id                                                        0
 DBCSR| MPI: Number of nodes                                                  48
 DBCSR| OMP: Current number of threads                                         1
 DBCSR| OMP: Max number of threads                                             1
 DBCSR| Split modifier for TAS multiplication algorithm                  1.0E+00


  **** **** ******  **  PROGRAM STARTED AT               2022-05-13 21:12:47.951
 ***** ** ***  *** **   PROGRAM STARTED ON                               tcopt10
 **    ****   ******    PROGRAM STARTED BY                                hutter
 ***** **    ** ** **   PROGRAM PROCESS ID                                 35950
  **** **  *******  **  PROGRAM STARTED IN /data/hutter/GITHUB/BASIS/scMOLOPT/PB
                                           E/Ge

 CP2K| version string:                   CP2K version 10.0 (Development Version)
 CP2K| source code revision number:                                  git:13fcfd8
 CP2K| cp2kflags: omp libint fftw3 libxc elpa parallel mpi3 scalapack cosma xsmm
 CP2K|             spglib sirius libvori libbqb
 CP2K| is freely available from                            https://www.cp2k.org/
 CP2K| Program compiled at                      Tue 10 May 2022 02:27:21 PM CEST
 CP2K| Program compiled on                                               tcopt10
 CP2K| Program compiled for                                                local
 CP2K| Data directory path                   /data/hutter/GITHUB/TDLRI/cp2k/data
 CP2K| Input file name                                              GeF4-ref.inp

 GLOBAL| Force Environment number                                              1
 GLOBAL| Basis set file name                                        ../def2QZVPP
 GLOBAL| Potential file name                                        ../POTENTIAL
 GLOBAL| MM Potential file name                                     MM_POTENTIAL
 GLOBAL| Coordinate file name                                      __STD_INPUT__
 GLOBAL| Method name                                                        CP2K
 GLOBAL| Project name                                                    refGeF4
 GLOBAL| Run type                                                         ENERGY
 GLOBAL| FFT library                                                       FFTW3
 GLOBAL| Diagonalization library                                       ScaLAPACK
 GLOBAL| Orthonormality check for eigenvectors                          DISABLED
 GLOBAL| Matrix multiplication library                                     COSMA
 GLOBAL| All-to-all communication in single precision                          F
 GLOBAL| FFTs using library dependent lengths                                  F
 GLOBAL| Grid backend                                                       AUTO
 GLOBAL| Global print level                                                  LOW
 GLOBAL| MPI I/O enabled                                                       T
 GLOBAL| Total number of message passing processes                            48
 GLOBAL| Number of threads for this process                                    1
 GLOBAL| This output is from process                                           0
 GLOBAL| Stack size for threads created by OpenMP (OMP_STACKSIZE)        default
 GLOBAL| CPU model name                          AMD EPYC 7401 24-Core Processor
 GLOBAL| CPUID                                                              1002

 MEMORY| system memory details [Kb]
 MEMORY|                        rank 0           min           max       average
 MEMORY| MemTotal            263969136     263969136     263969136     263969136
 MEMORY| MemFree             237753600     237753600     237753600     237753600
 MEMORY| Buffers                   136           136           136           136
 MEMORY| Cached               18980900      18980900      18980900      18980900
 MEMORY| Slab                  1426280       1426280       1426280       1426280
 MEMORY| SReclaimable           871672        871672        871672        871672
 MEMORY| MemLikelyFree       257606308     257606308     257606308     257606308


 GENERATE|  Preliminary Number of Bonds generated:                             0
 GENERATE|  Achieved consistency in connectivity generation.

 *******************************************************************************
 *******************************************************************************
 **                                                                           **
 **     #####                         ##              ##                      **
 **    ##   ##            ##          ##              ##                      **
 **   ##     ##                       ##            ######                    **
 **   ##     ##  ##   ##  ##   #####  ##  ##   ####   ##    #####    #####    **
 **   ##     ##  ##   ##  ##  ##      ## ##   ##      ##   ##   ##  ##   ##   **
 **   ##  ## ##  ##   ##  ##  ##      ####     ###    ##   ######   ######    **
 **    ##  ###   ##   ##  ##  ##      ## ##      ##   ##   ##       ##        **
 **     #######   #####   ##   #####  ##  ##  ####    ##    #####   ##        **
 **           ##                                                    ##        **
 **                                                                           **
 **                                                ... make the atoms dance   **
 **                                                                           **
 **            Copyright (C) by CP2K developers group (2000-2022)             **
 **                      J. Chem. Phys. 152, 194103 (2020)                    **
 **                                                                           **
 *******************************************************************************


 TOTAL NUMBERS AND MAXIMUM NUMBERS

  Total number of            - Atomic kinds:                                   2
                             - Atoms:                                          5
                             - Shell sets:                                    95
                             - Shells:                                        95
                             - Primitive Cartesian functions:                174
                             - Cartesian basis functions:                    399
                             - Spherical basis functions:                    317

  Maximum angular momentum of the orbital basis functions:                     4


 SCF PARAMETERS         Density guess:                                    ATOMIC
                        --------------------------------------------------------
                        max_scf:                                              20
                        max_scf_history:                                       0
                        max_diis:                                              4
                        --------------------------------------------------------
                        eps_scf:                                        5.00E-07
                        eps_scf_history:                                0.00E+00
                        eps_diis:                                       1.00E-01
                        eps_eigval:                                     1.00E-05
                        --------------------------------------------------------
                        level_shift [a.u.]:                             0.000000
                        --------------------------------------------------------
                        Outer loop SCF in use 
                        No variables optimised in outer loop
                        eps_scf                                         5.00E-07
                        max_scf                                               10
                        No outer loop optimization
                        step_size                                       5.00E-01

 Number of electrons:                                                         68
 Number of occupied orbitals:                                                 34
 Number of molecular orbitals:                                                34

 Number of orbital functions:                                                317
 Number of independent orbital functions:                                    317

 Extrapolation method: initial_guess


 SCF WAVEFUNCTION OPTIMIZATION

  ----------------------------------- OT ---------------------------------------
  Minimizer      : DIIS                : direct inversion
                                         in the iterative subspace
                                         using   7 DIIS vectors
                                         safer DIIS on
  Preconditioner : FULL_ALL            : diagonalization, state selective
  Precond_solver : DEFAULT
  stepsize       :    0.10000000                  energy_gap     :    0.08000000
  eps_taylor     :   0.10000E-15                  max_taylor     :             4
  ----------------------------------- OT ---------------------------------------

  Step     Update method      Time    Convergence         Total energy    Change
  ------------------------------------------------------------------------------
     1 OT DIIS     0.10E+00    2.0     0.27407459     -2377.1825853495 -2.38E+03
     2 OT DIIS     0.10E+00    2.1     0.15967053     -2441.8827946183 -6.47E+01
     3 OT DIIS     0.10E+00    2.1     0.05705501     -2468.3306554544 -2.64E+01
     4 OT DIIS     0.10E+00    2.1     0.03003718     -2470.3145282419 -1.98E+00
     5 OT DIIS     0.10E+00    2.1     0.01944099     -2471.8996687068 -1.59E+00
     6 OT DIIS     0.10E+00    2.1     0.01434028     -2473.0090762334 -1.11E+00
     7 OT DIIS     0.10E+00    2.1     0.00984301     -2473.6541338021 -6.45E-01
     8 OT DIIS     0.10E+00    2.1     0.00789916     -2474.1191248587 -4.65E-01
     9 OT DIIS     0.10E+00    2.2     0.00542735     -2474.2881471529 -1.69E-01
    10 OT DIIS     0.10E+00    2.1     0.00521098     -2474.3312177536 -4.31E-02
    11 OT DIIS     0.10E+00    2.2     0.00444571     -2474.5877176242 -2.56E-01
    12 OT DIIS     0.10E+00    2.1     0.00404388     -2474.7370587867 -1.49E-01
    13 OT DIIS     0.10E+00    2.1     0.00373192     -2474.8780199346 -1.41E-01
    14 OT DIIS     0.10E+00    2.1     0.00355339     -2474.9707657028 -9.27E-02
    15 OT DIIS     0.10E+00    2.1     0.00313071     -2475.2079231957 -2.37E-01
    16 OT DIIS     0.10E+00    2.1     0.00286923     -2475.2797034641 -7.18E-02
    17 OT DIIS     0.10E+00    2.1     0.00255688     -2475.4164890737 -1.37E-01
    18 OT DIIS     0.10E+00    2.1     0.00240783     -2475.4603484188 -4.39E-02
    19 OT SD       0.10E+00    2.1     0.00256393     -2475.5343306631 -7.40E-02
    20 OT SD       0.10E+00    2.1     0.00226780     -2475.5408971282 -6.57E-03

  Leaving inner SCF loop after reaching    20 steps.


  Electronic density on regular grids:        -39.0430771523       28.9569228477
  Core density on regular grids:               68.0000000000        0.0000000000
  Hard and soft densities (Lebedev):          -80.4233340836      -51.4664099577
  Total Rho_soft + Rho1_hard - Rho1_soft      -68.0000012782
  Total charge density (r-space):              -0.0000012782
  Total Rho_soft + Rho0_soft (g-space):        -0.0000016904

  Overlap energy of the core charge distribution:               0.00000881335321
  Self energy of the core charge distribution:               -953.18886758447275
  Core Hamiltonian energy:                                  -1722.38056611609613
  Hartree energy:                                             102.20714085323755
  Exchange-correlation energy:                                -25.71032273507404

  GAPW| Exc from hard and soft atomic rho1:                   -94.59401134533476
  GAPW| local Eh = 1 center integrals:                        218.12572098614160

  Total energy:                                             -2475.54089712824543

  outer SCF iter =    1 RMS gradient =   0.23E-02 energy =      -2475.5408971282

  ----------------------------------- OT ---------------------------------------
  Minimizer      : DIIS                : direct inversion
                                         in the iterative subspace
                                         using   7 DIIS vectors
                                         safer DIIS on
  Preconditioner : FULL_ALL            : diagonalization, state selective
  Precond_solver : DEFAULT
  stepsize       :    0.10000000                  energy_gap     :    0.08000000
  eps_taylor     :   0.10000E-15                  max_taylor     :             4
  ----------------------------------- OT ---------------------------------------

  Step     Update method      Time    Convergence         Total energy    Change
  ------------------------------------------------------------------------------
     1 OT DIIS     0.10E+00    4.3     0.02803644     -2475.5462993699 -5.40E-03
     2 OT DIIS     0.10E+00    2.1     0.01536671     -2476.0042933654 -4.58E-01
     3 OT DIIS     0.10E+00    2.2     0.00969162     -2476.0626268418 -5.83E-02
     4 OT DIIS     0.10E+00    2.1     0.00453743     -2476.0915810529 -2.90E-02
     5 OT DIIS     0.10E+00    2.1     0.00205429     -2476.0973463326 -5.77E-03
     6 OT DIIS     0.10E+00    2.1     0.00107358     -2476.1000809068 -2.73E-03
     7 OT DIIS     0.10E+00    2.1     0.00092385     -2476.1003289920 -2.48E-04
     8 OT DIIS     0.10E+00    2.1     0.00033882     -2476.1005440724 -2.15E-04
     9 OT DIIS     0.10E+00    2.1     0.00009468     -2476.1005877611 -4.37E-05
    10 OT DIIS     0.10E+00    2.1     0.00003409     -2476.1005939522 -6.19E-06
    11 OT DIIS     0.10E+00    2.1     0.00001317     -2476.1005951067 -1.15E-06
    12 OT DIIS     0.10E+00    2.1     0.00000772     -2476.1005952422 -1.35E-07
    13 OT DIIS     0.10E+00    2.2     0.00000284     -2476.1005952701 -2.80E-08
    14 OT DIIS     0.10E+00    2.1     0.00000171     -2476.1005952698  2.77E-10
    15 OT DIIS     0.10E+00    2.1     0.00000078     -2476.1005952673  2.56E-09
    16 OT DIIS     0.10E+00    2.1     0.00000032     -2476.1005952678 -4.95E-10

  *** SCF run converged in    16 steps ***


  Electronic density on regular grids:        -39.1034473145       28.8965526855
  Core density on regular grids:               68.0000000000        0.0000000000
  Hard and soft densities (Lebedev):          -80.6058411374      -51.7092855637
  Total Rho_soft + Rho1_hard - Rho1_soft      -68.0000028881
  Total charge density (r-space):              -0.0000028881
  Total Rho_soft + Rho0_soft (g-space):        -0.0000033009

  Overlap energy of the core charge distribution:               0.00000881335321
  Self energy of the core charge distribution:               -953.18886758447275
  Core Hamiltonian energy:                                  -1722.92100432054303
  Hartree energy:                                             102.53782025966780
  Exchange-correlation energy:                                -25.78340470683686

  GAPW| Exc from hard and soft atomic rho1:                   -94.50615802143548
  GAPW| local Eh = 1 center integrals:                        217.76101029248531

  Total energy:                                             -2476.10059526778150

  outer SCF iter =    2 RMS gradient =   0.32E-06 energy =      -2476.1005952678
  outer SCF loop converged in   2 iterations or   36 steps


 ENERGY| Total FORCE_EVAL ( QS ) energy [a.u.]:            -2476.100595267781500

 -------------------------------------------------------------------------------
 -                                                                             -
 -                                DBCSR STATISTICS                             -
 -                                                                             -
 -------------------------------------------------------------------------------
 COUNTER                                    TOTAL       BLAS       SMM       ACC
 flops    89 x     2 x     2                 1424       0.0%    100.0%      0.0%
 flops     2 x     2 x     2                 4992       0.0%    100.0%      0.0%
 flops     2 x     2 x    32                79872       0.0%    100.0%      0.0%
 flops     2 x    32 x     2                79872       0.0%    100.0%      0.0%
 flops    32 x     2 x     2                79872       0.0%    100.0%      0.0%
 flops    57 x     2 x     2                85728       0.0%    100.0%      0.0%
 flops     2 x     2 x    89               103952       0.0%    100.0%      0.0%
 flops   114 x     2 x     2               164160       0.0%    100.0%      0.0%
 flops   146 x     2 x     2               210240       0.0%    100.0%      0.0%
 flops     2 x     2 x    57               266304       0.0%    100.0%      0.0%
 flops    89 x    32 x    32               364544       0.0%    100.0%      0.0%
 flops    89 x    89 x     2              1172308       0.0%    100.0%      0.0%
 flops    32 x    32 x     2              1277952       0.0%    100.0%      0.0%
 flops     2 x    32 x    32              1277952       0.0%    100.0%      0.0%
 flops    32 x     2 x    32              1277952       0.0%    100.0%      0.0%
 flops    57 x     2 x    32              1313280       0.0%    100.0%      0.0%
 flops    57 x    32 x     2              1313280       0.0%    100.0%      0.0%
 flops    57 x    89 x     2              1501608       0.0%    100.0%      0.0%
 flops    89 x    57 x     2              1501608       0.0%    100.0%      0.0%
 flops     2 x    32 x    89              1663232       0.0%    100.0%      0.0%
 flops    32 x     2 x    89              1663232       0.0%    100.0%      0.0%
 flops   114 x     2 x    32              2626560       0.0%    100.0%      0.0%
 flops   114 x    32 x     2              2626560       0.0%    100.0%      0.0%
 flops    89 x     2 x    89              2724824       0.0%    100.0%      0.0%
 flops   114 x     2 x    89              3084384       0.0%    100.0%      0.0%
 flops   146 x    32 x     2              3363840       0.0%    100.0%      0.0%
 flops   146 x     2 x    32              3363840       0.0%    100.0%      0.0%
 flops   146 x     2 x    89              3950176       0.0%    100.0%      0.0%
 flops     2 x    32 x    57              4260864       0.0%    100.0%      0.0%
 flops    32 x     2 x    57              4260864       0.0%    100.0%      0.0%
 flops    57 x    57 x     2              4808520       0.0%    100.0%      0.0%
 flops    89 x     2 x    57              6980448       0.0%    100.0%      0.0%
 flops   114 x     2 x    57              7901568       0.0%    100.0%      0.0%
 flops    57 x     2 x    89              8522640       0.0%    100.0%      0.0%
 flops   146 x     2 x    57             10119552       0.0%    100.0%      0.0%
 flops    89 x    89 x    32             18756928       0.0%    100.0%      0.0%
 flops    32 x    32 x    32             20447232       0.0%    100.0%      0.0%
 flops    57 x     2 x    57             21833280       0.0%    100.0%      0.0%
 flops    57 x    32 x    32             21946368       0.0%    100.0%      0.0%
 flops    57 x    89 x    32             24025728       0.0%    100.0%      0.0%
 flops    89 x    57 x    32             24025728       0.0%    100.0%      0.0%
 flops    32 x    32 x    89             26611712       0.0%    100.0%      0.0%
 flops   114 x    32 x    32             42024960       0.0%    100.0%      0.0%
 flops    89 x    32 x    89             43597184       0.0%    100.0%      0.0%
 flops   114 x    32 x    89             49350144       0.0%    100.0%      0.0%
 flops   146 x    32 x    32             53821440       0.0%    100.0%      0.0%
 flops   146 x    32 x    89             63202816       0.0%    100.0%      0.0%
 flops    32 x    32 x    57             68173824       0.0%    100.0%      0.0%
 flops    57 x    57 x    32             76936320       0.0%    100.0%      0.0%
 flops    89 x    32 x    57            111687168       0.0%    100.0%      0.0%
 flops   114 x    32 x    57            126425088       0.0%    100.0%      0.0%
 flops    57 x    32 x    89            136362240       0.0%    100.0%      0.0%
 flops   146 x    32 x    57            161912832       0.0%    100.0%      0.0%
 flops    57 x    32 x    57            349332480       0.0%    100.0%      0.0%
 flops inhomo. stacks                           0       0.0%      0.0%      0.0%
 flops total                         1.524471E+09       0.0%    100.0%      0.0%
 flops max/rank                    674.075028E+06       0.0%    100.0%      0.0%
 matmuls inhomo. stacks                         0       0.0%      0.0%      0.0%
 matmuls total                              15286       0.0%    100.0%      0.0%
 number of processed stacks                 14348       0.0%    100.0%      0.0%
 average stack size                                     0.0       1.1       0.0
 marketing flops                     1.626201E+09
 -------------------------------------------------------------------------------
 # multiplications                            841
 max memory usage/rank             583.610368E+06
 # max total images/rank                        3
 # max 3D layers                                1
 # MPI messages exchanged                  807360
 MPI messages size (bytes):
  total size                         1.913441E+09
  min size                           0.000000E+00
  max size                         103.952000E+03
  average size                       2.369997E+03
 MPI breakdown and total messages size (bytes):
             size <=      128              725036                   157248
       128 < size <=     8192               35162                 70894880
      8192 < size <=    32768               25151                505049792
     32768 < size <=   131072               22011               1337338992
    131072 < size <=  4194304                   0                        0
   4194304 < size <= 16777216                   0                        0
  16777216 < size                               0                        0
 -------------------------------------------------------------------------------

 *** WARNING in dbcsr_mm.F:290 :: Using a non-square number of MPI ranks ***
 *** might lead to poor performance. Used ranks: 48 Suggested: 49 100    ***

 -------------------------------------------------------------------------------
 -                                                                             -
 -                      DBCSR MESSAGE PASSING PERFORMANCE                      -
 -                                                                             -
 -------------------------------------------------------------------------------
 ROUTINE             CALLS      AVE VOLUME [Bytes]
 MP_Bcast               55                     12.
 MP_Allreduce         4585                      8.
 MP_Alltoall          3089                   6403.
 MP_ISend            37438                   3203.
 MP_IRecv            37530                   1955.
 -------------------------------------------------------------------------------

 -------------------------------------------------------------------------------
 -                                                                             -
 -                                GRID STATISTICS                              -
 -                                                                             -
 -------------------------------------------------------------------------------
 LP    KERNEL             BACKEND                              COUNT     PERCENT
 2     collocate ortho    REF                                  23532       9.97%
 2     integrate ortho    REF                                  22896       9.71%
 3     collocate ortho    REF                                  22422       9.50%
 3     integrate ortho    REF                                  21816       9.25%
 1     collocate ortho    REF                                  19832       8.41%
 1     integrate ortho    REF                                  19296       8.18%
 4     collocate ortho    REF                                  18500       7.84%
 4     integrate ortho    REF                                  18000       7.63%
 5     collocate ortho    REF                                  11248       4.77%
 5     integrate ortho    REF                                  10944       4.64%
 2     collocate general  REF                                   8640       3.66%
 2     integrate general  REF                                   8640       3.66%
 0     collocate ortho    REF                                   7585       3.22%
 0     integrate ortho    REF                                   7380       3.13%
 6     collocate ortho    REF                                   5143       2.18%
 6     integrate ortho    REF                                   5004       2.12%
 7     collocate ortho    REF                                   1998       0.85%
 7     integrate ortho    REF                                   1944       0.82%
 8     collocate ortho    REF                                    555       0.24%
 8     integrate ortho    REF                                    540       0.23%
 -------------------------------------------------------------------------------

 MEMORY| Estimated peak process memory [MiB]                                 557

 -------------------------------------------------------------------------------
 -                                                                             -
 -                         MESSAGE PASSING PERFORMANCE                         -
 -                                                                             -
 -------------------------------------------------------------------------------

 ROUTINE             CALLS      AVE VOLUME [Bytes]
 MP_Group                4
 MP_Bcast             1196                 201168.
 MP_Allreduce         3226                 332592.
 MP_Sync                88
 MP_Alltoall           812                4529108.
 MP_ISendRecv        10293                 115392.
 MP_Wait             19138
 MP_comm_split          42
 MP_ISend             8120                 283632.
 MP_IRecv             8120                 283676.
 MP_Recv                22                   7608.
 -------------------------------------------------------------------------------


 -------------------------------------------------------------------------------
 -                                                                             -
 -                           R E F E R E N C E S                               -
 -                                                                             -
 -------------------------------------------------------------------------------
 
 CP2K version 10.0 (Development Version), the CP2K developers group (2022).
 CP2K is freely available from https://www.cp2k.org/ .

 Kuehne,Thomas D.; Iannuzzi,Marcella; Del Ben,Mauro;
 Rybkin,Vladimir V.; Seewald,Patrick; Stein,Frederick; Laino,Teodoro;
 Khaliullin,Rustam Z.; Schuett,Ole; Schiffmann,Florian; Golze,Dorothea;
 Wilhelm,Jan; Chulkov,Sergey; Bani-Hashemian,Mohammad Hossein;
 Weber,Valery; Borstnik,Urban; Taillefumier,Mathieu;
 Jakobovits,Alice Shoshana; Lazzaro,Alfio; Pabst,Hans; Mueller,Tiziano;
 Schade,Robert; Guidon,Manuel; Andermatt,Samuel; Holmberg,Nico;
 Schenter,Gregory K.; Hehn,Anna; Bussy,Augustin; Belleflamme,Fabian;
 Tabacchi,Gloria; Gloess,Andreas; Lass,Michael; Bethune,Iain;
 Mundy,Christopher J.; Plessl,Christian; Watkins,Matt;
 VandeVondele,Joost; Krack,Matthias; Hutter,Juerg. 
 The Journal of Chemical Physics, 152 (19), (2020). 
 CP2K: An electronic structure and molecular dynamics software package -
 Quickstep: Efficient and accurate electronic structure calculations.
 https://doi.org/10.1063/5.0007045

 Schuett, Ole; Messmer, Peter; Hutter, Juerg; VandeVondele, Joost. 
 Electronic Structure Calculations on Graphics Processing Units, John
 Wiley & Sons, Ltd, 173-190 (2016). 
 GPU-Accelerated Sparse Matrix-Matrix Multiplication for
 Linear Scaling Density Functional Theory.
 https://doi.org/10.1002/9781118670712.ch8

 Heinecke, A; Henry, G; Hutchinson, M; Pabst, H. 
 Proceedings of Intl. Supercomputing Conference, 981-991 (2016). 
 LIBXSMM: Accelerating Small Matrix Multiplications
 by Runtime Code Generation.
 https://doi.org/10.1109/SC.2016.83

 Borstnik, U; VandeVondele, J; Weber, V; Hutter, J. 
 PARALLEL COMPUTING, 40 (5-6), 47-58 (2014). 
 Sparse matrix multiplication: The distributed block-compressed sparse
 row library.
 https://doi.org/10.1016/j.parco.2014.03.012

 Hutter, J; Iannuzzi, M; Schiffmann, F; VandeVondele, J. 
 WIREs Comput Mol Sci., 4 (1), 15-25 (2014). 
 CP2K: atomistic simulations of condensed matter systems.
 https://doi.org/10.1002/wcms.1159

 Frigo, M; Johnson, SG. 
 PROCEEDINGS OF THE IEEE, 93 (2), 216-231 (2005). 
 The design and implementation of FFTW3.
 https://doi.org/10.1109/JPROC.2004.840301

 VandeVondele, J; Hutter, J. 
 JOURNAL OF CHEMICAL PHYSICS, 118 (10), 4365-4369 (2003). 
 An efficient orbital transformation method for electronic structure
 calculations.
 https://doi.org/10.1063/1.1543154

 Lippert, G; Hutter, J; Parrinello, M. 
 THEORETICAL CHEMISTRY ACCOUNTS, 103 (2), 124-140 (1999). 
 The Gaussian and augmented-plane-wave density functional method for ab
 initio molecular dynamics simulations.
 https://doi.org/10.1007/s002140050523

 Krack, M; Parrinello, M. 
 PHYSICAL CHEMISTRY CHEMICAL PHYSICS, 2 (10), 2105-2112 (2000). 
 All-electron ab-initio molecular dynamics.
 https://doi.org/10.1039/b001167n

 Perdew, JP; Burke, K; Ernzerhof, M. 
 PHYSICAL REVIEW LETTERS, 77 (18), 3865-3868 (1996). 
 Generalized gradient approximation made simple.
 https://doi.org/10.1103/PhysRevLett.77.3865


 -------------------------------------------------------------------------------
 -                                                                             -
 -                                T I M I N G                                  -
 -                                                                             -
 -------------------------------------------------------------------------------
 SUBROUTINE                       CALLS  ASD         SELF TIME        TOTAL TIME
                                MAXIMUM       AVERAGE  MAXIMUM  AVERAGE  MAXIMUM
 CP2K                                 1  1.0    0.013    0.040   77.998   78.000
 qs_energies                          1  2.0    0.000    0.000   77.626   77.627
 scf_env_do_scf                       1  3.0    0.000    0.000   77.190   77.191
 scf_env_do_scf_inner_loop           36  4.0    0.001    0.003   73.160   73.161
 qs_ks_update_qs_env                 38  5.0    0.000    0.001   70.338   70.348
 rebuild_ks_matrix                   36  6.0    0.000    0.000   70.332   70.340
 qs_ks_build_kohn_sham_matrix        36  7.0    0.008    0.010   70.332   70.340
 mp_sum_d                          1590  8.0   32.027   33.027   32.027   33.027
 calculate_vxc_atom                  36  8.0    0.099    1.521   30.509   30.510
 gaVxcgb_GC                          36  9.0    0.671   28.266    0.671   28.266
 prepare_gapw_den                    36  8.0    0.001    0.002   18.556   18.578
 calculate_rho_atom                  72  9.0    4.940   13.970    4.940   13.970
 rs_pw_transfer                     364  9.5    0.009    0.011    9.407    9.784
 pw_transfer                        761 10.1    0.081    0.097    7.939    8.706
 fft_wrap_pw1pw2                    653 11.3    0.009    0.010    7.777    8.525
 fft_wrap_pw1pw2_300                434 12.7    0.509    0.587    7.320    8.064
 calculate_rho0_atom                 72  9.0    7.139    7.800    7.139    7.800
 fft3d_ps                           653 13.3    2.851    3.396    6.119    6.897
 integrate_vhg0_rspace               36  8.0    0.773    1.279    6.458    6.477
 qs_vxc_create                       36  8.0    0.001    0.001    6.202    6.203
 xc_vxc_pw_create                    36  9.0    0.039    0.044    6.201    6.202
 qs_rho_update_rho                   37  5.0    0.001    0.001    5.744    5.747
 mp_sum_dv                         1350 13.0    3.847    5.691    3.847    5.691
 calculate_rho_elec                  37  6.0    0.020    0.022    5.339    5.339
 xc_pw_derive                       216 11.0    0.003    0.003    4.209    5.082
 sum_up_and_integrate                36  8.0    0.020    0.025    5.007    5.012
 integrate_v_rspace                  36  9.0    0.001    0.001    4.987    4.992
 density_rs2pw                       37  7.0    0.002    0.003    4.194    4.583
 mp_alltoall_z22v                   653 15.3    2.595    4.053    2.595    4.053
 mp_sum_dm                          550  7.7    3.914    4.032    3.914    4.032
 init_scf_loop                        2  4.0    0.000    0.000    4.028    4.028
 rs_pw_transfer_PW2RS_300            72 11.0    2.403    2.489    3.768    3.960
 rs_pw_transfer_RS2PW_300            73 10.0    2.297    2.524    3.554    3.950
 potential_pw2rs                     36 10.0    0.003    0.003    3.903    3.907
 xc_pw_divergence                    36 10.0    0.001    0.002    2.818    3.682
 xc_rho_set_and_dset_create          36 10.0    0.049    0.056    3.213    3.665
 yz_to_x                            291 14.1    0.285    0.371    1.703    2.875
 put_rho0_on_grid                    36  9.0    0.025    0.034    2.636    2.658
 mp_waitany                        8120 11.5    2.028    2.527    2.028    2.527
 Vh_1c_gg_integrals                  36  8.0    0.141    2.061    2.074    2.136
 xc_functional_eval                 108 10.8    0.001    0.001    1.078    2.116
 pbe_lda_eval                       108 11.8    1.078    2.115    1.078    2.115
 mp_waitall_1                     78298 13.9    1.552    1.888    1.552    1.888
 grid_collocate_task_list            37  7.0    0.992    1.847    0.992    1.847
 x_to_yz                            289 14.6    0.336    0.382    1.508    1.632
 -------------------------------------------------------------------------------

 The number of warnings for this run is : 1
 
 -------------------------------------------------------------------------------
  **** **** ******  **  PROGRAM ENDED AT                 2022-05-13 21:14:06.384
 ***** ** ***  *** **   PROGRAM RAN ON                                   tcopt10
 **    ****   ******    PROGRAM RAN BY                                    hutter
 ***** **    ** ** **   PROGRAM PROCESS ID                                 35950
  **** **  *******  **  PROGRAM STOPPED IN /data/hutter/GITHUB/BASIS/scMOLOPT/PB
                                           E/Ge
