 DBCSR| CPU Multiplication driver                                           XSMM
 DBCSR| Multrec recursion limit                                              512
 DBCSR| Multiplication stack size                                           1000
 DBCSR| Maximum elements for images                                    UNLIMITED
 DBCSR| Multiplicative factor virtual images                                   1
 DBCSR| Use multiplication densification                                       T
 DBCSR| Multiplication size stacks                                             3
 DBCSR| Use memory pool for CPU allocation                                     F
 DBCSR| Number of 3D layers                                               SINGLE
 DBCSR| Use MPI memory allocation                                              F
 DBCSR| Use RMA algorithm                                                      F
 DBCSR| Use Communication thread                                               T
 DBCSR| Communication thread load                                             87
 DBCSR| MPI: My node id                                                        0
 DBCSR| MPI: Number of nodes                                                  48
 DBCSR| OMP: Current number of threads                                         1
 DBCSR| OMP: Max number of threads                                             1
 DBCSR| Split modifier for TAS multiplication algorithm                  1.0E+00


  **** **** ******  **  PROGRAM STARTED AT               2022-05-13 21:14:27.160
 ***** ** ***  *** **   PROGRAM STARTED ON                               tcopt10
 **    ****   ******    PROGRAM STARTED BY                                hutter
 ***** **    ** ** **   PROGRAM PROCESS ID                                 36230
  **** **  *******  **  PROGRAM STARTED IN /data/hutter/GITHUB/BASIS/scMOLOPT/PB
                                           E/Ge

 CP2K| version string:                   CP2K version 10.0 (Development Version)
 CP2K| source code revision number:                                  git:13fcfd8
 CP2K| cp2kflags: omp libint fftw3 libxc elpa parallel mpi3 scalapack cosma xsmm
 CP2K|             spglib sirius libvori libbqb
 CP2K| is freely available from                            https://www.cp2k.org/
 CP2K| Program compiled at                      Tue 10 May 2022 02:27:21 PM CEST
 CP2K| Program compiled on                                               tcopt10
 CP2K| Program compiled for                                                local
 CP2K| Data directory path                   /data/hutter/GITHUB/TDLRI/cp2k/data
 CP2K| Input file name                                              GeH4-ref.inp

 GLOBAL| Force Environment number                                              1
 GLOBAL| Basis set file name                                        ../def2QZVPP
 GLOBAL| Potential file name                                        ../POTENTIAL
 GLOBAL| MM Potential file name                                     MM_POTENTIAL
 GLOBAL| Coordinate file name                                      __STD_INPUT__
 GLOBAL| Method name                                                        CP2K
 GLOBAL| Project name                                                    refGeH4
 GLOBAL| Run type                                                         ENERGY
 GLOBAL| FFT library                                                       FFTW3
 GLOBAL| Diagonalization library                                       ScaLAPACK
 GLOBAL| Orthonormality check for eigenvectors                          DISABLED
 GLOBAL| Matrix multiplication library                                     COSMA
 GLOBAL| All-to-all communication in single precision                          F
 GLOBAL| FFTs using library dependent lengths                                  F
 GLOBAL| Grid backend                                                       AUTO
 GLOBAL| Global print level                                                  LOW
 GLOBAL| MPI I/O enabled                                                       T
 GLOBAL| Total number of message passing processes                            48
 GLOBAL| Number of threads for this process                                    1
 GLOBAL| This output is from process                                           0
 GLOBAL| Stack size for threads created by OpenMP (OMP_STACKSIZE)        default
 GLOBAL| CPU model name                          AMD EPYC 7401 24-Core Processor
 GLOBAL| CPUID                                                              1002

 MEMORY| system memory details [Kb]
 MEMORY|                        rank 0           min           max       average
 MEMORY| MemTotal            263969136     263969136     263969136     263969136
 MEMORY| MemFree             237762180     237762180     237762180     237762180
 MEMORY| Buffers                   136           136           136           136
 MEMORY| Cached               18982240      18982240      18982240      18982240
 MEMORY| Slab                  1427136       1427136       1427136       1427136
 MEMORY| SReclaimable           871608        871608        871608        871608
 MEMORY| MemLikelyFree       257616164     257616164     257616164     257616164


 GENERATE|  Preliminary Number of Bonds generated:                             3
 GENERATE|  Achieved consistency in connectivity generation.
 GENERATE|  Number of Bonds generated:                                         3
 GENERATE|  Preliminary Number of Bends generated:                             3
 GENERATE|  Number of Bends generated:                                         3
 GENERATE|  Number of UB generated:                                            3
 GENERATE|  Preliminary Number of Torsions generated:                          0
 GENERATE|  Number of Impropers generated:                                     1

 *******************************************************************************
 *******************************************************************************
 **                                                                           **
 **     #####                         ##              ##                      **
 **    ##   ##            ##          ##              ##                      **
 **   ##     ##                       ##            ######                    **
 **   ##     ##  ##   ##  ##   #####  ##  ##   ####   ##    #####    #####    **
 **   ##     ##  ##   ##  ##  ##      ## ##   ##      ##   ##   ##  ##   ##   **
 **   ##  ## ##  ##   ##  ##  ##      ####     ###    ##   ######   ######    **
 **    ##  ###   ##   ##  ##  ##      ## ##      ##   ##   ##       ##        **
 **     #######   #####   ##   #####  ##  ##  ####    ##    #####   ##        **
 **           ##                                                    ##        **
 **                                                                           **
 **                                                ... make the atoms dance   **
 **                                                                           **
 **            Copyright (C) by CP2K developers group (2000-2022)             **
 **                      J. Chem. Phys. 152, 194103 (2020)                    **
 **                                                                           **
 *******************************************************************************


 TOTAL NUMBERS AND MAXIMUM NUMBERS

  Total number of            - Atomic kinds:                                   2
                             - Atoms:                                          5
                             - Shell sets:                                    67
                             - Shells:                                        67
                             - Primitive Cartesian functions:                110
                             - Cartesian basis functions:                    251
                             - Spherical basis functions:                    209

  Maximum angular momentum of the orbital basis functions:                     4


 SCF PARAMETERS         Density guess:                                    ATOMIC
                        --------------------------------------------------------
                        max_scf:                                              20
                        max_scf_history:                                       0
                        max_diis:                                              4
                        --------------------------------------------------------
                        eps_scf:                                        5.00E-07
                        eps_scf_history:                                0.00E+00
                        eps_diis:                                       1.00E-01
                        eps_eigval:                                     1.00E-05
                        --------------------------------------------------------
                        level_shift [a.u.]:                             0.000000
                        --------------------------------------------------------
                        Outer loop SCF in use 
                        No variables optimised in outer loop
                        eps_scf                                         5.00E-07
                        max_scf                                               10
                        No outer loop optimization
                        step_size                                       5.00E-01

 Number of electrons:                                                         36
 Number of occupied orbitals:                                                 18
 Number of molecular orbitals:                                                18

 Number of orbital functions:                                                209
 Number of independent orbital functions:                                    209

 Extrapolation method: initial_guess


 SCF WAVEFUNCTION OPTIMIZATION

  ----------------------------------- OT ---------------------------------------
  Minimizer      : DIIS                : direct inversion
                                         in the iterative subspace
                                         using   7 DIIS vectors
                                         safer DIIS on
  Preconditioner : FULL_ALL            : diagonalization, state selective
  Precond_solver : DEFAULT
  stepsize       :    0.10000000                  energy_gap     :    0.08000000
  eps_taylor     :   0.10000E-15                  max_taylor     :             4
  ----------------------------------- OT ---------------------------------------

  Step     Update method      Time    Convergence         Total energy    Change
  ------------------------------------------------------------------------------
     1 OT DIIS     0.10E+00    2.0     0.26176987     -2042.1606096817 -2.04E+03
     2 OT DIIS     0.10E+00    2.1     0.15556332     -2062.6562061032 -2.05E+01
     3 OT DIIS     0.10E+00    2.1     0.04905592     -2073.8696789810 -1.12E+01
     4 OT DIIS     0.10E+00    2.1     0.03789763     -2075.3200214504 -1.45E+00
     5 OT DIIS     0.10E+00    2.0     0.02379438     -2076.6781477943 -1.36E+00
     6 OT DIIS     0.10E+00    2.1     0.01606971     -2077.1906655216 -5.13E-01
     7 OT DIIS     0.10E+00    2.0     0.01274388     -2077.4588818657 -2.68E-01
     8 OT DIIS     0.10E+00    2.1     0.01096249     -2077.8153689507 -3.56E-01
     9 OT DIIS     0.10E+00    2.0     0.01077968     -2077.8767455505 -6.14E-02
    10 OT DIIS     0.10E+00    2.1     0.00811842     -2078.1205090716 -2.44E-01
    11 OT DIIS     0.10E+00    2.1     0.00744382     -2078.2482342570 -1.28E-01
    12 OT DIIS     0.10E+00    2.0     0.00635049     -2078.3758325475 -1.28E-01
    13 OT DIIS     0.10E+00    2.0     0.00449782     -2078.5792820792 -2.03E-01
    14 OT DIIS     0.10E+00    2.1     0.00412110     -2078.6122277131 -3.29E-02
    15 OT DIIS     0.10E+00    2.1     0.00351712     -2078.6635113150 -5.13E-02
    16 OT DIIS     0.10E+00    2.0     0.00324834     -2078.6909071449 -2.74E-02
    17 OT DIIS     0.10E+00    2.0     0.00300664     -2078.7175457008 -2.66E-02
    18 OT DIIS     0.10E+00    2.1     0.00496524     -2078.7308850815 -1.33E-02
    19 OT DIIS     0.10E+00    2.0     0.00279853     -2078.7455018720 -1.46E-02
    20 OT DIIS     0.10E+00    2.1     0.00278554     -2078.7944978488 -4.90E-02

  Leaving inner SCF loop after reaching    20 steps.


  Electronic density on regular grids:        -16.8610126996       19.1389873004
  Core density on regular grids:               36.0000000000       -0.0000000000
  Hard and soft densities (Lebedev):          -45.1171198452      -25.9781325972
  Total Rho_soft + Rho1_hard - Rho1_soft      -35.9999999477
  Total charge density (r-space):               0.0000000523
  Total Rho_soft + Rho0_soft (g-space):        -0.0000000127

  Overlap energy of the core charge distribution:               0.00001548678121
  Self energy of the core charge distribution:               -540.57720468075763
  Core Hamiltonian energy:                                  -1701.97303787446231
  Hartree energy:                                              83.13383777274102
  Exchange-correlation energy:                                -10.56644416728751

  GAPW| Exc from hard and soft atomic rho1:                   -69.51612080246586
  GAPW| local Eh = 1 center integrals:                        160.70445641663159

  Total energy:                                             -2078.79449784881945

  outer SCF iter =    1 RMS gradient =   0.28E-02 energy =      -2078.7944978488

  ----------------------------------- OT ---------------------------------------
  Minimizer      : DIIS                : direct inversion
                                         in the iterative subspace
                                         using   7 DIIS vectors
                                         safer DIIS on
  Preconditioner : FULL_ALL            : diagonalization, state selective
  Precond_solver : DEFAULT
  stepsize       :    0.10000000                  energy_gap     :    0.08000000
  eps_taylor     :   0.10000E-15                  max_taylor     :             4
  ----------------------------------- OT ---------------------------------------

  Step     Update method      Time    Convergence         Total energy    Change
  ------------------------------------------------------------------------------
     1 OT DIIS     0.10E+00    4.2     0.03623811     -2078.7984892827 -3.99E-03
     2 OT DIIS     0.10E+00    2.0     0.00766969     -2079.0969166903 -2.98E-01
     3 OT DIIS     0.10E+00    2.0     0.00545255     -2079.1031693342 -6.25E-03
     4 OT DIIS     0.10E+00    2.0     0.00707269     -2079.1029300372  2.39E-04
     5 OT DIIS     0.10E+00    2.0     0.00156918     -2079.1068295948 -3.90E-03
     6 OT DIIS     0.10E+00    2.1     0.00111660     -2079.1070898575 -2.60E-04
     7 OT DIIS     0.10E+00    2.1     0.00014229     -2079.1072011534 -1.11E-04
     8 OT DIIS     0.10E+00    2.0     0.00001662     -2079.1072033585 -2.21E-06
     9 OT DIIS     0.10E+00    2.0     0.00000566     -2079.1072034156 -5.70E-08
    10 OT DIIS     0.10E+00    2.0     0.00000183     -2079.1072034286 -1.31E-08
    11 OT DIIS     0.10E+00    2.0     0.00000042     -2079.1072034274  1.21E-09

  *** SCF run converged in    11 steps ***


  Electronic density on regular grids:        -16.8407152091       19.1592847909
  Core density on regular grids:               36.0000000000       -0.0000000000
  Hard and soft densities (Lebedev):          -46.1053872578      -26.9461025280
  Total Rho_soft + Rho1_hard - Rho1_soft      -35.9999999388
  Total charge density (r-space):               0.0000000612
  Total Rho_soft + Rho0_soft (g-space):        -0.0000000038

  Overlap energy of the core charge distribution:               0.00001548678121
  Self energy of the core charge distribution:               -540.57720468075763
  Core Hamiltonian energy:                                  -1702.20886329435166
  Hartree energy:                                              82.98964150691009
  Exchange-correlation energy:                                -10.57017938286221

  GAPW| Exc from hard and soft atomic rho1:                   -69.55149515332707
  GAPW| local Eh = 1 center integrals:                        160.81088209019819

  Total energy:                                             -2079.10720342740888

  outer SCF iter =    2 RMS gradient =   0.42E-06 energy =      -2079.1072034274
  outer SCF loop converged in   2 iterations or   31 steps


 ENERGY| Total FORCE_EVAL ( QS ) energy [a.u.]:            -2079.107203427408876

 -------------------------------------------------------------------------------
 -                                                                             -
 -                                DBCSR STATISTICS                             -
 -                                                                             -
 -------------------------------------------------------------------------------
 COUNTER                                    TOTAL       BLAS       SMM       ACC
 flops    30 x    18 x    18              3052080       0.0%    100.0%      0.0%
 flops    18 x    18 x    18              3114288       0.0%    100.0%      0.0%
 flops    60 x    18 x    18              6104160       0.0%    100.0%      0.0%
 flops    30 x    89 x    18              6151680       0.0%    100.0%      0.0%
 flops    89 x    30 x    18              6151680       0.0%    100.0%      0.0%
 flops    18 x    18 x    89              7266672       0.0%    100.0%      0.0%
 flops    89 x    89 x    18              9124992       0.0%    100.0%      0.0%
 flops    18 x    18 x    30              9797760       0.0%    100.0%      0.0%
 flops    30 x    30 x    18             10368000       0.0%    100.0%      0.0%
 flops   119 x    18 x    18             12106584       0.0%    100.0%      0.0%
 flops    60 x    18 x    89             12687840       0.0%    100.0%      0.0%
 flops    60 x    18 x    30             17107200       0.0%    100.0%      0.0%
 flops    89 x    18 x    89             21671856       0.0%    100.0%      0.0%
 flops   119 x    18 x    89             25164216       0.0%    100.0%      0.0%
 flops    89 x    18 x    30             29220480       0.0%    100.0%      0.0%
 flops   119 x    18 x    30             33929280       0.0%    100.0%      0.0%
 flops    30 x    18 x    89             35564400       0.0%    100.0%      0.0%
 flops    30 x    18 x    30             47952000       0.0%    100.0%      0.0%
 flops inhomo. stacks                           0       0.0%      0.0%      0.0%
 flops total                       296.535168E+06       0.0%    100.0%      0.0%
 flops max/rank                    168.550848E+06       0.0%    100.0%      0.0%
 matmuls inhomo. stacks                         0       0.0%      0.0%      0.0%
 matmuls total                               4738       0.0%    100.0%      0.0%
 number of processed stacks                  4326       0.0%    100.0%      0.0%
 average stack size                                     0.0       1.1       0.0
 marketing flops                   315.330560E+06
 -------------------------------------------------------------------------------
 # multiplications                            726
 max memory usage/rank             570.609664E+06
 # max total images/rank                        3
 # max 3D layers                                1
 # MPI messages exchanged                  696960
 MPI messages size (bytes):
  total size                       688.116544E+06
  min size                           0.000000E+00
  max size                          84.728000E+03
  average size                     987.311401E+00
 MPI breakdown and total messages size (bytes):
             size <=      128              651654                        0
       128 < size <=     8192               21680                104378688
      8192 < size <=    32768               20502                384664080
     32768 < size <=   131072                3124                199073776
    131072 < size <=  4194304                   0                        0
   4194304 < size <= 16777216                   0                        0
  16777216 < size                               0                        0
 -------------------------------------------------------------------------------

 *** WARNING in dbcsr_mm.F:290 :: Using a non-square number of MPI ranks ***
 *** might lead to poor performance. Used ranks: 48 Suggested: 49 100    ***

 -------------------------------------------------------------------------------
 -                                                                             -
 -                      DBCSR MESSAGE PASSING PERFORMANCE                      -
 -                                                                             -
 -------------------------------------------------------------------------------
 ROUTINE             CALLS      AVE VOLUME [Bytes]
 MP_Bcast               19                     12.
 MP_Allreduce         3893                      8.
 MP_Alltoall          2729                   5138.
 MP_ISend            32318                   1512.
 MP_IRecv            32154                    812.
 -------------------------------------------------------------------------------

 -------------------------------------------------------------------------------
 -                                                                             -
 -                                GRID STATISTICS                              -
 -                                                                             -
 -------------------------------------------------------------------------------
 LP    KERNEL             BACKEND                              COUNT     PERCENT
 1     collocate ortho    REF                                  19584      10.89%
 1     integrate ortho    REF                                  18972      10.55%
 2     collocate ortho    REF                                  18944      10.53%
 2     integrate ortho    REF                                  18352      10.20%
 3     collocate ortho    REF                                  16064       8.93%
 3     integrate ortho    REF                                  15562       8.65%
 0     collocate ortho    REF                                  13280       7.38%
 0     integrate ortho    REF                                  12865       7.15%
 4     collocate ortho    REF                                   9600       5.34%
 4     integrate ortho    REF                                   9300       5.17%
 2     collocate general  REF                                   7440       4.14%
 2     integrate general  REF                                   7440       4.14%
 5     collocate ortho    REF                                   4480       2.49%
 5     integrate ortho    REF                                   4340       2.41%
 6     collocate ortho    REF                                   1504       0.84%
 6     integrate ortho    REF                                   1457       0.81%
 7     collocate ortho    REF                                    320       0.18%
 7     integrate ortho    REF                                    310       0.17%
 8     collocate ortho    REF                                     32       0.02%
 8     integrate ortho    REF                                     31       0.02%
 -------------------------------------------------------------------------------

 MEMORY| Estimated peak process memory [MiB]                                 545

 -------------------------------------------------------------------------------
 -                                                                             -
 -                         MESSAGE PASSING PERFORMANCE                         -
 -                                                                             -
 -------------------------------------------------------------------------------

 ROUTINE             CALLS      AVE VOLUME [Bytes]
 MP_Group                4
 MP_Bcast              937                 241983.
 MP_Allreduce         2591                 293452.
 MP_Sync                78
 MP_Alltoall           702                7536121.
 MP_ISendRecv         8883                 115392.
 MP_Wait             16508
 MP_comm_split          37
 MP_ISend             7000                 283629.
 MP_IRecv             7000                 283680.
 MP_Recv                16                   3344.
 -------------------------------------------------------------------------------


 -------------------------------------------------------------------------------
 -                                                                             -
 -                           R E F E R E N C E S                               -
 -                                                                             -
 -------------------------------------------------------------------------------
 
 CP2K version 10.0 (Development Version), the CP2K developers group (2022).
 CP2K is freely available from https://www.cp2k.org/ .

 Kuehne,Thomas D.; Iannuzzi,Marcella; Del Ben,Mauro;
 Rybkin,Vladimir V.; Seewald,Patrick; Stein,Frederick; Laino,Teodoro;
 Khaliullin,Rustam Z.; Schuett,Ole; Schiffmann,Florian; Golze,Dorothea;
 Wilhelm,Jan; Chulkov,Sergey; Bani-Hashemian,Mohammad Hossein;
 Weber,Valery; Borstnik,Urban; Taillefumier,Mathieu;
 Jakobovits,Alice Shoshana; Lazzaro,Alfio; Pabst,Hans; Mueller,Tiziano;
 Schade,Robert; Guidon,Manuel; Andermatt,Samuel; Holmberg,Nico;
 Schenter,Gregory K.; Hehn,Anna; Bussy,Augustin; Belleflamme,Fabian;
 Tabacchi,Gloria; Gloess,Andreas; Lass,Michael; Bethune,Iain;
 Mundy,Christopher J.; Plessl,Christian; Watkins,Matt;
 VandeVondele,Joost; Krack,Matthias; Hutter,Juerg. 
 The Journal of Chemical Physics, 152 (19), (2020). 
 CP2K: An electronic structure and molecular dynamics software package -
 Quickstep: Efficient and accurate electronic structure calculations.
 https://doi.org/10.1063/5.0007045

 Schuett, Ole; Messmer, Peter; Hutter, Juerg; VandeVondele, Joost. 
 Electronic Structure Calculations on Graphics Processing Units, John
 Wiley & Sons, Ltd, 173-190 (2016). 
 GPU-Accelerated Sparse Matrix-Matrix Multiplication for
 Linear Scaling Density Functional Theory.
 https://doi.org/10.1002/9781118670712.ch8

 Heinecke, A; Henry, G; Hutchinson, M; Pabst, H. 
 Proceedings of Intl. Supercomputing Conference, 981-991 (2016). 
 LIBXSMM: Accelerating Small Matrix Multiplications
 by Runtime Code Generation.
 https://doi.org/10.1109/SC.2016.83

 Borstnik, U; VandeVondele, J; Weber, V; Hutter, J. 
 PARALLEL COMPUTING, 40 (5-6), 47-58 (2014). 
 Sparse matrix multiplication: The distributed block-compressed sparse
 row library.
 https://doi.org/10.1016/j.parco.2014.03.012

 Hutter, J; Iannuzzi, M; Schiffmann, F; VandeVondele, J. 
 WIREs Comput Mol Sci., 4 (1), 15-25 (2014). 
 CP2K: atomistic simulations of condensed matter systems.
 https://doi.org/10.1002/wcms.1159

 Frigo, M; Johnson, SG. 
 PROCEEDINGS OF THE IEEE, 93 (2), 216-231 (2005). 
 The design and implementation of FFTW3.
 https://doi.org/10.1109/JPROC.2004.840301

 VandeVondele, J; Hutter, J. 
 JOURNAL OF CHEMICAL PHYSICS, 118 (10), 4365-4369 (2003). 
 An efficient orbital transformation method for electronic structure
 calculations.
 https://doi.org/10.1063/1.1543154

 Lippert, G; Hutter, J; Parrinello, M. 
 THEORETICAL CHEMISTRY ACCOUNTS, 103 (2), 124-140 (1999). 
 The Gaussian and augmented-plane-wave density functional method for ab
 initio molecular dynamics simulations.
 https://doi.org/10.1007/s002140050523

 Krack, M; Parrinello, M. 
 PHYSICAL CHEMISTRY CHEMICAL PHYSICS, 2 (10), 2105-2112 (2000). 
 All-electron ab-initio molecular dynamics.
 https://doi.org/10.1039/b001167n

 Perdew, JP; Burke, K; Ernzerhof, M. 
 PHYSICAL REVIEW LETTERS, 77 (18), 3865-3868 (1996). 
 Generalized gradient approximation made simple.
 https://doi.org/10.1103/PhysRevLett.77.3865


 -------------------------------------------------------------------------------
 -                                                                             -
 -                                T I M I N G                                  -
 -                                                                             -
 -------------------------------------------------------------------------------
 SUBROUTINE                       CALLS  ASD         SELF TIME        TOTAL TIME
                                MAXIMUM       AVERAGE  MAXIMUM  AVERAGE  MAXIMUM
 CP2K                                 1  1.0    0.011    0.038   64.614   64.619
 qs_energies                          1  2.0    0.000    0.000   64.282   64.286
 scf_env_do_scf                       1  3.0    0.000    0.000   63.833   63.838
 scf_env_do_scf_inner_loop           31  4.0    0.001    0.002   59.987   59.992
 qs_ks_update_qs_env                 33  5.0    0.000    0.000   58.116   58.121
 rebuild_ks_matrix                   31  6.0    0.000    0.000   58.113   58.118
 qs_ks_build_kohn_sham_matrix        31  7.0    0.007    0.008   58.113   58.118
 mp_sum_d                          1380  7.5   26.550   27.293   26.550   27.293
 calculate_vxc_atom                  31  8.0    0.082    1.310   25.107   25.108
 gaVxcgb_GC                          31  9.0    0.496   23.177    0.496   23.177
 prepare_gapw_den                    31  8.0    0.001    0.002   15.391   15.407
 calculate_rho_atom                  62  9.0    3.970   11.687    3.970   11.687
 rs_pw_transfer                     314  9.5    0.008    0.010    8.123    8.375
 pw_transfer                        656 10.1    0.070    0.082    6.954    7.590
 fft_wrap_pw1pw2                    563 11.3    0.008    0.009    6.814    7.436
 fft_wrap_pw1pw2_300                374 12.7    0.437    0.513    6.416    7.033
 fft3d_ps                           563 13.3    2.480    2.981    5.390    6.075
 calculate_rho0_atom                 62  9.0    5.535    5.845    5.535    5.845
 qs_vxc_create                       31  8.0    0.001    0.001    5.515    5.516
 xc_vxc_pw_create                    31  9.0    0.034    0.038    5.514    5.515
 mp_sum_dv                          962 13.0    3.644    5.348    3.644    5.348
 integrate_vhg0_rspace               31  8.0    0.511    0.963    5.061    5.063
 qs_rho_update_rho                   32  5.0    0.001    0.001    4.925    4.925
 calculate_rho_elec                  32  6.0    0.017    0.019    4.641    4.641
 xc_pw_derive                       186 11.0    0.002    0.003    3.690    4.436
 sum_up_and_integrate                31  8.0    0.018    0.021    3.931    3.938
 integrate_v_rspace                  31  9.0    0.001    0.001    3.913    3.921
 density_rs2pw                       32  7.0    0.002    0.002    3.607    3.900
 init_scf_loop                        2  4.0    0.000    0.000    3.845    3.845
 mp_alltoall_z22v                   563 15.3    2.327    3.489    2.327    3.489
 rs_pw_transfer_PW2RS_300            62 11.0    2.084    2.170    3.262    3.433
 potential_pw2rs                     31 10.0    0.002    0.003    3.396    3.401
 rs_pw_transfer_RS2PW_300            63 10.0    2.097    2.207    3.019    3.286
 xc_pw_divergence                    31 10.0    0.001    0.001    2.504    3.239
 xc_rho_set_and_dset_create          31 10.0    0.042    0.048    2.858    3.230
 mp_sum_dm                          475  7.7    2.972    3.087    2.972    3.087
 yz_to_x                            251 14.1    0.248    0.307    1.475    2.417
 put_rho0_on_grid                    31  9.0    0.021    0.029    2.245    2.261
 xc_functional_eval                  93 10.8    0.000    0.001    1.001    1.883
 pbe_lda_eval                        93 11.8    1.001    1.883    1.001    1.883
 Vh_1c_gg_integrals                  31  8.0    0.106    1.777    1.786    1.837
 mp_waitany                        7000 11.5    1.604    1.831    1.604    1.831
 mp_waitall_1                     67588 13.9    1.334    1.575    1.334    1.575
 x_to_yz                            249 14.6    0.290    0.330    1.385    1.494
 -------------------------------------------------------------------------------

 The number of warnings for this run is : 1
 
 -------------------------------------------------------------------------------
  **** **** ******  **  PROGRAM ENDED AT                 2022-05-13 21:15:32.230
 ***** ** ***  *** **   PROGRAM RAN ON                                   tcopt10
 **    ****   ******    PROGRAM RAN BY                                    hutter
 ***** **    ** ** **   PROGRAM PROCESS ID                                 36230
  **** **  *******  **  PROGRAM STOPPED IN /data/hutter/GITHUB/BASIS/scMOLOPT/PB
                                           E/Ge
