 DBCSR| CPU Multiplication driver                                           XSMM
 DBCSR| Multrec recursion limit                                              512
 DBCSR| Multiplication stack size                                           1000
 DBCSR| Maximum elements for images                                    UNLIMITED
 DBCSR| Multiplicative factor virtual images                                   1
 DBCSR| Use multiplication densification                                       T
 DBCSR| Multiplication size stacks                                             3
 DBCSR| Use memory pool for CPU allocation                                     F
 DBCSR| Number of 3D layers                                               SINGLE
 DBCSR| Use MPI memory allocation                                              F
 DBCSR| Use RMA algorithm                                                      F
 DBCSR| Use Communication thread                                               T
 DBCSR| Communication thread load                                             87
 DBCSR| MPI: My node id                                                        0
 DBCSR| MPI: Number of nodes                                                  48
 DBCSR| OMP: Current number of threads                                         1
 DBCSR| OMP: Max number of threads                                             1
 DBCSR| Split modifier for TAS multiplication algorithm                  1.0E+00


  **** **** ******  **  PROGRAM STARTED AT               2022-05-13 21:17:28.768
 ***** ** ***  *** **   PROGRAM STARTED ON                               tcopt10
 **    ****   ******    PROGRAM STARTED BY                                hutter
 ***** **    ** ** **   PROGRAM PROCESS ID                                 36781
  **** **  *******  **  PROGRAM STARTED IN /data/hutter/GITHUB/BASIS/scMOLOPT/PB
                                           E/Ge

 CP2K| version string:                   CP2K version 10.0 (Development Version)
 CP2K| source code revision number:                                  git:13fcfd8
 CP2K| cp2kflags: omp libint fftw3 libxc elpa parallel mpi3 scalapack cosma xsmm
 CP2K|             spglib sirius libvori libbqb
 CP2K| is freely available from                            https://www.cp2k.org/
 CP2K| Program compiled at                      Tue 10 May 2022 02:27:21 PM CEST
 CP2K| Program compiled on                                               tcopt10
 CP2K| Program compiled for                                                local
 CP2K| Data directory path                   /data/hutter/GITHUB/TDLRI/cp2k/data
 CP2K| Input file name                                               GeO-ref.inp

 GLOBAL| Force Environment number                                              1
 GLOBAL| Basis set file name                                        ../def2QZVPP
 GLOBAL| Potential file name                                        ../POTENTIAL
 GLOBAL| MM Potential file name                                     MM_POTENTIAL
 GLOBAL| Coordinate file name                                      __STD_INPUT__
 GLOBAL| Method name                                                        CP2K
 GLOBAL| Project name                                                     refGeO
 GLOBAL| Run type                                                         ENERGY
 GLOBAL| FFT library                                                       FFTW3
 GLOBAL| Diagonalization library                                       ScaLAPACK
 GLOBAL| Orthonormality check for eigenvectors                          DISABLED
 GLOBAL| Matrix multiplication library                                     COSMA
 GLOBAL| All-to-all communication in single precision                          F
 GLOBAL| FFTs using library dependent lengths                                  F
 GLOBAL| Grid backend                                                       AUTO
 GLOBAL| Global print level                                                  LOW
 GLOBAL| MPI I/O enabled                                                       T
 GLOBAL| Total number of message passing processes                            48
 GLOBAL| Number of threads for this process                                    1
 GLOBAL| This output is from process                                           0
 GLOBAL| Stack size for threads created by OpenMP (OMP_STACKSIZE)        default
 GLOBAL| CPU model name                          AMD EPYC 7401 24-Core Processor
 GLOBAL| CPUID                                                              1002

 MEMORY| system memory details [Kb]
 MEMORY|                        rank 0           min           max       average
 MEMORY| MemTotal            263969136     263969136     263969136     263969136
 MEMORY| MemFree             237752632     237752632     237752632     237752632
 MEMORY| Buffers                   136           136           136           136
 MEMORY| Cached               18980332      18980332      18980332      18980332
 MEMORY| Slab                  1426092       1426092       1426092       1426092
 MEMORY| SReclaimable           870816        870816        870816        870816
 MEMORY| MemLikelyFree       257603916     257603916     257603916     257603916


 GENERATE|  Preliminary Number of Bonds generated:                             0
 GENERATE|  Achieved consistency in connectivity generation.

 *******************************************************************************
 *******************************************************************************
 **                                                                           **
 **     #####                         ##              ##                      **
 **    ##   ##            ##          ##              ##                      **
 **   ##     ##                       ##            ######                    **
 **   ##     ##  ##   ##  ##   #####  ##  ##   ####   ##    #####    #####    **
 **   ##     ##  ##   ##  ##  ##      ## ##   ##      ##   ##   ##  ##   ##   **
 **   ##  ## ##  ##   ##  ##  ##      ####     ###    ##   ######   ######    **
 **    ##  ###   ##   ##  ##  ##      ## ##      ##   ##   ##       ##        **
 **     #######   #####   ##   #####  ##  ##  ####    ##    #####   ##        **
 **           ##                                                    ##        **
 **                                                                           **
 **                                                ... make the atoms dance   **
 **                                                                           **
 **            Copyright (C) by CP2K developers group (2000-2022)             **
 **                      J. Chem. Phys. 152, 194103 (2020)                    **
 **                                                                           **
 *******************************************************************************


 TOTAL NUMBERS AND MAXIMUM NUMBERS

  Total number of            - Atomic kinds:                                   2
                             - Atoms:                                          2
                             - Shell sets:                                    44
                             - Shells:                                        44
                             - Primitive Cartesian functions:                 87
                             - Cartesian basis functions:                    183
                             - Spherical basis functions:                    146

  Maximum angular momentum of the orbital basis functions:                     4


 SCF PARAMETERS         Density guess:                                    ATOMIC
                        --------------------------------------------------------
                        max_scf:                                              20
                        max_scf_history:                                       0
                        max_diis:                                              4
                        --------------------------------------------------------
                        eps_scf:                                        5.00E-07
                        eps_scf_history:                                0.00E+00
                        eps_diis:                                       1.00E-01
                        eps_eigval:                                     1.00E-05
                        --------------------------------------------------------
                        level_shift [a.u.]:                             0.000000
                        --------------------------------------------------------
                        Outer loop SCF in use 
                        No variables optimised in outer loop
                        eps_scf                                         5.00E-07
                        max_scf                                               10
                        No outer loop optimization
                        step_size                                       5.00E-01

 Number of electrons:                                                         40
 Number of occupied orbitals:                                                 20
 Number of molecular orbitals:                                                20

 Number of orbital functions:                                                146
 Number of independent orbital functions:                                    146

 Extrapolation method: initial_guess


 SCF WAVEFUNCTION OPTIMIZATION

  ----------------------------------- OT ---------------------------------------
  Minimizer      : DIIS                : direct inversion
                                         in the iterative subspace
                                         using   7 DIIS vectors
                                         safer DIIS on
  Preconditioner : FULL_ALL            : diagonalization, state selective
  Precond_solver : DEFAULT
  stepsize       :    0.10000000                  energy_gap     :    0.08000000
  eps_taylor     :   0.10000E-15                  max_taylor     :             4
  ----------------------------------- OT ---------------------------------------

  Step     Update method      Time    Convergence         Total energy    Change
  ------------------------------------------------------------------------------
     1 OT DIIS     0.10E+00    2.0     0.51764638     -2052.9599650853 -2.05E+03
     2 OT DIIS     0.10E+00    2.2     0.29503818     -2114.9637850499 -6.20E+01
     3 OT DIIS     0.10E+00    2.2     0.10585244     -2139.9972247064 -2.50E+01
     4 OT DIIS     0.10E+00    2.2     0.06674675     -2141.7203150554 -1.72E+00
     5 OT DIIS     0.10E+00    2.2     0.05669018     -2144.2025684253 -2.48E+00
     6 OT DIIS     0.10E+00    2.1     0.03725947     -2146.2902606361 -2.09E+00
     7 OT DIIS     0.10E+00    2.1     0.02904393     -2147.8129217729 -1.52E+00
     8 OT DIIS     0.10E+00    2.1     0.01938381     -2149.0147209121 -1.20E+00
     9 OT DIIS     0.10E+00    2.1     0.01465304     -2149.6970068249 -6.82E-01
    10 OT DIIS     0.10E+00    2.2     0.01307547     -2149.7315169277 -3.45E-02
    11 OT DIIS     0.10E+00    2.1     0.01118490     -2149.9396262914 -2.08E-01
    12 OT DIIS     0.10E+00    2.1     0.01052293     -2150.1447041093 -2.05E-01
    13 OT DIIS     0.10E+00    2.1     0.00923877     -2150.3109279124 -1.66E-01
    14 OT DIIS     0.10E+00    2.1     0.00827529     -2150.5184877814 -2.08E-01
    15 OT DIIS     0.10E+00    2.2     0.00783030     -2150.6275370216 -1.09E-01
    16 OT DIIS     0.10E+00    2.1     0.00704406     -2150.8040748920 -1.77E-01
    17 OT DIIS     0.10E+00    2.1     0.00654533     -2150.9571363738 -1.53E-01
    18 OT DIIS     0.10E+00    2.1     0.00596544     -2151.0405025786 -8.34E-02
    19 OT DIIS     0.10E+00    2.2     0.00580768     -2151.1335661439 -9.31E-02
    20 OT DIIS     0.10E+00    2.2     0.00477597     -2151.2369793461 -1.03E-01

  Leaving inner SCF loop after reaching    20 steps.


  Electronic density on regular grids:        -18.7112602520       21.2887397480
  Core density on regular grids:               40.0000000000        0.0000000000
  Hard and soft densities (Lebedev):          -43.9231583316      -22.6344180965
  Total Rho_soft + Rho1_hard - Rho1_soft      -40.0000004872
  Total charge density (r-space):              -0.0000004872
  Total Rho_soft + Rho0_soft (g-space):        -0.0000006545

  Overlap energy of the core charge distribution:               0.00001307952548
  Self energy of the core charge distribution:               -607.84542907314869
  Core Hamiltonian energy:                                  -1710.35210674700647
  Hartree energy:                                              60.85941647025980
  Exchange-correlation energy:                                -12.34387818673677

  GAPW| Exc from hard and soft atomic rho1:                   -74.75038374674648
  GAPW| local Eh = 1 center integrals:                        193.19538885771021

  Total energy:                                             -2151.23697934614256

  outer SCF iter =    1 RMS gradient =   0.48E-02 energy =      -2151.2369793461

  ----------------------------------- OT ---------------------------------------
  Minimizer      : DIIS                : direct inversion
                                         in the iterative subspace
                                         using   7 DIIS vectors
                                         safer DIIS on
  Preconditioner : FULL_ALL            : diagonalization, state selective
  Precond_solver : DEFAULT
  stepsize       :    0.10000000                  energy_gap     :    0.08000000
  eps_taylor     :   0.10000E-15                  max_taylor     :             4
  ----------------------------------- OT ---------------------------------------

  Step     Update method      Time    Convergence         Total energy    Change
  ------------------------------------------------------------------------------
     1 OT DIIS     0.10E+00    4.3     0.04211119     -2151.3780416430 -1.41E-01
     2 OT DIIS     0.10E+00    2.1     0.02537514     -2151.8021337276 -4.24E-01
     3 OT DIIS     0.10E+00    2.1     0.03776802     -2151.8533323985 -5.12E-02
     4 OT DIIS     0.10E+00    2.1     0.02044002     -2151.9050813306 -5.17E-02
     5 OT DIIS     0.10E+00    2.1     0.01308043     -2151.9162867936 -1.12E-02
     6 OT DIIS     0.10E+00    2.2     0.00337423     -2151.9337680790 -1.75E-02
     7 OT DIIS     0.10E+00    2.2     0.00153969     -2151.9348114540 -1.04E-03
     8 OT DIIS     0.10E+00    2.1     0.00063972     -2151.9351564230 -3.45E-04
     9 OT DIIS     0.10E+00    2.1     0.00014640     -2151.9352239819 -6.76E-05
    10 OT DIIS     0.10E+00    2.1     0.00006101     -2151.9352302654 -6.28E-06
    11 OT DIIS     0.10E+00    2.1     0.00002160     -2151.9352312657 -1.00E-06
    12 OT DIIS     0.10E+00    2.1     0.00000996     -2151.9352314190 -1.53E-07
    13 OT DIIS     0.10E+00    2.1     0.00000323     -2151.9352314524 -3.34E-08
    14 OT DIIS     0.10E+00    2.2     0.00000237     -2151.9352314540 -1.54E-09
    15 OT DIIS     0.10E+00    2.2     0.00000113     -2151.9352314546 -5.76E-10
    16 OT DIIS     0.10E+00    2.1     0.00000034     -2151.9352314584 -3.88E-09

  *** SCF run converged in    16 steps ***


  Electronic density on regular grids:        -18.7062972876       21.2937027124
  Core density on regular grids:               40.0000000000        0.0000000000
  Hard and soft densities (Lebedev):          -45.4831190275      -24.1894160780
  Total Rho_soft + Rho1_hard - Rho1_soft      -40.0000002371
  Total charge density (r-space):              -0.0000002371
  Total Rho_soft + Rho0_soft (g-space):        -0.0000004048

  Overlap energy of the core charge distribution:               0.00001307952548
  Self energy of the core charge distribution:               -607.84542907314869
  Core Hamiltonian energy:                                  -1710.71018512412002
  Hartree energy:                                              60.48924857685685
  Exchange-correlation energy:                                -12.43843524521197

  GAPW| Exc from hard and soft atomic rho1:                   -74.72343751897085
  GAPW| local Eh = 1 center integrals:                        193.29299384663915

  Total energy:                                             -2151.93523145843028

  outer SCF iter =    2 RMS gradient =   0.34E-06 energy =      -2151.9352314584
  outer SCF loop converged in   2 iterations or   36 steps


 ENERGY| Total FORCE_EVAL ( QS ) energy [a.u.]:            -2151.935231458430280

 -------------------------------------------------------------------------------
 -                                                                             -
 -                                DBCSR STATISTICS                             -
 -                                                                             -
 -------------------------------------------------------------------------------
 COUNTER                                    TOTAL       BLAS       SMM       ACC
 flops    57 x    57 x    20              4808520       0.0%    100.0%      0.0%
 flops    20 x    20 x    20              4992000       0.0%    100.0%      0.0%
 flops    20 x    20 x    57              6657600       0.0%    100.0%      0.0%
 flops    57 x    89 x    20              7508040       0.0%    100.0%      0.0%
 flops    20 x    20 x    89             10395200       0.0%    100.0%      0.0%
 flops    57 x    20 x    57             11176560       0.0%    100.0%      0.0%
 flops    89 x    89 x    20             11723080       0.0%    100.0%      0.0%
 flops    57 x    20 x    89             17451120       0.0%    100.0%      0.0%
 flops    89 x    20 x    57             17451120       0.0%    100.0%      0.0%
 flops   146 x    20 x    20             21257600       0.0%    100.0%      0.0%
 flops   146 x    20 x    57             25298880       0.0%    100.0%      0.0%
 flops    89 x    20 x    89             27248240       0.0%    100.0%      0.0%
 flops   146 x    20 x    89             39501760       0.0%    100.0%      0.0%
 flops inhomo. stacks                           0       0.0%      0.0%      0.0%
 flops total                       205.469720E+06       0.0%    100.0%      0.0%
 flops max/rank                    200.661200E+06       0.0%    100.0%      0.0%
 matmuls inhomo. stacks                         0       0.0%      0.0%      0.0%
 matmuls total                               1393       0.0%    100.0%      0.0%
 number of processed stacks                  1393       0.0%    100.0%      0.0%
 average stack size                                     0.0       1.0       0.0
 marketing flops                   213.210480E+06
 -------------------------------------------------------------------------------
 # multiplications                            841
 max memory usage/rank             587.702272E+06
 # max total images/rank                        3
 # max 3D layers                                1
 # MPI messages exchanged                  807360
 MPI messages size (bytes):
  total size                       437.573696E+06
  min size                           0.000000E+00
  max size                         103.952000E+03
  average size                     541.980896E+00
 MPI breakdown and total messages size (bytes):
             size <=      128              791191                        0
       128 < size <=     8192                4914                 15724800
      8192 < size <=    32768                7691                117968000
     32768 < size <=   131072                3564                303880896
    131072 < size <=  4194304                   0                        0
   4194304 < size <= 16777216                   0                        0
  16777216 < size                               0                        0
 -------------------------------------------------------------------------------

 *** WARNING in dbcsr_mm.F:290 :: Using a non-square number of MPI ranks ***
 *** might lead to poor performance. Used ranks: 48 Suggested: 49 100    ***

 -------------------------------------------------------------------------------
 -                                                                             -
 -                      DBCSR MESSAGE PASSING PERFORMANCE                      -
 -                                                                             -
 -------------------------------------------------------------------------------
 ROUTINE             CALLS      AVE VOLUME [Bytes]
 MP_Bcast               14                     12.
 MP_Allreduce         4503                      8.
 MP_Alltoall          3089                   5486.
 MP_ISend            37610                   1472.
 MP_IRecv            37072                    428.
 -------------------------------------------------------------------------------

 -------------------------------------------------------------------------------
 -                                                                             -
 -                                GRID STATISTICS                              -
 -                                                                             -
 -------------------------------------------------------------------------------
 LP    KERNEL             BACKEND                              COUNT     PERCENT
 2     collocate ortho    REF                                   8510      10.50%
 2     integrate ortho    REF                                   8280      10.21%
 3     collocate ortho    REF                                   7770       9.58%
 3     integrate ortho    REF                                   7560       9.32%
 1     collocate ortho    REF                                   6808       8.40%
 1     integrate ortho    REF                                   6624       8.17%
 4     collocate ortho    REF                                   6253       7.71%
 4     integrate ortho    REF                                   6084       7.50%
 5     collocate ortho    REF                                   3552       4.38%
 5     integrate ortho    REF                                   3456       4.26%
 2     collocate general  REF                                   3456       4.26%
 2     integrate general  REF                                   3456       4.26%
 0     collocate ortho    REF                                   2553       3.15%
 0     integrate ortho    REF                                   2484       3.06%
 6     collocate ortho    REF                                   1480       1.83%
 6     integrate ortho    REF                                   1440       1.78%
 7     collocate ortho    REF                                    555       0.68%
 7     integrate ortho    REF                                    540       0.67%
 8     collocate ortho    REF                                    111       0.14%
 8     integrate ortho    REF                                    108       0.13%
 -------------------------------------------------------------------------------

 MEMORY| Estimated peak process memory [MiB]                                 561

 -------------------------------------------------------------------------------
 -                                                                             -
 -                         MESSAGE PASSING PERFORMANCE                         -
 -                                                                             -
 -------------------------------------------------------------------------------

 ROUTINE             CALLS      AVE VOLUME [Bytes]
 MP_Group                4
 MP_Bcast              840                 274168.
 MP_Allreduce         2546                 355951.
 MP_Sync                88
 MP_Alltoall           812                4816957.
 MP_ISendRecv        10293                 115392.
 MP_Wait             19138
 MP_comm_split          42
 MP_ISend             8120                 283632.
 MP_IRecv             8120                 283676.
 MP_Recv                18                   2336.
 -------------------------------------------------------------------------------


 -------------------------------------------------------------------------------
 -                                                                             -
 -                           R E F E R E N C E S                               -
 -                                                                             -
 -------------------------------------------------------------------------------
 
 CP2K version 10.0 (Development Version), the CP2K developers group (2022).
 CP2K is freely available from https://www.cp2k.org/ .

 Kuehne,Thomas D.; Iannuzzi,Marcella; Del Ben,Mauro;
 Rybkin,Vladimir V.; Seewald,Patrick; Stein,Frederick; Laino,Teodoro;
 Khaliullin,Rustam Z.; Schuett,Ole; Schiffmann,Florian; Golze,Dorothea;
 Wilhelm,Jan; Chulkov,Sergey; Bani-Hashemian,Mohammad Hossein;
 Weber,Valery; Borstnik,Urban; Taillefumier,Mathieu;
 Jakobovits,Alice Shoshana; Lazzaro,Alfio; Pabst,Hans; Mueller,Tiziano;
 Schade,Robert; Guidon,Manuel; Andermatt,Samuel; Holmberg,Nico;
 Schenter,Gregory K.; Hehn,Anna; Bussy,Augustin; Belleflamme,Fabian;
 Tabacchi,Gloria; Gloess,Andreas; Lass,Michael; Bethune,Iain;
 Mundy,Christopher J.; Plessl,Christian; Watkins,Matt;
 VandeVondele,Joost; Krack,Matthias; Hutter,Juerg. 
 The Journal of Chemical Physics, 152 (19), (2020). 
 CP2K: An electronic structure and molecular dynamics software package -
 Quickstep: Efficient and accurate electronic structure calculations.
 https://doi.org/10.1063/5.0007045

 Schuett, Ole; Messmer, Peter; Hutter, Juerg; VandeVondele, Joost. 
 Electronic Structure Calculations on Graphics Processing Units, John
 Wiley & Sons, Ltd, 173-190 (2016). 
 GPU-Accelerated Sparse Matrix-Matrix Multiplication for
 Linear Scaling Density Functional Theory.
 https://doi.org/10.1002/9781118670712.ch8

 Heinecke, A; Henry, G; Hutchinson, M; Pabst, H. 
 Proceedings of Intl. Supercomputing Conference, 981-991 (2016). 
 LIBXSMM: Accelerating Small Matrix Multiplications
 by Runtime Code Generation.
 https://doi.org/10.1109/SC.2016.83

 Borstnik, U; VandeVondele, J; Weber, V; Hutter, J. 
 PARALLEL COMPUTING, 40 (5-6), 47-58 (2014). 
 Sparse matrix multiplication: The distributed block-compressed sparse
 row library.
 https://doi.org/10.1016/j.parco.2014.03.012

 Hutter, J; Iannuzzi, M; Schiffmann, F; VandeVondele, J. 
 WIREs Comput Mol Sci., 4 (1), 15-25 (2014). 
 CP2K: atomistic simulations of condensed matter systems.
 https://doi.org/10.1002/wcms.1159

 Frigo, M; Johnson, SG. 
 PROCEEDINGS OF THE IEEE, 93 (2), 216-231 (2005). 
 The design and implementation of FFTW3.
 https://doi.org/10.1109/JPROC.2004.840301

 VandeVondele, J; Hutter, J. 
 JOURNAL OF CHEMICAL PHYSICS, 118 (10), 4365-4369 (2003). 
 An efficient orbital transformation method for electronic structure
 calculations.
 https://doi.org/10.1063/1.1543154

 Lippert, G; Hutter, J; Parrinello, M. 
 THEORETICAL CHEMISTRY ACCOUNTS, 103 (2), 124-140 (1999). 
 The Gaussian and augmented-plane-wave density functional method for ab
 initio molecular dynamics simulations.
 https://doi.org/10.1007/s002140050523

 Krack, M; Parrinello, M. 
 PHYSICAL CHEMISTRY CHEMICAL PHYSICS, 2 (10), 2105-2112 (2000). 
 All-electron ab-initio molecular dynamics.
 https://doi.org/10.1039/b001167n

 Perdew, JP; Burke, K; Ernzerhof, M. 
 PHYSICAL REVIEW LETTERS, 77 (18), 3865-3868 (1996). 
 Generalized gradient approximation made simple.
 https://doi.org/10.1103/PhysRevLett.77.3865


 -------------------------------------------------------------------------------
 -                                                                             -
 -                                T I M I N G                                  -
 -                                                                             -
 -------------------------------------------------------------------------------
 SUBROUTINE                       CALLS  ASD         SELF TIME        TOTAL TIME
                                MAXIMUM       AVERAGE  MAXIMUM  AVERAGE  MAXIMUM
 CP2K                                 1  1.0    0.012    0.036   78.072   78.073
 qs_energies                          1  2.0    0.000    0.000   77.714   77.715
 scf_env_do_scf                       1  3.0    0.000    0.000   77.302   77.303
 scf_env_do_scf_inner_loop           36  4.0    0.001    0.002   73.327   73.327
 qs_ks_update_qs_env                 38  5.0    0.000    0.000   70.697   70.707
 rebuild_ks_matrix                   36  6.0    0.000    0.000   70.690   70.699
 qs_ks_build_kohn_sham_matrix        36  7.0    0.008    0.010   70.690   70.699
 mp_sum_d                          1520  7.8   33.331   34.234   33.331   34.234
 calculate_vxc_atom                  36  8.0    0.094    1.650   31.579   31.580
 gaVxcgb_GC                          72  9.0    0.607   29.152    0.607   29.152
 prepare_gapw_den                    36  8.0    0.001    0.002   18.871   18.892
 calculate_rho_atom                  72  9.0    4.880   14.492    4.880   14.492
 rs_pw_transfer                     364  9.5    0.009    0.011    9.366    9.500
 pw_transfer                        761 10.1    0.082    0.097    8.133    8.925
 fft_wrap_pw1pw2                    653 11.3    0.009    0.011    7.969    8.755
 fft_wrap_pw1pw2_300                434 12.7    0.509    0.585    7.513    8.295
 fft3d_ps                           653 13.3    2.881    3.291    6.316    7.082
 calculate_rho0_atom                 72  9.0    6.536    6.905    6.536    6.905
 mp_sum_dv                         1070 13.0    4.840    6.703    4.840    6.703
 qs_vxc_create                       36  8.0    0.001    0.001    6.436    6.436
 xc_vxc_pw_create                    36  9.0    0.039    0.044    6.435    6.435
 integrate_vhg0_rspace               36  8.0    0.595    1.152    5.902    5.943
 qs_rho_update_rho                   37  5.0    0.001    0.001    5.643    5.647
 calculate_rho_elec                  37  6.0    0.020    0.022    5.309    5.309
 xc_pw_derive                       216 11.0    0.003    0.003    4.328    5.063
 density_rs2pw                       37  7.0    0.002    0.003    4.158    4.328
 sum_up_and_integrate                36  8.0    0.021    0.025    4.187    4.206
 integrate_v_rspace                  36  9.0    0.001    0.001    4.166    4.186
 mp_alltoall_z22v                   653 15.3    2.762    3.984    2.762    3.984
 init_scf_loop                        2  4.0    0.000    0.000    3.974    3.974
 potential_pw2rs                     36 10.0    0.003    0.003    3.893    3.897
 rs_pw_transfer_PW2RS_300            72 11.0    2.417    2.483    3.766    3.894
 xc_rho_set_and_dset_create          36 10.0    0.050    0.057    3.369    3.822
 rs_pw_transfer_RS2PW_300            73 10.0    2.468    2.614    3.540    3.689
 xc_pw_divergence                    36 10.0    0.001    0.002    2.899    3.656
 mp_sum_dm                          220  7.7    3.490    3.559    3.490    3.559
 yz_to_x                            291 14.1    0.285    0.340    1.718    2.728
 put_rho0_on_grid                    36  9.0    0.023    0.028    2.620    2.641
 Vh_1c_gg_integrals                  36  8.0    0.127    2.208    2.236    2.303
 xc_functional_eval                 180 10.9    0.001    0.001    1.151    2.190
 pbe_lda_eval                       180 11.9    1.150    2.189    1.150    2.189
 mp_waitany                        8120 11.5    1.862    1.994    1.862    1.994
 x_to_yz                            289 14.6    0.335    0.379    1.659    1.806
 mp_waitall_1                     78298 13.9    1.445    1.656    1.445    1.656
 -------------------------------------------------------------------------------

 The number of warnings for this run is : 1
 
 -------------------------------------------------------------------------------
  **** **** ******  **  PROGRAM ENDED AT                 2022-05-13 21:18:47.287
 ***** ** ***  *** **   PROGRAM RAN ON                                   tcopt10
 **    ****   ******    PROGRAM RAN BY                                    hutter
 ***** **    ** ** **   PROGRAM PROCESS ID                                 36781
  **** **  *******  **  PROGRAM STOPPED IN /data/hutter/GITHUB/BASIS/scMOLOPT/PB
                                           E/Ge
