 DBCSR| CPU Multiplication driver                                           XSMM
 DBCSR| Multrec recursion limit                                              512
 DBCSR| Multiplication stack size                                           1000
 DBCSR| Maximum elements for images                                    UNLIMITED
 DBCSR| Multiplicative factor virtual images                                   1
 DBCSR| Use multiplication densification                                       T
 DBCSR| Multiplication size stacks                                             3
 DBCSR| Use memory pool for CPU allocation                                     F
 DBCSR| Number of 3D layers                                               SINGLE
 DBCSR| Use MPI memory allocation                                              F
 DBCSR| Use RMA algorithm                                                      F
 DBCSR| Use Communication thread                                               T
 DBCSR| Communication thread load                                             87
 DBCSR| MPI: My node id                                                        0
 DBCSR| MPI: Number of nodes                                                  48
 DBCSR| OMP: Current number of threads                                         1
 DBCSR| OMP: Max number of threads                                             1
 DBCSR| Split modifier for TAS multiplication algorithm                  1.0E+00


  **** **** ******  **  PROGRAM STARTED AT               2022-06-07 17:32:50.418
 ***** ** ***  *** **   PROGRAM STARTED ON                               tcopt10
 **    ****   ******    PROGRAM STARTED BY                                hutter
 ***** **    ** ** **   PROGRAM PROCESS ID                                 80140
  **** **  *******  **  PROGRAM STARTED IN /data/hutter/GITHUB/BASIS/scMOLOPT/PB
                                           E/Pt

 CP2K| version string:                   CP2K version 10.0 (Development Version)
 CP2K| source code revision number:                                  git:d19b00a
 CP2K| cp2kflags: omp libint fftw3 libxc elpa parallel mpi3 scalapack cosma xsmm
 CP2K|             spglib sirius libvori libbqb
 CP2K| is freely available from                            https://www.cp2k.org/
 CP2K| Program compiled at                      Wed 18 May 2022 12:15:59 PM CEST
 CP2K| Program compiled on                                               tcopt10
 CP2K| Program compiled for                                                local
 CP2K| Data directory path                   /data/hutter/GITHUB/TDLRI/cp2k/data
 CP2K| Input file name                                             PtCO4-ref.inp

 GLOBAL| Force Environment number                                              1
 GLOBAL| Basis set file name                                        ../def2QZVPP
 GLOBAL| Potential file name                                        ../POTENTIAL
 GLOBAL| MM Potential file name                                     MM_POTENTIAL
 GLOBAL| Coordinate file name                                      __STD_INPUT__
 GLOBAL| Method name                                                        CP2K
 GLOBAL| Project name                                                   refPtCO4
 GLOBAL| Run type                                                         ENERGY
 GLOBAL| FFT library                                                       FFTW3
 GLOBAL| Diagonalization library                                            ELPA
 GLOBAL| Minimum number of eigenvectors for ELPA usage                        16
 GLOBAL| Orthonormality check for eigenvectors                          DISABLED
 GLOBAL| Matrix multiplication library                                     COSMA
 GLOBAL| All-to-all communication in single precision                          F
 GLOBAL| FFTs using library dependent lengths                                  F
 GLOBAL| Grid backend                                                       AUTO
 GLOBAL| Global print level                                                  LOW
 GLOBAL| MPI I/O enabled                                                       T
 GLOBAL| Total number of message passing processes                            48
 GLOBAL| Number of threads for this process                                    1
 GLOBAL| This output is from process                                           0
 GLOBAL| Stack size for threads created by OpenMP (OMP_STACKSIZE)        default
 GLOBAL| CPU model name                          AMD EPYC 7401 24-Core Processor
 GLOBAL| CPUID                                                              1002

 MEMORY| system memory details [Kb]
 MEMORY|                        rank 0           min           max       average
 MEMORY| MemTotal            263969132     263969132     263969132     263969132
 MEMORY| MemFree             236068752     236068752     236068752     236068752
 MEMORY| Buffers                  2836          2836          2836          2836
 MEMORY| Cached               20348796      20348796      20348796      20348796
 MEMORY| Slab                  1475924       1475924       1475924       1475924
 MEMORY| SReclaimable           874324        874324        874324        874324
 MEMORY| MemLikelyFree       257294708     257294708     257294708     257294708


 GENERATE|  Preliminary Number of Bonds generated:                             0
 GENERATE|  Achieved consistency in connectivity generation.

 *******************************************************************************
 *******************************************************************************
 **                                                                           **
 **     #####                         ##              ##                      **
 **    ##   ##            ##          ##              ##                      **
 **   ##     ##                       ##            ######                    **
 **   ##     ##  ##   ##  ##   #####  ##  ##   ####   ##    #####    #####    **
 **   ##     ##  ##   ##  ##  ##      ## ##   ##      ##   ##   ##  ##   ##   **
 **   ##  ## ##  ##   ##  ##  ##      ####     ###    ##   ######   ######    **
 **    ##  ###   ##   ##  ##  ##      ## ##      ##   ##   ##       ##        **
 **     #######   #####   ##   #####  ##  ##  ####    ##    #####   ##        **
 **           ##                                                    ##        **
 **                                                                           **
 **                                                ... make the atoms dance   **
 **                                                                           **
 **            Copyright (C) by CP2K developers group (2000-2022)             **
 **                      J. Chem. Phys. 152, 194103 (2020)                    **
 **                                                                           **
 *******************************************************************************


 TOTAL NUMBERS AND MAXIMUM NUMBERS

  Total number of            - Atomic kinds:                                   3
                             - Atoms:                                          9
                             - Shell sets:                                   158
                             - Shells:                                       158
                             - Primitive Cartesian functions:                262
                             - Cartesian basis functions:                    692
                             - Spherical basis functions:                    544

  Maximum angular momentum of- Orbital basis functions:                        4
                             - Local part of the GTH pseudopotential:          2
                             - Non-local part of the GTH pseudopotential:      5


 SCF PARAMETERS         Density guess:                                    ATOMIC
                        --------------------------------------------------------
                        max_scf:                                              20
                        max_scf_history:                                       0
                        max_diis:                                              4
                        --------------------------------------------------------
                        eps_scf:                                        1.00E-07
                        eps_scf_history:                                0.00E+00
                        eps_diis:                                       1.00E-01
                        eps_eigval:                                     1.00E-05
                        --------------------------------------------------------
                        level_shift [a.u.]:                             0.000000
                        --------------------------------------------------------
                        Outer loop SCF in use 
                        No variables optimised in outer loop
                        eps_scf                                         1.00E-07
                        max_scf                                                5
                        No outer loop optimization
                        step_size                                       5.00E-01

 Number of electrons:                                                         74
 Number of occupied orbitals:                                                 37
 Number of molecular orbitals:                                                37

 Number of orbital functions:                                                544
 Number of independent orbital functions:                                    544

 Extrapolation method: initial_guess


 SCF WAVEFUNCTION OPTIMIZATION

  ----------------------------------- OT ---------------------------------------
  Minimizer      : DIIS                : direct inversion
                                         in the iterative subspace
                                         using   7 DIIS vectors
                                         safer DIIS on
  Preconditioner : FULL_ALL            : diagonalization, state selective
  Precond_solver : DEFAULT
  stepsize       :    0.10000000                  energy_gap     :    0.08000000
  eps_taylor     :   0.10000E-15                  max_taylor     :             4
  ----------------------------------- OT ---------------------------------------

  Step     Update method      Time    Convergence         Total energy    Change
  ------------------------------------------------------------------------------
     1 OT DIIS     0.10E+00    0.8     0.10030590      -551.4464309783 -5.51E+02
     2 OT DIIS     0.10E+00    0.9     0.04843155      -566.4509684822 -1.50E+01
     3 OT DIIS     0.10E+00    0.9     0.01728042      -570.9108291231 -4.46E+00
     4 OT DIIS     0.10E+00    0.9     0.01148191      -571.3968440600 -4.86E-01
     5 OT DIIS     0.10E+00    0.9     0.00799728      -571.6435792760 -2.47E-01
     6 OT DIIS     0.10E+00    0.9     0.00619517      -571.9314407376 -2.88E-01
     7 OT DIIS     0.10E+00    0.9     0.00514767      -572.1281787940 -1.97E-01
     8 OT DIIS     0.10E+00    0.9     0.00437655      -572.2962370832 -1.68E-01
     9 OT DIIS     0.10E+00    0.9     0.00395598      -572.4159090970 -1.20E-01
    10 OT DIIS     0.10E+00    0.9     0.00360354      -572.5505281651 -1.35E-01
    11 OT DIIS     0.10E+00    0.9     0.00328279      -572.6493529554 -9.88E-02
    12 OT DIIS     0.10E+00    0.9     0.00335283      -572.7030525102 -5.37E-02
    13 OT DIIS     0.10E+00    0.9     0.00296158      -572.7680375016 -6.50E-02
    14 OT DIIS     0.10E+00    0.9     0.00240196      -572.8698682801 -1.02E-01
    15 OT DIIS     0.10E+00    0.9     0.00195753      -572.9426555101 -7.28E-02
    16 OT DIIS     0.10E+00    0.9     0.00160246      -572.9937278161 -5.11E-02
    17 OT DIIS     0.10E+00    0.9     0.00223913      -572.9893739276  4.35E-03
    18 OT DIIS     0.10E+00    0.9     0.00169807      -573.0178956361 -2.85E-02
    19 OT DIIS     0.10E+00    0.9     0.00137231      -573.0242957186 -6.40E-03
    20 OT DIIS     0.10E+00    0.9     0.00092795      -573.0454547630 -2.12E-02

  Leaving inner SCF loop after reaching    20 steps.


  Electronic density on regular grids:        -59.7375302177       14.2624697823
  Core density on regular grids:               74.0000000000        0.0000000000
  Hard and soft densities (Lebedev):         -160.4789507945     -146.2164911418
  Total Rho_soft + Rho1_hard - Rho1_soft      -73.9999898704
  Total charge density (r-space):               0.0000101296
  Total Rho_soft + Rho0_soft (g-space):         0.0000095203

  Overlap energy of the core charge distribution:               0.00002985660408
  Self energy of the core charge distribution:               -590.80179691384046
  Core Hamiltonian energy:                                    -16.26202457159783
  Hartree energy:                                             257.88757477898309
  Exchange-correlation energy:                                -34.07654489289334

  GAPW| Exc from hard and soft atomic rho1:                   -32.71176207246175
  GAPW| local Eh = 1 center integrals:                       -157.08093094779710

  Total energy:                                              -573.04545476300336

  outer SCF iter =    1 RMS gradient =   0.93E-03 energy =       -573.0454547630

  ----------------------------------- OT ---------------------------------------
  Minimizer      : DIIS                : direct inversion
                                         in the iterative subspace
                                         using   7 DIIS vectors
                                         safer DIIS on
  Preconditioner : FULL_ALL            : diagonalization, state selective
  Precond_solver : DEFAULT
  stepsize       :    0.10000000                  energy_gap     :    0.08000000
  eps_taylor     :   0.10000E-15                  max_taylor     :             4
  ----------------------------------- OT ---------------------------------------

  Step     Update method      Time    Convergence         Total energy    Change
  ------------------------------------------------------------------------------
     1 OT DIIS     0.10E+00    1.9     0.00252099      -573.0531078998 -7.65E-03
     2 OT DIIS     0.10E+00    0.9     0.00149210      -573.0630893648 -9.98E-03
     3 OT DIIS     0.10E+00    0.9     0.00125847      -573.0673974891 -4.31E-03
     4 OT DIIS     0.10E+00    0.9     0.00018900      -573.0682051625 -8.08E-04
     5 OT DIIS     0.10E+00    0.9     0.00009405      -573.0682391478 -3.40E-05
     6 OT DIIS     0.10E+00    0.9     0.00003179      -573.0682476826 -8.53E-06
     7 OT DIIS     0.10E+00    0.9     0.00001081      -573.0682485350 -8.52E-07
     8 OT DIIS     0.10E+00    0.9     0.00000382      -573.0682486595 -1.25E-07
     9 OT DIIS     0.10E+00    0.9     0.00000141      -573.0682486828 -2.33E-08
    10 OT DIIS     0.10E+00    0.9     0.00000052      -573.0682486857 -2.93E-09
    11 OT DIIS     0.10E+00    0.9     0.00000022      -573.0682486862 -4.70E-10
    12 OT DIIS     0.10E+00    0.9     0.00000008      -573.0682486863 -7.59E-11

  *** SCF run converged in    12 steps ***


  Electronic density on regular grids:        -59.7339161512       14.2660838488
  Core density on regular grids:               74.0000000000        0.0000000000
  Hard and soft densities (Lebedev):         -160.2834347793     -146.0173611458
  Total Rho_soft + Rho1_hard - Rho1_soft      -73.9999897847
  Total charge density (r-space):               0.0000102153
  Total Rho_soft + Rho0_soft (g-space):         0.0000096061

  Overlap energy of the core charge distribution:               0.00002985660408
  Self energy of the core charge distribution:               -590.80179691384046
  Core Hamiltonian energy:                                    -16.32971252057680
  Hartree energy:                                             257.92892487462228
  Exchange-correlation energy:                                -34.06380825334826

  GAPW| Exc from hard and soft atomic rho1:                   -32.71603621068618
  GAPW| local Eh = 1 center integrals:                       -157.08584951905951

  Total energy:                                              -573.06824868628485

  outer SCF iter =    2 RMS gradient =   0.78E-07 energy =       -573.0682486863
  outer SCF loop converged in   2 iterations or   32 steps


 ENERGY| Total FORCE_EVAL ( QS ) energy [a.u.]:             -573.068248686284846

 -------------------------------------------------------------------------------
 -                                                                             -
 -                                DBCSR STATISTICS                             -
 -                                                                             -
 -------------------------------------------------------------------------------
 COUNTER                                    TOTAL       BLAS       SMM       ACC
 flops    88 x     5 x     5                 8800       0.0%    100.0%      0.0%
 flops    57 x     5 x     5                45600       0.0%    100.0%      0.0%
 flops     5 x     5 x     5                70750       0.0%    100.0%      0.0%
 flops    88 x    32 x    32               360448       0.0%    100.0%      0.0%
 flops     5 x     5 x    32               452800       0.0%    100.0%      0.0%
 flops     5 x    32 x     5               452800       0.0%    100.0%      0.0%
 flops    32 x     5 x     5               452800       0.0%    100.0%      0.0%
 flops     5 x     5 x    88               572000       0.0%    100.0%      0.0%
 flops   202 x     5 x     5              1616000       0.0%    100.0%      0.0%
 flops    57 x    32 x    32              1867776       0.0%    100.0%      0.0%
 flops    88 x    88 x     5              2555520       0.0%    100.0%      0.0%
 flops   114 x     5 x     5              2736000       0.0%    100.0%      0.0%
 flops    32 x    32 x     5              2897920       0.0%    100.0%      0.0%
 flops     5 x    32 x    32              2897920       0.0%    100.0%      0.0%
 flops    32 x     5 x    32              2897920       0.0%    100.0%      0.0%
 flops     5 x     5 x    57              2964000       0.0%    100.0%      0.0%
 flops     5 x    32 x    88              3660800       0.0%    100.0%      0.0%
 flops    32 x     5 x    88              3660800       0.0%    100.0%      0.0%
 flops    88 x     5 x    88              6040320       0.0%    100.0%      0.0%
 flops    57 x    88 x     5              6621120       0.0%    100.0%      0.0%
 flops    88 x    57 x     5              6621120       0.0%    100.0%      0.0%
 flops   202 x    32 x     5             10342400       0.0%    100.0%      0.0%
 flops   202 x     5 x    32             10342400       0.0%    100.0%      0.0%
 flops   202 x     5 x    88             12087680       0.0%    100.0%      0.0%
 flops    88 x    88 x    32             16355328       0.0%    100.0%      0.0%
 flops   114 x     5 x    32             17510400       0.0%    100.0%      0.0%
 flops   114 x    32 x     5             17510400       0.0%    100.0%      0.0%
 flops    32 x    32 x    32             18546688       0.0%    100.0%      0.0%
 flops     5 x    32 x    57             18969600       0.0%    100.0%      0.0%
 flops    32 x     5 x    57             18969600       0.0%    100.0%      0.0%
 flops   114 x     5 x    88             20465280       0.0%    100.0%      0.0%
 flops    32 x    32 x    88             23429120       0.0%    100.0%      0.0%
 flops    57 x     5 x    88             31299840       0.0%    100.0%      0.0%
 flops    88 x     5 x    57             31299840       0.0%    100.0%      0.0%
 flops    57 x    57 x     5             38598120       0.0%    100.0%      0.0%
 flops    88 x    32 x    88             38658048       0.0%    100.0%      0.0%
 flops    57 x    88 x    32             42375168       0.0%    100.0%      0.0%
 flops    88 x    57 x    32             42375168       0.0%    100.0%      0.0%
 flops   202 x     5 x    57             62636160       0.0%    100.0%      0.0%
 flops   202 x    32 x    32             66191360       0.0%    100.0%      0.0%
 flops   202 x    32 x    88             77361152       0.0%    100.0%      0.0%
 flops   114 x     5 x    57            106047360       0.0%    100.0%      0.0%
 flops   114 x    32 x    32            112066560       0.0%    100.0%      0.0%
 flops    32 x    32 x    57            121405440       0.0%    100.0%      0.0%
 flops   114 x    32 x    88            130977792       0.0%    100.0%      0.0%
 flops    57 x     5 x    57            162190080       0.0%    100.0%      0.0%
 flops    57 x    32 x    88            200318976       0.0%    100.0%      0.0%
 flops    88 x    32 x    57            200318976       0.0%    100.0%      0.0%
 flops    57 x    57 x    32            247027968       0.0%    100.0%      0.0%
 flops   202 x    32 x    57            400871424       0.0%    100.0%      0.0%
 flops   114 x    32 x    57            678703104       0.0%    100.0%      0.0%
 flops    57 x    32 x    57           1038016512       0.0%    100.0%      0.0%
 flops inhomo. stacks                           0       0.0%      0.0%      0.0%
 flops total                         4.062721E+09       0.0%    100.0%      0.0%
 flops max/rank                      1.301594E+09       0.0%    100.0%      0.0%
 matmuls inhomo. stacks                         0       0.0%      0.0%      0.0%
 matmuls total                              30042       0.0%    100.0%      0.0%
 number of processed stacks                 23882       0.0%    100.0%      0.0%
 average stack size                                     0.0       1.3       0.0
 marketing flops                     4.386563E+09
 -------------------------------------------------------------------------------
 # multiplications                            756
 max memory usage/rank             386.064384E+06
 # max total images/rank                        3
 # max 3D layers                                1
 # MPI messages exchanged                  725760
 MPI messages size (bytes):
  total size                         4.575815E+09
  min size                           0.000000E+00
  max size                         142.208000E+03
  average size                       6.304859E+03
 MPI breakdown and total messages size (bytes):
             size <=      128              590578                        0
       128 < size <=     8192               47573                146662656
      8192 < size <=    32768               27648                516044288
     32768 < size <=   131072               58355               3684721920
    131072 < size <=  4194304                1606                228386048
   4194304 < size <= 16777216                   0                        0
  16777216 < size                               0                        0
 -------------------------------------------------------------------------------

 *** WARNING in dbcsr_mm.F:290 :: Using a non-square number of MPI ranks ***
 *** might lead to poor performance. Used ranks: 48 Suggested: 49 100    ***

 -------------------------------------------------------------------------------
 -                                                                             -
 -                      DBCSR MESSAGE PASSING PERFORMANCE                      -
 -                                                                             -
 -------------------------------------------------------------------------------
 ROUTINE             CALLS      AVE VOLUME [Bytes]
 MP_Bcast               53                     12.
 MP_Allreduce         4120                      9.
 MP_Alltoall          2803                   7616.
 MP_ISend            34200                   6110.
 MP_IRecv            33796                   4659.
 -------------------------------------------------------------------------------

 -------------------------------------------------------------------------------
 -                                                                             -
 -                                GRID STATISTICS                              -
 -                                                                             -
 -------------------------------------------------------------------------------
 LP    KERNEL             BACKEND                              COUNT     PERCENT
 2     collocate ortho    REF                                  93225      11.42%
 2     integrate ortho    REF                                  90400      11.07%
 3     collocate ortho    REF                                  81708      10.01%
 3     integrate ortho    REF                                  79232       9.70%
 1     collocate ortho    REF                                  78738       9.64%
 1     integrate ortho    REF                                  76352       9.35%
 4     collocate ortho    REF                                  60654       7.43%
 4     integrate ortho    REF                                  58816       7.20%
 5     collocate ortho    REF                                  35508       4.35%
 5     integrate ortho    REF                                  34432       4.22%
 0     collocate ortho    REF                                  27951       3.42%
 0     integrate ortho    REF                                  27104       3.32%
 6     collocate ortho    REF                                  15312       1.88%
 6     integrate ortho    REF                                  14848       1.82%
 2     collocate general  REF                                  13824       1.69%
 2     integrate general  REF                                  13824       1.69%
 7     collocate ortho    REF                                   5808       0.71%
 7     integrate ortho    REF                                   5632       0.69%
 8     collocate ortho    REF                                   1650       0.20%
 8     integrate ortho    REF                                   1600       0.20%
 -------------------------------------------------------------------------------

 MEMORY| Estimated peak process memory [MiB]                                 369

 -------------------------------------------------------------------------------
 -                                                                             -
 -                         MESSAGE PASSING PERFORMANCE                         -
 -                                                                             -
 -------------------------------------------------------------------------------

 ROUTINE             CALLS      AVE VOLUME [Bytes]
 MP_Group                4
 MP_Bcast             2127                 207005.
 MP_Allreduce         5141                  95856.
 MP_Sync                78
 MP_Alltoall           724                3793523.
 MP_ISendRecv         9165                 115392.
 MP_Wait             17034
 MP_comm_split          37
 MP_ISend             7224                 252157.
 MP_IRecv             7224                 252203.
 MP_Recv                18                  17408.
 -------------------------------------------------------------------------------


 -------------------------------------------------------------------------------
 -                                                                             -
 -                           R E F E R E N C E S                               -
 -                                                                             -
 -------------------------------------------------------------------------------
 
 CP2K version 10.0 (Development Version), the CP2K developers group (2022).
 CP2K is freely available from https://www.cp2k.org/ .

 Kuehne,Thomas D.; Iannuzzi,Marcella; Del Ben,Mauro;
 Rybkin,Vladimir V.; Seewald,Patrick; Stein,Frederick; Laino,Teodoro;
 Khaliullin,Rustam Z.; Schuett,Ole; Schiffmann,Florian; Golze,Dorothea;
 Wilhelm,Jan; Chulkov,Sergey; Bani-Hashemian,Mohammad Hossein;
 Weber,Valery; Borstnik,Urban; Taillefumier,Mathieu;
 Jakobovits,Alice Shoshana; Lazzaro,Alfio; Pabst,Hans; Mueller,Tiziano;
 Schade,Robert; Guidon,Manuel; Andermatt,Samuel; Holmberg,Nico;
 Schenter,Gregory K.; Hehn,Anna; Bussy,Augustin; Belleflamme,Fabian;
 Tabacchi,Gloria; Gloess,Andreas; Lass,Michael; Bethune,Iain;
 Mundy,Christopher J.; Plessl,Christian; Watkins,Matt;
 VandeVondele,Joost; Krack,Matthias; Hutter,Juerg. 
 The Journal of Chemical Physics, 152 (19), (2020). 
 CP2K: An electronic structure and molecular dynamics software package -
 Quickstep: Efficient and accurate electronic structure calculations.
 https://doi.org/10.1063/5.0007045

 Schuett, Ole; Messmer, Peter; Hutter, Juerg; VandeVondele, Joost. 
 Electronic Structure Calculations on Graphics Processing Units, John
 Wiley & Sons, Ltd, 173-190 (2016). 
 GPU-Accelerated Sparse Matrix-Matrix Multiplication for
 Linear Scaling Density Functional Theory.
 https://doi.org/10.1002/9781118670712.ch8

 Heinecke, A; Henry, G; Hutchinson, M; Pabst, H. 
 Proceedings of Intl. Supercomputing Conference, 981-991 (2016). 
 LIBXSMM: Accelerating Small Matrix Multiplications
 by Runtime Code Generation.
 https://doi.org/10.1109/SC.2016.83

 Borstnik, U; VandeVondele, J; Weber, V; Hutter, J. 
 PARALLEL COMPUTING, 40 (5-6), 47-58 (2014). 
 Sparse matrix multiplication: The distributed block-compressed sparse
 row library.
 https://doi.org/10.1016/j.parco.2014.03.012

 Hutter, J; Iannuzzi, M; Schiffmann, F; VandeVondele, J. 
 WIREs Comput Mol Sci., 4 (1), 15-25 (2014). 
 CP2K: atomistic simulations of condensed matter systems.
 https://doi.org/10.1002/wcms.1159

 Marek, A; Blum, V; Johanni, R; Havu, V; Lang, B; Auckenthaler, T;
 Heinecke, A; Bungartz, H; Lederer, H. 
 Journal of Physics: Condensed Matter, 26 (21), (2014). 
 The ELPA library: scalable parallel eigenvalue solutions for
 electronic structure
 theory and computational science.
 https://doi.org/10.1088/0953-8984/26/21/213201

 Krack, M. 
 THEORETICAL CHEMISTRY ACCOUNTS, 114 (1-3), 145-152 (2005). 
 Pseudopotentials for H to Kr optimized for gradient-corrected
 exchange-correlation functionals.
 https://doi.org/10.1007/s00214-005-0655-y

 Frigo, M; Johnson, SG. 
 PROCEEDINGS OF THE IEEE, 93 (2), 216-231 (2005). 
 The design and implementation of FFTW3.
 https://doi.org/10.1109/JPROC.2004.840301

 VandeVondele, J; Hutter, J. 
 JOURNAL OF CHEMICAL PHYSICS, 118 (10), 4365-4369 (2003). 
 An efficient orbital transformation method for electronic structure
 calculations.
 https://doi.org/10.1063/1.1543154

 Lippert, G; Hutter, J; Parrinello, M. 
 THEORETICAL CHEMISTRY ACCOUNTS, 103 (2), 124-140 (1999). 
 The Gaussian and augmented-plane-wave density functional method for ab
 initio molecular dynamics simulations.
 https://doi.org/10.1007/s002140050523

 Krack, M; Parrinello, M. 
 PHYSICAL CHEMISTRY CHEMICAL PHYSICS, 2 (10), 2105-2112 (2000). 
 All-electron ab-initio molecular dynamics.
 https://doi.org/10.1039/b001167n

 Hartwigsen, C; Goedecker, S; Hutter, J. 
 PHYSICAL REVIEW B, 58 (7), 3641-3662 (1998). 
 Relativistic separable dual-space Gaussian pseudopotentials from H to Rn.
 https://doi.org/10.1103/PhysRevB.58.3641

 Perdew, JP; Burke, K; Ernzerhof, M. 
 PHYSICAL REVIEW LETTERS, 77 (18), 3865-3868 (1996). 
 Generalized gradient approximation made simple.
 https://doi.org/10.1103/PhysRevLett.77.3865

 Goedecker, S; Teter, M; Hutter, J. 
 PHYSICAL REVIEW B, 54 (3), 1703-1710 (1996). 
 Separable dual-space Gaussian pseudopotentials.
 https://doi.org/10.1103/PhysRevB.54.1703


 -------------------------------------------------------------------------------
 -                                                                             -
 -                                T I M I N G                                  -
 -                                                                             -
 -------------------------------------------------------------------------------
 SUBROUTINE                       CALLS  ASD         SELF TIME        TOTAL TIME
                                MAXIMUM       AVERAGE  MAXIMUM  AVERAGE  MAXIMUM
 CP2K                                 1  1.0    0.007    0.031   30.652   30.654
 qs_energies                          1  2.0    0.000    0.000   30.358   30.360
 scf_env_do_scf                       1  3.0    0.000    0.000   29.482   29.484
 scf_env_do_scf_inner_loop           32  4.0    0.001    0.002   27.875   27.876
 qs_ks_update_qs_env                 34  5.0    0.000    0.001   23.173   23.185
 rebuild_ks_matrix                   32  6.0    0.000    0.000   23.167   23.178
 qs_ks_build_kohn_sham_matrix        32  7.0    0.007    0.008   23.167   23.178
 rs_pw_transfer                     324  9.5    0.009    0.011    7.282    7.505
 pw_transfer                        677 10.1    0.075    0.093    6.975    7.481
 fft_wrap_pw1pw2                    581 11.3    0.008    0.011    6.827    7.329
 fft_wrap_pw1pw2_300                386 12.7    0.448    0.521    6.380    6.896
 prepare_gapw_den                    32  8.0    0.001    0.002    6.226    6.248
 qs_vxc_create                       32  8.0    0.001    0.001    5.953    5.953
 xc_vxc_pw_create                    32  9.0    0.037    0.045    5.952    5.952
 fft3d_ps                           581 13.3    2.629    3.077    5.357    5.926
 qs_rho_update_rho                   33  5.0    0.001    0.001    5.124    5.127
 calculate_rho_elec                  33  6.0    0.018    0.019    4.653    4.654
 xc_pw_derive                       192 11.0    0.002    0.003    3.744    4.357
 sum_up_and_integrate                32  8.0    0.016    0.020    3.950    3.954
 integrate_v_rspace                  32  9.0    0.001    0.001    3.934    3.941
 density_rs2pw                       33  7.0    0.002    0.002    3.371    3.548
 xc_rho_set_and_dset_create          32 10.0    0.045    0.055    3.126    3.368
 integrate_vhg0_rspace               32  8.0    0.547    0.652    3.355    3.366
 xc_pw_divergence                    32 10.0    0.001    0.001    2.630    3.232
 mp_alltoall_z22v                   581 15.3    2.126    3.221    2.126    3.221
 potential_pw2rs                     32 10.0    0.002    0.003    3.215    3.219
 mp_sum_d                          1822  8.5    2.623    3.054    2.623    3.054
 rs_pw_transfer_PW2RS_300            64 11.0    1.758    1.832    2.816    2.932
 calculate_rho0_atom                 96  9.0    2.449    2.895    2.449    2.895
 rs_pw_transfer_RS2PW_300            65 10.0    1.744    1.920    2.656    2.874
 calculate_rho_atom                  96  9.0    1.200    2.842    1.200    2.842
 yz_to_x                            259 14.1    0.257    0.356    1.554    2.439
 calculate_vxc_atom                  32  8.0    0.037    0.257    2.119    2.120
 put_rho0_on_grid                    32  9.0    0.025    0.035    2.097    2.119
 mp_sum_dm                          882  7.7    1.623    1.803    1.623    1.803
 mp_waitany                        7224 11.5    1.497    1.778    1.497    1.778
 gaVxcgb_GC                          64  9.0    0.176    1.741    0.176    1.741
 xc_functional_eval                 160 10.7    0.001    0.001    1.332    1.625
 pbe_lda_eval                       160 11.7    1.331    1.624    1.331    1.624
 init_scf_loop                        2  4.0    0.000    0.000    1.606    1.606
 mp_waitall_1                     70290 13.9    1.400    1.578    1.400    1.578
 dbcsr_multiply_generic             756 10.1    0.022    0.023    1.217    1.271
 mp_sum_dv                         2682 13.1    0.494    1.254    0.494    1.254
 x_to_yz                            257 14.6    0.299    0.341    1.124    1.248
 grid_collocate_task_list            33  7.0    1.093    1.245    1.093    1.245
 qs_scf_new_mos                      32  5.0    0.000    0.000    1.121    1.128
 qs_scf_loop_do_ot                   32  6.0    0.000    0.000    1.121    1.128
 ot_scf_mini                         32  7.0    0.000    0.001    1.080    1.087
 rs_pw_transfer_PW2RS_100            32 12.0    0.176    0.202    0.827    0.919
 grid_integrate_task_list            32 10.0    0.564    0.714    0.564    0.714
 qs_energies_init_hamiltonians        1  3.0    0.000    0.000    0.694    0.694
 build_core_hamiltonian_matrix        1  4.0    0.000    0.000    0.171    0.688
 ot_mini                             32  8.0    0.000    0.000    0.668    0.675
 rs_grid_zero                       128 10.8    0.654    0.674    0.654    0.674
 qs_env_update_s_mstruct              1  4.0    0.000    0.000    0.522    0.673
 qs_create_task_list                  1  5.0    0.000    0.000    0.521    0.673
 generate_qs_task_list                1  6.0    0.000    0.002    0.521    0.673
 distribute_tasks                     1  7.0    0.000    0.000    0.521    0.673
 get_current_loads                   10  8.8    0.000    0.000    0.520    0.671
 load_balance_distributed             1  8.0    0.000    0.000    0.520    0.671
 mp_alltoall_l                       11  9.7    0.519    0.671    0.519    0.671
 compute_load_list                    2  9.0    0.000    0.000    0.519    0.671
 -------------------------------------------------------------------------------

 The number of warnings for this run is : 1
 
 -------------------------------------------------------------------------------
  **** **** ******  **  PROGRAM ENDED AT                 2022-06-07 17:33:21.499
 ***** ** ***  *** **   PROGRAM RAN ON                                   tcopt10
 **    ****   ******    PROGRAM RAN BY                                    hutter
 ***** **    ** ** **   PROGRAM PROCESS ID                                 80140
  **** **  *******  **  PROGRAM STOPPED IN /data/hutter/GITHUB/BASIS/scMOLOPT/PB
                                           E/Pt
