 DBCSR| CPU Multiplication driver                                           XSMM
 DBCSR| Multrec recursion limit                                              512
 DBCSR| Multiplication stack size                                           1000
 DBCSR| Maximum elements for images                                    UNLIMITED
 DBCSR| Multiplicative factor virtual images                                   1
 DBCSR| Use multiplication densification                                       T
 DBCSR| Multiplication size stacks                                             3
 DBCSR| Use memory pool for CPU allocation                                     F
 DBCSR| Number of 3D layers                                               SINGLE
 DBCSR| Use MPI memory allocation                                              F
 DBCSR| Use RMA algorithm                                                      F
 DBCSR| Use Communication thread                                               T
 DBCSR| Communication thread load                                             87
 DBCSR| MPI: My node id                                                        0
 DBCSR| MPI: Number of nodes                                                  48
 DBCSR| OMP: Current number of threads                                         1
 DBCSR| OMP: Max number of threads                                             1
 DBCSR| Split modifier for TAS multiplication algorithm                  1.0E+00


  **** **** ******  **  PROGRAM STARTED AT               2022-06-07 17:34:53.365
 ***** ** ***  *** **   PROGRAM STARTED ON                               tcopt10
 **    ****   ******    PROGRAM STARTED BY                                hutter
 ***** **    ** ** **   PROGRAM PROCESS ID                                 80635
  **** **  *******  **  PROGRAM STARTED IN /data/hutter/GITHUB/BASIS/scMOLOPT/PB
                                           E/Pt

 CP2K| version string:                   CP2K version 10.0 (Development Version)
 CP2K| source code revision number:                                  git:d19b00a
 CP2K| cp2kflags: omp libint fftw3 libxc elpa parallel mpi3 scalapack cosma xsmm
 CP2K|             spglib sirius libvori libbqb
 CP2K| is freely available from                            https://www.cp2k.org/
 CP2K| Program compiled at                      Wed 18 May 2022 12:15:59 PM CEST
 CP2K| Program compiled on                                               tcopt10
 CP2K| Program compiled for                                                local
 CP2K| Data directory path                   /data/hutter/GITHUB/TDLRI/cp2k/data
 CP2K| Input file name                                               PtO-ref.inp

 GLOBAL| Force Environment number                                              1
 GLOBAL| Basis set file name                                        ../def2QZVPP
 GLOBAL| Potential file name                                        ../POTENTIAL
 GLOBAL| MM Potential file name                                     MM_POTENTIAL
 GLOBAL| Coordinate file name                                      __STD_INPUT__
 GLOBAL| Method name                                                        CP2K
 GLOBAL| Project name                                                     refPtO
 GLOBAL| Run type                                                         ENERGY
 GLOBAL| FFT library                                                       FFTW3
 GLOBAL| Diagonalization library                                            ELPA
 GLOBAL| Minimum number of eigenvectors for ELPA usage                        16
 GLOBAL| Orthonormality check for eigenvectors                          DISABLED
 GLOBAL| Matrix multiplication library                                     COSMA
 GLOBAL| All-to-all communication in single precision                          F
 GLOBAL| FFTs using library dependent lengths                                  F
 GLOBAL| Grid backend                                                       AUTO
 GLOBAL| Global print level                                                  LOW
 GLOBAL| MPI I/O enabled                                                       T
 GLOBAL| Total number of message passing processes                            48
 GLOBAL| Number of threads for this process                                    1
 GLOBAL| This output is from process                                           0
 GLOBAL| Stack size for threads created by OpenMP (OMP_STACKSIZE)        default
 GLOBAL| CPU model name                          AMD EPYC 7401 24-Core Processor
 GLOBAL| CPUID                                                              1002

 MEMORY| system memory details [Kb]
 MEMORY|                        rank 0           min           max       average
 MEMORY| MemTotal            263969132     263969132     263969132     263969132
 MEMORY| MemFree             236080460     236080460     236080460     236080460
 MEMORY| Buffers                  2836          2836          2836          2836
 MEMORY| Cached               20350008      20350008      20350008      20350008
 MEMORY| Slab                  1478204       1478204       1478204       1478204
 MEMORY| SReclaimable           874228        874228        874228        874228
 MEMORY| MemLikelyFree       257307532     257307532     257307532     257307532


 GENERATE|  Preliminary Number of Bonds generated:                             0
 GENERATE|  Achieved consistency in connectivity generation.

 *******************************************************************************
 *******************************************************************************
 **                                                                           **
 **     #####                         ##              ##                      **
 **    ##   ##            ##          ##              ##                      **
 **   ##     ##                       ##            ######                    **
 **   ##     ##  ##   ##  ##   #####  ##  ##   ####   ##    #####    #####    **
 **   ##     ##  ##   ##  ##  ##      ## ##   ##      ##   ##   ##  ##   ##   **
 **   ##  ## ##  ##   ##  ##  ##      ####     ###    ##   ######   ######    **
 **    ##  ###   ##   ##  ##  ##      ## ##      ##   ##   ##       ##        **
 **     #######   #####   ##   #####  ##  ##  ####    ##    #####   ##        **
 **           ##                                                    ##        **
 **                                                                           **
 **                                                ... make the atoms dance   **
 **                                                                           **
 **            Copyright (C) by CP2K developers group (2000-2022)             **
 **                      J. Chem. Phys. 152, 194103 (2020)                    **
 **                                                                           **
 *******************************************************************************


 TOTAL NUMBERS AND MAXIMUM NUMBERS

  Total number of            - Atomic kinds:                                   2
                             - Atoms:                                          2
                             - Shell sets:                                    39
                             - Shells:                                        39
                             - Primitive Cartesian functions:                 59
                             - Cartesian basis functions:                    188
                             - Spherical basis functions:                    145

  Maximum angular momentum of- Orbital basis functions:                        4
                             - Local part of the GTH pseudopotential:          2
                             - Non-local part of the GTH pseudopotential:      5


 SCF PARAMETERS         Density guess:                                    ATOMIC
                        --------------------------------------------------------
                        max_scf:                                              20
                        max_scf_history:                                       0
                        max_diis:                                              4
                        --------------------------------------------------------
                        eps_scf:                                        1.00E-07
                        eps_scf_history:                                0.00E+00
                        eps_diis:                                       1.00E-01
                        eps_eigval:                                     1.00E-05
                        --------------------------------------------------------
                        level_shift [a.u.]:                             0.000000
                        --------------------------------------------------------
                        Outer loop SCF in use 
                        No variables optimised in outer loop
                        eps_scf                                         1.00E-07
                        max_scf                                                5
                        No outer loop optimization
                        step_size                                       5.00E-01

 Spin 1

 Number of electrons:                                                         14
 Number of occupied orbitals:                                                 14
 Number of molecular orbitals:                                                14

 Spin 2

 Number of electrons:                                                         12
 Number of occupied orbitals:                                                 12
 Number of molecular orbitals:                                                12

 Number of orbital functions:                                                145
 Number of independent orbital functions:                                    145

 Extrapolation method: initial_guess


 SCF WAVEFUNCTION OPTIMIZATION

  ----------------------------------- OT ---------------------------------------
  Minimizer      : DIIS                : direct inversion
                                         in the iterative subspace
                                         using   7 DIIS vectors
                                         safer DIIS on
  Preconditioner : FULL_ALL            : diagonalization, state selective
  Precond_solver : DEFAULT
  stepsize       :    0.10000000                  energy_gap     :    0.08000000
  eps_taylor     :   0.10000E-15                  max_taylor     :             4
  ----------------------------------- OT ---------------------------------------

  Step     Update method      Time    Convergence         Total energy    Change
  ------------------------------------------------------------------------------
     1 OT DIIS     0.10E+00    1.2     0.19699033      -184.0220614328 -1.84E+02
     2 OT DIIS     0.10E+00    1.5     0.04713887      -193.2567899183 -9.23E+00
     3 OT DIIS     0.10E+00    1.4     0.03092882      -193.9767686257 -7.20E-01
     4 OT DIIS     0.10E+00    1.4     0.01485620      -194.5220562866 -5.45E-01
     5 OT DIIS     0.10E+00    1.4     0.01356387      -194.6086355778 -8.66E-02
     6 OT DIIS     0.10E+00    1.4     0.00677137      -194.7038423030 -9.52E-02
     7 OT DIIS     0.10E+00    1.4     0.00427913      -194.7198333991 -1.60E-02
     8 OT DIIS     0.10E+00    1.4     0.00426908      -194.7467242085 -2.69E-02
     9 OT DIIS     0.10E+00    1.4     0.00299867      -194.7494650781 -2.74E-03
    10 OT DIIS     0.10E+00    1.4     0.00267981      -194.7603990045 -1.09E-02
    11 OT DIIS     0.10E+00    1.4     0.00232894      -194.7744175099 -1.40E-02
    12 OT DIIS     0.10E+00    1.5     0.00243692      -194.7951397712 -2.07E-02
    13 OT DIIS     0.10E+00    1.4     0.00188442      -194.7977114886 -2.57E-03
    14 OT SD       0.10E+00    1.4     0.00189417      -194.8126783240 -1.50E-02
    15 OT DIIS     0.10E+00    1.4     0.00178804      -194.8139358005 -1.26E-03
    16 OT DIIS     0.10E+00    1.4     0.00175064      -194.8151190741 -1.18E-03
    17 OT SD       0.10E+00    1.4     0.00183037      -194.8223964720 -7.28E-03
    18 OT DIIS     0.10E+00    1.4     0.00174148      -194.8235832168 -1.19E-03
    19 OT SD       0.10E+00    1.4     0.00193641      -194.8353038771 -1.17E-02
    20 OT SD       0.10E+00    1.4     0.00179935      -194.8366102725 -1.31E-03

  Leaving inner SCF loop after reaching    20 steps.


  Electronic density on regular grids:        -26.1965015541       -0.1965015541
  Core density on regular grids:               26.0000000000        0.0000000000
  Hard and soft densities (Lebedev):          -36.5006284102      -36.6971299080
  Total Rho_soft + Rho1_hard - Rho1_soft      -26.0000000562
  Total charge density (r-space):              -0.0000000562
  Total Rho_soft + Rho0_soft (g-space):        -0.0000003094

  Overlap energy of the core charge distribution:               0.00000009250755
  Self energy of the core charge distribution:               -255.62044975403003
  Core Hamiltonian energy:                                     33.44899053888201
  Hartree energy:                                             189.05331835835196
  Exchange-correlation energy:                                -17.63792810090828

  GAPW| Exc from hard and soft atomic rho1:                    -2.44949222159049
  GAPW| local Eh = 1 center integrals:                       -141.63104918573882

  Total energy:                                              -194.83661027252612

  outer SCF iter =    1 RMS gradient =   0.18E-02 energy =       -194.8366102725

  ----------------------------------- OT ---------------------------------------
  Minimizer      : DIIS                : direct inversion
                                         in the iterative subspace
                                         using   7 DIIS vectors
                                         safer DIIS on
  Preconditioner : FULL_ALL            : diagonalization, state selective
  Precond_solver : DEFAULT
  stepsize       :    0.10000000                  energy_gap     :    0.08000000
  eps_taylor     :   0.10000E-15                  max_taylor     :             4
  ----------------------------------- OT ---------------------------------------

  Step     Update method      Time    Convergence         Total energy    Change
  ------------------------------------------------------------------------------
     1 OT DIIS     0.10E+00    2.9     0.00783373      -194.8378110754 -1.20E-03
     2 OT DIIS     0.10E+00    1.4     0.00721483      -194.8599098324 -2.21E-02
     3 OT DIIS     0.10E+00    1.4     0.00592850      -194.9028866381 -4.30E-02
     4 OT DIIS     0.10E+00    1.4     0.00481241      -194.9268132448 -2.39E-02
     5 OT DIIS     0.10E+00    1.4     0.00377269      -194.9461187748 -1.93E-02
     6 OT DIIS     0.10E+00    1.4     0.00313729      -194.9533463186 -7.23E-03
     7 OT DIIS     0.10E+00    1.4     0.00330528      -194.9511171110  2.23E-03
     8 OT DIIS     0.10E+00    1.4     0.00329012      -194.9539322175 -2.82E-03
     9 OT SD       0.10E+00    1.4     0.00307978      -194.9564501302 -2.52E-03
    10 OT SD       0.10E+00    1.4     0.00239958      -194.9592029765 -2.75E-03
    11 OT DIIS     0.10E+00    1.4     0.00209596      -194.9610654176 -1.86E-03
    12 OT DIIS     0.10E+00    1.4     0.00177186      -194.9642417098 -3.18E-03
    13 OT DIIS     0.10E+00    1.4     0.00195754      -194.9683031928 -4.06E-03
    14 OT DIIS     0.10E+00    1.4     0.00154936      -194.9698083969 -1.51E-03
    15 OT DIIS     0.10E+00    1.4     0.00123724      -194.9738963680 -4.09E-03
    16 OT DIIS     0.10E+00    1.4     0.00114028      -194.9753628405 -1.47E-03
    17 OT DIIS     0.10E+00    1.4     0.00101544      -194.9767708293 -1.41E-03
    18 OT DIIS     0.10E+00    1.4     0.00235397      -194.9747634460  2.01E-03
    19 OT DIIS     0.10E+00    1.4     0.00026761      -194.9771750339 -2.41E-03
    20 OT DIIS     0.10E+00    1.4     0.00022348      -194.9772398270 -6.48E-05

  Leaving inner SCF loop after reaching    20 steps.


  Electronic density on regular grids:        -26.2807326277       -0.2807326277
  Core density on regular grids:               26.0000000000        0.0000000000
  Hard and soft densities (Lebedev):          -36.5690707815      -36.8498027193
  Total Rho_soft + Rho1_hard - Rho1_soft      -26.0000006899
  Total charge density (r-space):              -0.0000006899
  Total Rho_soft + Rho0_soft (g-space):        -0.0000009437

  Overlap energy of the core charge distribution:               0.00000009250755
  Self energy of the core charge distribution:               -255.62044975403003
  Core Hamiltonian energy:                                     32.93864555699241
  Hartree energy:                                             189.36874554231704
  Exchange-correlation energy:                                -17.66835286584411

  GAPW| Exc from hard and soft atomic rho1:                    -2.33732218863435
  GAPW| local Eh = 1 center integrals:                       -141.65850621033104

  Total energy:                                              -194.97723982702252

  outer SCF iter =    2 RMS gradient =   0.22E-03 energy =       -194.9772398270

  ----------------------------------- OT ---------------------------------------
  Minimizer      : DIIS                : direct inversion
                                         in the iterative subspace
                                         using   7 DIIS vectors
                                         safer DIIS on
  Preconditioner : FULL_ALL            : diagonalization, state selective
  Precond_solver : DEFAULT
  stepsize       :    0.10000000                  energy_gap     :    0.08000000
  eps_taylor     :   0.10000E-15                  max_taylor     :             4
  ----------------------------------- OT ---------------------------------------

  Step     Update method      Time    Convergence         Total energy    Change
  ------------------------------------------------------------------------------
     1 OT DIIS     0.10E+00    2.9     0.00032329      -194.9772975739 -5.77E-05
     2 OT DIIS     0.10E+00    1.4     0.00021334      -194.9773157252 -1.82E-05
     3 OT DIIS     0.10E+00    1.4     0.00014931      -194.9773244824 -8.76E-06
     4 OT DIIS     0.10E+00    1.4     0.00010194      -194.9773522141 -2.77E-05
     5 OT DIIS     0.10E+00    1.4     0.00005780      -194.9773726696 -2.05E-05
     6 OT DIIS     0.10E+00    1.4     0.00002530      -194.9773794422 -6.77E-06
     7 OT DIIS     0.10E+00    1.4     0.00001635      -194.9773798831 -4.41E-07
     8 OT DIIS     0.10E+00    1.4     0.00000777      -194.9773802943 -4.11E-07
     9 OT DIIS     0.10E+00    1.4     0.00000555      -194.9773803584 -6.41E-08
    10 OT DIIS     0.10E+00    1.4     0.00000290      -194.9773803740 -1.57E-08
    11 OT DIIS     0.10E+00    1.4     0.00000210      -194.9773803791 -5.05E-09
    12 OT DIIS     0.10E+00    1.4     0.00000101      -194.9773803840 -4.94E-09
    13 OT DIIS     0.10E+00    1.4     0.00000060      -194.9773803850 -9.46E-10
    14 OT DIIS     0.10E+00    1.4     0.00000042      -194.9773803853 -2.84E-10
    15 OT DIIS     0.10E+00    1.4     0.00000026      -194.9773803854 -1.27E-10
    16 OT DIIS     0.10E+00    1.4     0.00000021      -194.9773803854 -1.38E-11
    17 OT DIIS     0.10E+00    1.4     0.00000008      -194.9773803854 -5.30E-11

  *** SCF run converged in    17 steps ***


  Electronic density on regular grids:        -26.2804821851       -0.2804821851
  Core density on regular grids:               26.0000000000        0.0000000000
  Hard and soft densities (Lebedev):          -36.5713422344      -36.8518237306
  Total Rho_soft + Rho1_hard - Rho1_soft      -26.0000006889
  Total charge density (r-space):              -0.0000006889
  Total Rho_soft + Rho0_soft (g-space):        -0.0000009428

  Overlap energy of the core charge distribution:               0.00000009250755
  Self energy of the core charge distribution:               -255.62044975403003
  Core Hamiltonian energy:                                     32.94035832265926
  Hartree energy:                                             189.36694781874436
  Exchange-correlation energy:                                -17.66840333804405

  GAPW| Exc from hard and soft atomic rho1:                    -2.33773101921659
  GAPW| local Eh = 1 center integrals:                       -141.65810250806388

  Total energy:                                              -194.97738038544338

  outer SCF iter =    3 RMS gradient =   0.82E-07 energy =       -194.9773803854
  outer SCF loop converged in   3 iterations or   57 steps


  Integrated absolute spin density  :                               1.9814024002
  Ideal and single determinant S**2 :                    2.000000       2.005567

 ENERGY| Total FORCE_EVAL ( QS ) energy [a.u.]:             -194.977380385443382

 -------------------------------------------------------------------------------
 -                                                                             -
 -                                DBCSR STATISTICS                             -
 -                                                                             -
 -------------------------------------------------------------------------------
 COUNTER                                    TOTAL       BLAS       SMM       ACC
 flops    12 x    12 x    12              1810944       0.0%    100.0%      0.0%
 flops    14 x    14 x    14              2486064       0.0%    100.0%      0.0%
 flops    12 x    12 x    57              3792096       0.0%    100.0%      0.0%
 flops    57 x    57 x    12              4522608       0.0%    100.0%      0.0%
 flops    14 x    14 x    57              5161464       0.0%    100.0%      0.0%
 flops    57 x    57 x    14              5276376       0.0%    100.0%      0.0%
 flops    12 x    12 x    88              5854464       0.0%    100.0%      0.0%
 flops    57 x    88 x    12              6982272       0.0%    100.0%      0.0%
 flops    14 x    14 x    88              7968576       0.0%    100.0%      0.0%
 flops    57 x    88 x    14              8145984       0.0%    100.0%      0.0%
 flops    57 x    12 x    57             10526760       0.0%    100.0%      0.0%
 flops    88 x    88 x    12             10779648       0.0%    100.0%      0.0%
 flops   145 x    12 x    12             12026880       0.0%    100.0%      0.0%
 flops    57 x    14 x    57             12190248       0.0%    100.0%      0.0%
 flops    88 x    88 x    14             12576256       0.0%    100.0%      0.0%
 flops    57 x    12 x    88             16251840       0.0%    100.0%      0.0%
 flops    88 x    12 x    57             16251840       0.0%    100.0%      0.0%
 flops   145 x    14 x    14             16369920       0.0%    100.0%      0.0%
 flops    57 x    14 x    88             18820032       0.0%    100.0%      0.0%
 flops    88 x    14 x    57             18820032       0.0%    100.0%      0.0%
 flops   145 x    12 x    57             23803200       0.0%    100.0%      0.0%
 flops    88 x    12 x    88             25090560       0.0%    100.0%      0.0%
 flops   145 x    14 x    57             27770400       0.0%    100.0%      0.0%
 flops    88 x    14 x    88             29055488       0.0%    100.0%      0.0%
 flops   145 x    12 x    88             36748800       0.0%    100.0%      0.0%
 flops   145 x    14 x    88             42873600       0.0%    100.0%      0.0%
 flops inhomo. stacks                           0       0.0%      0.0%      0.0%
 flops total                       381.956352E+06       0.0%    100.0%      0.0%
 flops max/rank                    372.157368E+06       0.0%    100.0%      0.0%
 matmuls inhomo. stacks                         0       0.0%      0.0%      0.0%
 matmuls total                               4381       0.0%    100.0%      0.0%
 number of processed stacks                  4381       0.0%    100.0%      0.0%
 average stack size                                     0.0       1.0       0.0
 marketing flops                   397.379072E+06
 -------------------------------------------------------------------------------
 # multiplications                           2646
 max memory usage/rank             393.789440E+06
 # max total images/rank                        3
 # max 3D layers                                1
 # MPI messages exchanged                 2540160
 MPI messages size (bytes):
  total size                         1.203095E+09
  min size                           0.000000E+00
  max size                         102.080000E+03
  average size                     473.629669E+00
 MPI breakdown and total messages size (bytes):
             size <=      128             2489258                        0
       128 < size <=     8192               23749                 70201344
      8192 < size <=    32768               15955                191141984
     32768 < size <=   131072               11198                941751800
    131072 < size <=  4194304                   0                        0
   4194304 < size <= 16777216                   0                        0
  16777216 < size                               0                        0
 -------------------------------------------------------------------------------

 *** WARNING in dbcsr_mm.F:290 :: Using a non-square number of MPI ranks ***
 *** might lead to poor performance. Used ranks: 48 Suggested: 49 100    ***

 -------------------------------------------------------------------------------
 -                                                                             -
 -                      DBCSR MESSAGE PASSING PERFORMANCE                      -
 -                                                                             -
 -------------------------------------------------------------------------------
 ROUTINE             CALLS      AVE VOLUME [Bytes]
 MP_Bcast               27                     12.
 MP_Allreduce        14115                      8.
 MP_Alltoall          9171                   4795.
 MP_ISend           118334                   1252.
 MP_IRecv           116640                    412.
 -------------------------------------------------------------------------------

 -------------------------------------------------------------------------------
 -                                                                             -
 -                                GRID STATISTICS                              -
 -                                                                             -
 -------------------------------------------------------------------------------
 LP    KERNEL             BACKEND                              COUNT     PERCENT
 3     collocate ortho    REF                                  41180      10.46%
 3     integrate ortho    REF                                  40470      10.28%
 2     collocate ortho    REF                                  39208       9.96%
 2     integrate ortho    REF                                  38532       9.79%
 1     collocate ortho    REF                                  37468       9.52%
 1     integrate ortho    REF                                  36822       9.35%
 4     collocate ortho    REF                                  32248       8.19%
 4     integrate ortho    REF                                  31692       8.05%
 5     collocate ortho    REF                                  17052       4.33%
 5     integrate ortho    REF                                  16758       4.26%
 0     collocate ortho    REF                                  14152       3.59%
 0     integrate ortho    REF                                  13908       3.53%
 6     collocate ortho    REF                                   7656       1.94%
 6     integrate ortho    REF                                   7524       1.91%
 2     collocate general  REF                                   5472       1.39%
 2     integrate general  REF                                   5472       1.39%
 7     collocate ortho    REF                                   3248       0.83%
 7     integrate ortho    REF                                   3192       0.81%
 8     collocate ortho    REF                                    812       0.21%
 8     integrate ortho    REF                                    798       0.20%
 -------------------------------------------------------------------------------

 MEMORY| Estimated peak process memory [MiB]                                 376

 -------------------------------------------------------------------------------
 -                                                                             -
 -                         MESSAGE PASSING PERFORMANCE                         -
 -                                                                             -
 -------------------------------------------------------------------------------

 ROUTINE             CALLS      AVE VOLUME [Bytes]
 MP_Group                4
 MP_Bcast             1694                 217074.
 MP_Allreduce         4432                  62602.
 MP_Sync               196
 MP_Alltoall          2421                4424552.
 MP_ISendRecv        32430                 115392.
 MP_Wait             53414
 MP_comm_split          96
 MP_ISend            19264                 252163.
 MP_IRecv            19264                 252197.
 MP_Recv                51                   1569.
 -------------------------------------------------------------------------------


 -------------------------------------------------------------------------------
 -                                                                             -
 -                           R E F E R E N C E S                               -
 -                                                                             -
 -------------------------------------------------------------------------------
 
 CP2K version 10.0 (Development Version), the CP2K developers group (2022).
 CP2K is freely available from https://www.cp2k.org/ .

 Kuehne,Thomas D.; Iannuzzi,Marcella; Del Ben,Mauro;
 Rybkin,Vladimir V.; Seewald,Patrick; Stein,Frederick; Laino,Teodoro;
 Khaliullin,Rustam Z.; Schuett,Ole; Schiffmann,Florian; Golze,Dorothea;
 Wilhelm,Jan; Chulkov,Sergey; Bani-Hashemian,Mohammad Hossein;
 Weber,Valery; Borstnik,Urban; Taillefumier,Mathieu;
 Jakobovits,Alice Shoshana; Lazzaro,Alfio; Pabst,Hans; Mueller,Tiziano;
 Schade,Robert; Guidon,Manuel; Andermatt,Samuel; Holmberg,Nico;
 Schenter,Gregory K.; Hehn,Anna; Bussy,Augustin; Belleflamme,Fabian;
 Tabacchi,Gloria; Gloess,Andreas; Lass,Michael; Bethune,Iain;
 Mundy,Christopher J.; Plessl,Christian; Watkins,Matt;
 VandeVondele,Joost; Krack,Matthias; Hutter,Juerg. 
 The Journal of Chemical Physics, 152 (19), (2020). 
 CP2K: An electronic structure and molecular dynamics software package -
 Quickstep: Efficient and accurate electronic structure calculations.
 https://doi.org/10.1063/5.0007045

 Schuett, Ole; Messmer, Peter; Hutter, Juerg; VandeVondele, Joost. 
 Electronic Structure Calculations on Graphics Processing Units, John
 Wiley & Sons, Ltd, 173-190 (2016). 
 GPU-Accelerated Sparse Matrix-Matrix Multiplication for
 Linear Scaling Density Functional Theory.
 https://doi.org/10.1002/9781118670712.ch8

 Heinecke, A; Henry, G; Hutchinson, M; Pabst, H. 
 Proceedings of Intl. Supercomputing Conference, 981-991 (2016). 
 LIBXSMM: Accelerating Small Matrix Multiplications
 by Runtime Code Generation.
 https://doi.org/10.1109/SC.2016.83

 Borstnik, U; VandeVondele, J; Weber, V; Hutter, J. 
 PARALLEL COMPUTING, 40 (5-6), 47-58 (2014). 
 Sparse matrix multiplication: The distributed block-compressed sparse
 row library.
 https://doi.org/10.1016/j.parco.2014.03.012

 Hutter, J; Iannuzzi, M; Schiffmann, F; VandeVondele, J. 
 WIREs Comput Mol Sci., 4 (1), 15-25 (2014). 
 CP2K: atomistic simulations of condensed matter systems.
 https://doi.org/10.1002/wcms.1159

 Marek, A; Blum, V; Johanni, R; Havu, V; Lang, B; Auckenthaler, T;
 Heinecke, A; Bungartz, H; Lederer, H. 
 Journal of Physics: Condensed Matter, 26 (21), (2014). 
 The ELPA library: scalable parallel eigenvalue solutions for
 electronic structure
 theory and computational science.
 https://doi.org/10.1088/0953-8984/26/21/213201

 Krack, M. 
 THEORETICAL CHEMISTRY ACCOUNTS, 114 (1-3), 145-152 (2005). 
 Pseudopotentials for H to Kr optimized for gradient-corrected
 exchange-correlation functionals.
 https://doi.org/10.1007/s00214-005-0655-y

 Frigo, M; Johnson, SG. 
 PROCEEDINGS OF THE IEEE, 93 (2), 216-231 (2005). 
 The design and implementation of FFTW3.
 https://doi.org/10.1109/JPROC.2004.840301

 VandeVondele, J; Hutter, J. 
 JOURNAL OF CHEMICAL PHYSICS, 118 (10), 4365-4369 (2003). 
 An efficient orbital transformation method for electronic structure
 calculations.
 https://doi.org/10.1063/1.1543154

 Lippert, G; Hutter, J; Parrinello, M. 
 THEORETICAL CHEMISTRY ACCOUNTS, 103 (2), 124-140 (1999). 
 The Gaussian and augmented-plane-wave density functional method for ab
 initio molecular dynamics simulations.
 https://doi.org/10.1007/s002140050523

 Krack, M; Parrinello, M. 
 PHYSICAL CHEMISTRY CHEMICAL PHYSICS, 2 (10), 2105-2112 (2000). 
 All-electron ab-initio molecular dynamics.
 https://doi.org/10.1039/b001167n

 Hartwigsen, C; Goedecker, S; Hutter, J. 
 PHYSICAL REVIEW B, 58 (7), 3641-3662 (1998). 
 Relativistic separable dual-space Gaussian pseudopotentials from H to Rn.
 https://doi.org/10.1103/PhysRevB.58.3641

 Perdew, JP; Burke, K; Ernzerhof, M. 
 PHYSICAL REVIEW LETTERS, 77 (18), 3865-3868 (1996). 
 Generalized gradient approximation made simple.
 https://doi.org/10.1103/PhysRevLett.77.3865

 Goedecker, S; Teter, M; Hutter, J. 
 PHYSICAL REVIEW B, 54 (3), 1703-1710 (1996). 
 Separable dual-space Gaussian pseudopotentials.
 https://doi.org/10.1103/PhysRevB.54.1703


 -------------------------------------------------------------------------------
 -                                                                             -
 -                                T I M I N G                                  -
 -                                                                             -
 -------------------------------------------------------------------------------
 SUBROUTINE                       CALLS  ASD         SELF TIME        TOTAL TIME
                                MAXIMUM       AVERAGE  MAXIMUM  AVERAGE  MAXIMUM
 CP2K                                 1  1.0    0.007    0.033   82.849   82.852
 qs_energies                          1  2.0    0.000    0.000   82.599   82.601
 scf_env_do_scf                       1  3.0    0.000    0.000   81.888   81.890
 scf_env_do_scf_inner_loop           57  4.0    0.001    0.003   78.407   78.409
 qs_ks_update_qs_env                 60  5.0    0.000    0.001   62.987   62.998
 rebuild_ks_matrix                   57  6.0    0.000    0.000   62.975   62.982
 qs_ks_build_kohn_sham_matrix        57  7.0    0.012    0.014   62.975   62.982
 pw_transfer                       2119 10.3    0.229    0.280   23.272   24.756
 fft_wrap_pw1pw2                   1948 11.3    0.027    0.033   22.918   24.395
 fft_wrap_pw1pw2_300               1258 12.8    1.467    1.738   21.309   22.865
 rs_pw_transfer                    1034  9.5    0.026    0.037   21.284   21.979
 qs_vxc_create                       57  8.0    0.001    0.002   20.058   20.058
 xc_vxc_pw_create                    57  9.0    0.249    0.312   20.056   20.057
 fft3d_ps                          1948 13.3    8.775   10.177   18.120   19.807
 qs_rho_update_rho                   58  5.0    0.001    0.002   16.106   16.111
 calculate_rho_elec                 116  6.0    0.063    0.069   15.695   15.695
 xc_pw_derive                       684 11.0    0.008    0.009   13.471   15.249
 prepare_gapw_den                    57  8.0    0.002    0.002   13.438   13.507
 density_rs2pw                      116  7.0    0.007    0.008   12.076   13.009
 sum_up_and_integrate                57  8.0    0.056    0.065   12.895   12.926
 integrate_v_rspace                 114  9.0    0.003    0.004   12.839   12.861
 mp_sum_d                          3087  9.2   11.388   12.075   11.388   12.075
 potential_pw2rs                    114 10.0    0.009    0.010   11.673   11.688
 xc_pw_divergence                   114 10.0    0.004    0.005    9.547   11.148
 mp_alltoall_z22v                  1948 15.3    7.384   10.785    7.384   10.785
 xc_rho_set_and_dset_create          57 10.0    0.268    0.318    9.795   10.466
 calculate_vxc_atom                  57  8.0    0.048    0.901    9.717    9.718
 calculate_rho_atom                 114  9.0    1.503    8.848    1.503    8.848
 gaVxcgb_GC                         114  9.0    0.177    8.480    0.177    8.480
 rs_pw_transfer_PW2RS_300           171 11.3    4.793    5.031    7.640    8.025
 rs_pw_transfer_RS2PW_300           173  9.7    4.828    5.208    7.175    7.957
 yz_to_x                            861 14.1    0.838    1.109    5.343    7.859
 mp_sum_dv                         1652 13.0    4.939    6.246    4.939    6.246
 mp_waitall_1                    245830 13.9    4.492    5.072    4.492    5.072
 mp_waitany                       19264 11.5    3.980    4.691    3.980    4.691
 x_to_yz                            857 14.8    0.977    1.098    3.840    4.279
 integrate_vhg0_rspace               57  8.0    0.300    0.553    3.992    4.076
 xc_functional_eval                 285 10.9    0.001    0.002    3.237    4.046
 pbe_lsd_eval                       285 11.9    3.236    4.044    3.236    4.044
 put_rho0_on_grid                    57  9.0    0.037    0.044    3.765    3.833
 grid_collocate_task_list           116  7.0    2.902    3.727    2.902    3.727
 init_scf_loop                        3  4.0    0.000    0.000    3.479    3.479
 calculate_rho0_atom                114  9.0    3.236    3.463    3.236    3.463
 rs_pw_transfer_PW2RS_100           114 12.0    0.638    0.833    2.981    3.170
 dbcsr_multiply_generic            2646 10.1    0.074    0.076    2.812    2.839
 qs_scf_new_mos                      57  5.0    0.000    0.000    2.836    2.838
 qs_scf_loop_do_ot                   57  6.0    0.000    0.000    2.836    2.838
 ot_scf_mini                         57  7.0    0.001    0.001    2.715    2.717
 rs_pw_transfer_RS2PW_100           116  9.0    0.553    0.799    1.955    2.015
 pw_gather_p                        977 12.9    1.669    1.858    1.669    1.858
 ot_mini                             57  8.0    0.000    0.000    1.801    1.803
 pw_scatter_p                       971 13.8    1.573    1.664    1.573    1.664
 -------------------------------------------------------------------------------

 The number of warnings for this run is : 1
 
 -------------------------------------------------------------------------------
  **** **** ******  **  PROGRAM ENDED AT                 2022-06-07 17:36:16.642
 ***** ** ***  *** **   PROGRAM RAN ON                                   tcopt10
 **    ****   ******    PROGRAM RAN BY                                    hutter
 ***** **    ** ** **   PROGRAM PROCESS ID                                 80635
  **** **  *******  **  PROGRAM STOPPED IN /data/hutter/GITHUB/BASIS/scMOLOPT/PB
                                           E/Pt
