 DBCSR| CPU Multiplication driver                                           XSMM
 DBCSR| Multrec recursion limit                                              512
 DBCSR| Multiplication stack size                                           1000
 DBCSR| Maximum elements for images                                    UNLIMITED
 DBCSR| Multiplicative factor virtual images                                   1
 DBCSR| Use multiplication densification                                       T
 DBCSR| Multiplication size stacks                                             3
 DBCSR| Use memory pool for CPU allocation                                     F
 DBCSR| Number of 3D layers                                               SINGLE
 DBCSR| Use MPI memory allocation                                              F
 DBCSR| Use RMA algorithm                                                      F
 DBCSR| Use Communication thread                                               T
 DBCSR| Communication thread load                                             87
 DBCSR| MPI: My node id                                                        0
 DBCSR| MPI: Number of nodes                                                  36
 DBCSR| OMP: Current number of threads                                         1
 DBCSR| OMP: Max number of threads                                             1
 DBCSR| Split modifier for TAS multiplication algorithm                  1.0E+00


  **** **** ******  **  PROGRAM STARTED AT               2022-06-07 16:50:45.161
 ***** ** ***  *** **   PROGRAM STARTED ON                               tcopt10
 **    ****   ******    PROGRAM STARTED BY                                hutter
 ***** **    ** ** **   PROGRAM PROCESS ID                                 72587
  **** **  *******  **  PROGRAM STARTED IN /data/hutter/GITHUB/BASIS/scMOLOPT/PB
                                           E/Hf

 CP2K| version string:                   CP2K version 10.0 (Development Version)
 CP2K| source code revision number:                                  git:d19b00a
 CP2K| cp2kflags: omp libint fftw3 libxc elpa parallel mpi3 scalapack cosma xsmm
 CP2K|             spglib sirius libvori libbqb
 CP2K| is freely available from                            https://www.cp2k.org/
 CP2K| Program compiled at                      Wed 18 May 2022 12:15:59 PM CEST
 CP2K| Program compiled on                                               tcopt10
 CP2K| Program compiled for                                                local
 CP2K| Data directory path                   /data/hutter/GITHUB/TDLRI/cp2k/data
 CP2K| Input file name                                              HfO2-ref.inp

 GLOBAL| Force Environment number                                              1
 GLOBAL| Basis set file name                                        ../def2QZVPP
 GLOBAL| Potential file name                                        ../POTENTIAL
 GLOBAL| MM Potential file name                                     MM_POTENTIAL
 GLOBAL| Coordinate file name                                      __STD_INPUT__
 GLOBAL| Method name                                                        CP2K
 GLOBAL| Project name                                                    refHfO2
 GLOBAL| Run type                                                         ENERGY
 GLOBAL| FFT library                                                       FFTW3
 GLOBAL| Diagonalization library                                            ELPA
 GLOBAL| Minimum number of eigenvectors for ELPA usage                        16
 GLOBAL| Orthonormality check for eigenvectors                          DISABLED
 GLOBAL| Matrix multiplication library                                     COSMA
 GLOBAL| All-to-all communication in single precision                          F
 GLOBAL| FFTs using library dependent lengths                                  F
 GLOBAL| Grid backend                                                       AUTO
 GLOBAL| Global print level                                                  LOW
 GLOBAL| MPI I/O enabled                                                       T
 GLOBAL| Total number of message passing processes                            36
 GLOBAL| Number of threads for this process                                    1
 GLOBAL| This output is from process                                           0
 GLOBAL| Stack size for threads created by OpenMP (OMP_STACKSIZE)        default
 GLOBAL| CPU model name                          AMD EPYC 7401 24-Core Processor
 GLOBAL| CPUID                                                              1002

 MEMORY| system memory details [Kb]
 MEMORY|                        rank 0           min           max       average
 MEMORY| MemTotal            263969132     263969132     263969132     263969132
 MEMORY| MemFree             237126576     237126576     237126576     237126576
 MEMORY| Buffers                  2836          2836          2836          2836
 MEMORY| Cached               20347956      20347956      20347956      20347956
 MEMORY| Slab                  1476544       1476544       1476544       1476544
 MEMORY| SReclaimable           874452        874452        874452        874452
 MEMORY| MemLikelyFree       258351820     258351820     258351820     258351820


 GENERATE|  Preliminary Number of Bonds generated:                             0
 GENERATE|  Achieved consistency in connectivity generation.

 *******************************************************************************
 *******************************************************************************
 **                                                                           **
 **     #####                         ##              ##                      **
 **    ##   ##            ##          ##              ##                      **
 **   ##     ##                       ##            ######                    **
 **   ##     ##  ##   ##  ##   #####  ##  ##   ####   ##    #####    #####    **
 **   ##     ##  ##   ##  ##  ##      ## ##   ##      ##   ##   ##  ##   ##   **
 **   ##  ## ##  ##   ##  ##  ##      ####     ###    ##   ######   ######    **
 **    ##  ###   ##   ##  ##  ##      ## ##      ##   ##   ##       ##        **
 **     #######   #####   ##   #####  ##  ##  ####    ##    #####   ##        **
 **           ##                                                    ##        **
 **                                                                           **
 **                                                ... make the atoms dance   **
 **                                                                           **
 **            Copyright (C) by CP2K developers group (2000-2022)             **
 **                      J. Chem. Phys. 152, 194103 (2020)                    **
 **                                                                           **
 *******************************************************************************


 TOTAL NUMBERS AND MAXIMUM NUMBERS

  Total number of            - Atomic kinds:                                   2
                             - Atoms:                                          3
                             - Shell sets:                                    55
                             - Shells:                                        55
                             - Primitive Cartesian functions:                 87
                             - Cartesian basis functions:                    250
                             - Spherical basis functions:                    195

  Maximum angular momentum of- Orbital basis functions:                        4
                             - Local part of the GTH pseudopotential:          2
                             - Non-local part of the GTH pseudopotential:      4


 SCF PARAMETERS         Density guess:                                   RESTART
                        --------------------------------------------------------
                        max_scf:                                              20
                        max_scf_history:                                       0
                        max_diis:                                              4
                        --------------------------------------------------------
                        eps_scf:                                        5.00E-07
                        eps_scf_history:                                0.00E+00
                        eps_diis:                                       1.00E-01
                        eps_eigval:                                     1.00E-05
                        --------------------------------------------------------
                        level_shift [a.u.]:                             0.000000
                        --------------------------------------------------------
                        Outer loop SCF in use 
                        No variables optimised in outer loop
                        eps_scf                                         5.00E-07
                        max_scf                                                5
                        No outer loop optimization
                        step_size                                       5.00E-01

 Spin 1

 Number of electrons:                                                         15
 Number of occupied orbitals:                                                 15
 Number of molecular orbitals:                                                15

 Spin 2

 Number of electrons:                                                         13
 Number of occupied orbitals:                                                 13
 Number of molecular orbitals:                                                13

 Number of orbital functions:                                                195
 Number of independent orbital functions:                                    195

 Extrapolation method: initial_guess


 SCF WAVEFUNCTION OPTIMIZATION

  ----------------------------------- OT ---------------------------------------
  Minimizer      : CG                  : conjugate gradient
  Preconditioner : FULL_ALL            : diagonalization, state selective
  Precond_solver : DEFAULT
  Line search    : 2PNT                : 2 energies, one gradient
  stepsize       :    0.10000000                  energy_gap     :    0.08000000
  eps_taylor     :   0.10000E-15                  max_taylor     :             4
  ----------------------------------- OT ---------------------------------------

  Step     Update method      Time    Convergence         Total energy    Change
  ------------------------------------------------------------------------------
     1 OT CG       0.10E+00    1.1     0.00061400      -199.4928598660 -1.99E+02
     2 OT LS       0.40E+00    0.8                     -199.4930706473
     3 OT CG       0.40E+00    1.3     0.00075525      -199.4937600037 -9.00E-04
     4 OT LS       0.16E+01    0.8                     -199.4955622278
     5 OT CG       0.16E+01    1.3     0.00160242      -199.5032154611 -9.46E-03
     6 OT LS       0.64E+00    0.8                     -199.4897585131
     7 OT CG       0.64E+00    1.3     0.00362233      -199.5191273962 -1.59E-02
     8 OT LS       0.14E+00    0.8                     -199.4363426047
     9 OT CG       0.14E+00    1.3     0.00372048      -199.5111599368  7.97E-03
    10 OT LS       0.31E+00    0.8                     -199.5194469459
    11 OT CG       0.31E+00    1.3     0.00322995      -199.5226230255 -1.15E-02
    12 OT LS       0.17E+00    0.8                     -199.5244145777
    13 OT CG       0.17E+00    1.3     0.00105889      -199.5274359875 -4.81E-03
    14 OT LS       0.23E+00    0.8                     -199.5280953359
    15 OT CG       0.23E+00    1.3     0.00094111      -199.5281366721 -7.01E-04
    16 OT LS       0.29E+00    0.8                     -199.5288040015
    17 OT CG       0.29E+00    1.3     0.00050442      -199.5288317516 -6.95E-04
    18 OT LS       0.23E+00    0.8                     -199.5289763413
    19 OT CG       0.23E+00    1.3     0.00045293      -199.5289880900 -1.56E-04
    20 OT LS       0.27E+00    0.8                     -199.5291350068

  Leaving inner SCF loop after reaching    20 steps.


  Electronic density on regular grids:        -24.0606812171        3.9393187829
  Core density on regular grids:               28.0000000000        0.0000000000
  Hard and soft densities (Lebedev):          -48.2382246472      -44.2989064519
  Total Rho_soft + Rho1_hard - Rho1_soft      -27.9999994124
  Total charge density (r-space):               0.0000005876
  Total Rho_soft + Rho0_soft (g-space):         0.0000003765

  Overlap energy of the core charge distribution:               0.00000138667640
  Self energy of the core charge distribution:               -218.22368131872875
  Core Hamiltonian energy:                                      1.78915252358990
  Hartree energy:                                             110.23204145240490
  Exchange-correlation energy:                                -12.82328571984383

  GAPW| Exc from hard and soft atomic rho1:                   -10.08700483112476
  GAPW| local Eh = 1 center integrals:                        -70.41635849972452

  Total energy:                                              -199.52913500675061

  outer SCF iter =    1 RMS gradient =   0.45E-03 energy =       -199.5291350068

  ----------------------------------- OT ---------------------------------------
  Minimizer      : CG                  : conjugate gradient
  Preconditioner : FULL_ALL            : diagonalization, state selective
  Precond_solver : DEFAULT
  Line search    : 2PNT                : 2 energies, one gradient
  stepsize       :    0.10000000                  energy_gap     :    0.08000000
  eps_taylor     :   0.10000E-15                  max_taylor     :             4
  ----------------------------------- OT ---------------------------------------

  Step     Update method      Time    Convergence         Total energy    Change
  ------------------------------------------------------------------------------
     1 OT CG       0.10E+00    2.1     0.00020439      -199.5291390627 -1.51E-04
     2 OT LS       0.22E+00    0.8                     -199.5291565785
     3 OT CG       0.22E+00    1.3     0.00021312      -199.5291636240 -2.46E-05
     4 OT LS       0.12E+00    0.8                     -199.5291697093
     5 OT CG       0.12E+00    1.3     0.00010629      -199.5291786800 -1.51E-05
     6 OT LS       0.45E+00    0.8                     -199.5291851679
     7 OT CG       0.45E+00    1.3     0.00006159      -199.5291926145 -1.39E-05
     8 OT LS       0.19E+00    0.8                     -199.5291908410
     9 OT CG       0.19E+00    1.3     0.00004030      -199.5291945831 -1.97E-06
    10 OT LS       0.38E+00    0.8                     -199.5291958409
    11 OT CG       0.38E+00    1.3     0.00001159      -199.5291962468 -1.66E-06
    12 OT LS       0.39E+00    0.8                     -199.5291963904
    13 OT CG       0.39E+00    1.3     0.00000450      -199.5291963907 -1.44E-07
    14 OT LS       0.37E+00    0.8                     -199.5291964110
    15 OT CG       0.37E+00    1.3     0.00000191      -199.5291964111 -2.04E-08
    16 OT LS       0.21E+00    0.8                     -199.5291964121
    17 OT CG       0.21E+00    1.3     0.00000182      -199.5291964132 -2.11E-09
    18 OT LS       0.14E+00    0.8                     -199.5291964141
    19 OT CG       0.14E+00    1.3     0.00000116      -199.5291964145 -1.27E-09
    20 OT LS       0.14E+00    0.8                     -199.5291964150

  Leaving inner SCF loop after reaching    20 steps.


  Electronic density on regular grids:        -24.0603491344        3.9396508656
  Core density on regular grids:               28.0000000000        0.0000000000
  Hard and soft densities (Lebedev):          -48.2380261858      -44.2983759125
  Total Rho_soft + Rho1_hard - Rho1_soft      -27.9999994076
  Total charge density (r-space):               0.0000005924
  Total Rho_soft + Rho0_soft (g-space):         0.0000003813

  Overlap energy of the core charge distribution:               0.00000138667640
  Self energy of the core charge distribution:               -218.22368131872875
  Core Hamiltonian energy:                                      1.78901353916980
  Hartree energy:                                             110.23200300091608
  Exchange-correlation energy:                                -12.82286565794630

  GAPW| Exc from hard and soft atomic rho1:                   -10.08742022091166
  GAPW| local Eh = 1 center integrals:                        -70.41624714417721

  Total energy:                                              -199.52919641500165

  outer SCF iter =    2 RMS gradient =   0.12E-05 energy =       -199.5291964150

  ----------------------------------- OT ---------------------------------------
  Minimizer      : CG                  : conjugate gradient
  Preconditioner : FULL_ALL            : diagonalization, state selective
  Precond_solver : DEFAULT
  Line search    : 2PNT                : 2 energies, one gradient
  stepsize       :    0.10000000                  energy_gap     :    0.08000000
  eps_taylor     :   0.10000E-15                  max_taylor     :             4
  ----------------------------------- OT ---------------------------------------

  Step     Update method      Time    Convergence         Total energy    Change
  ------------------------------------------------------------------------------
     1 OT CG       0.10E+00    2.1     0.00000054      -199.5291964150 -5.30E-10
     2 OT LS       0.25E+00    0.8                     -199.5291964151
     3 OT CG       0.25E+00    1.3     0.00000045      -199.5291964152 -1.98E-10

  *** SCF run converged in     3 steps ***


  Electronic density on regular grids:        -24.0603524776        3.9396475224
  Core density on regular grids:               28.0000000000        0.0000000000
  Hard and soft densities (Lebedev):          -48.2380297150      -44.2983827849
  Total Rho_soft + Rho1_hard - Rho1_soft      -27.9999994076
  Total charge density (r-space):               0.0000005924
  Total Rho_soft + Rho0_soft (g-space):         0.0000003812

  Overlap energy of the core charge distribution:               0.00000138667640
  Self energy of the core charge distribution:               -218.22368131872875
  Core Hamiltonian energy:                                      1.78899749816183
  Hartree energy:                                             110.23201604733421
  Exchange-correlation energy:                                -12.82286604370934

  GAPW| Exc from hard and soft atomic rho1:                   -10.08741586751047
  GAPW| local Eh = 1 center integrals:                        -70.41624811742371

  Total energy:                                              -199.52919641519981

  outer SCF iter =    3 RMS gradient =   0.45E-06 energy =       -199.5291964152
  outer SCF loop converged in   3 iterations or   43 steps


  Integrated absolute spin density  :                               1.9283425065
  Ideal and single determinant S**2 :                    2.000000       2.007697

 ENERGY| Total FORCE_EVAL ( QS ) energy [a.u.]:             -199.529196415199806

 -------------------------------------------------------------------------------
 -                                                                             -
 -                                DBCSR STATISTICS                             -
 -                                                                             -
 -------------------------------------------------------------------------------
 COUNTER                                    TOTAL       BLAS       SMM       ACC
 flops    13 x    13 x    13               927134       0.0%    100.0%      0.0%
 flops    15 x    15 x    15              1525500       0.0%    100.0%      0.0%
 flops    13 x    13 x    81              3066336       0.0%    100.0%      0.0%
 flops    15 x    15 x    81              4082400       0.0%    100.0%      0.0%
 flops    81 x    13 x    13              4243590       0.0%    100.0%      0.0%
 flops    13 x    13 x    57              4315584       0.0%    100.0%      0.0%
 flops    57 x    81 x    13              5281848       0.0%    100.0%      0.0%
 flops    81 x    57 x    13              5281848       0.0%    100.0%      0.0%
 flops    81 x    15 x    15              5649750       0.0%    100.0%      0.0%
 flops    15 x    15 x    57              5745600       0.0%    100.0%      0.0%
 flops    57 x    13 x    13              5972460       0.0%    100.0%      0.0%
 flops    57 x    81 x    15              6094440       0.0%    100.0%      0.0%
 flops    81 x    57 x    15              6094440       0.0%    100.0%      0.0%
 flops    81 x    81 x    13              7505784       0.0%    100.0%      0.0%
 flops    57 x    15 x    15              7951500       0.0%    100.0%      0.0%
 flops    81 x    81 x    15              8660520       0.0%    100.0%      0.0%
 flops    57 x    57 x    13             11150568       0.0%    100.0%      0.0%
 flops    57 x    57 x    15             12866040       0.0%    100.0%      0.0%
 flops    81 x    13 x    81             22858524       0.0%    100.0%      0.0%
 flops    81 x    15 x    81             26178390       0.0%    100.0%      0.0%
 flops    81 x    13 x    57             32171256       0.0%    100.0%      0.0%
 flops    57 x    13 x    81             32171256       0.0%    100.0%      0.0%
 flops    81 x    15 x    57             36843660       0.0%    100.0%      0.0%
 flops    57 x    15 x    81             36843660       0.0%    100.0%      0.0%
 flops    57 x    13 x    57             45278064       0.0%    100.0%      0.0%
 flops    57 x    15 x    57             51854040       0.0%    100.0%      0.0%
 flops inhomo. stacks                           0       0.0%      0.0%      0.0%
 flops total                       390.614192E+06       0.0%    100.0%      0.0%
 flops max/rank                    163.774028E+06       0.0%    100.0%      0.0%
 matmuls inhomo. stacks                         0       0.0%      0.0%      0.0%
 matmuls total                               4970       0.0%    100.0%      0.0%
 number of processed stacks                  4970       0.0%    100.0%      0.0%
 average stack size                                     0.0       1.0       0.0
 marketing flops                   421.835136E+06
 -------------------------------------------------------------------------------
 # multiplications                           1332
 max memory usage/rank             405.417984E+06
 # max total images/rank                        1
 # max 3D layers                                1
 # MPI messages exchanged                  479520
 MPI messages size (bytes):
  total size                       546.611904E+06
  min size                           0.000000E+00
  max size                          52.488000E+03
  average size                       1.139915E+03
 MPI breakdown and total messages size (bytes):
             size <=      128              443570                        0
       128 < size <=     8192               17930                 86030800
      8192 < size <=    32768               11345                193271400
     32768 < size <=   131072                6675                267309720
    131072 < size <=  4194304                   0                        0
   4194304 < size <= 16777216                   0                        0
  16777216 < size                               0                        0
 -------------------------------------------------------------------------------
 -                                                                             -
 -                      DBCSR MESSAGE PASSING PERFORMANCE                      -
 -                                                                             -
 -------------------------------------------------------------------------------
 ROUTINE             CALLS      AVE VOLUME [Bytes]
 MP_Bcast               27                     12.
 MP_Allreduce         6739                      8.
 MP_Alltoall          4847                   3235.
 MP_ISend            31944                   1798.
 MP_IRecv            31944                    959.
 -------------------------------------------------------------------------------

 -------------------------------------------------------------------------------
 -                                                                             -
 -                                GRID STATISTICS                              -
 -                                                                             -
 -------------------------------------------------------------------------------
 LP    KERNEL             BACKEND                              COUNT     PERCENT
 2     collocate ortho    REF                                  43384      13.72%
 3     collocate ortho    REF                                  39248      12.41%
 1     collocate ortho    REF                                  36080      11.41%
 4     collocate ortho    REF                                  32736      10.35%
 2     integrate ortho    REF                                  21692       6.86%
 0     collocate ortho    REF                                  19624       6.21%
 3     integrate ortho    REF                                  19624       6.21%
 5     collocate ortho    REF                                  19184       6.07%
 1     integrate ortho    REF                                  18040       5.71%
 4     integrate ortho    REF                                  16368       5.18%
 0     integrate ortho    REF                                   9812       3.10%
 5     integrate ortho    REF                                   9592       3.03%
 6     collocate ortho    REF                                   8976       2.84%
 2     collocate general  REF                                   4644       1.47%
 2     integrate general  REF                                   4644       1.47%
 6     integrate ortho    REF                                   4488       1.42%
 7     collocate ortho    REF                                   4400       1.39%
 7     integrate ortho    REF                                   2200       0.70%
 8     collocate ortho    REF                                    968       0.31%
 8     integrate ortho    REF                                    484       0.15%
 -------------------------------------------------------------------------------

 MEMORY| Estimated peak process memory [MiB]                                 387

 -------------------------------------------------------------------------------
 -                                                                             -
 -                         MESSAGE PASSING PERFORMANCE                         -
 -                                                                             -
 -------------------------------------------------------------------------------

 ROUTINE             CALLS      AVE VOLUME [Bytes]
 MP_Group                4
 MP_Bcast             1104                 331092.
 MP_Allreduce         2565                 104148.
 MP_Sync                80
 MP_Alltoall          1259                6315166.
 MP_ISendRecv        13860                 115968.
 MP_Wait             24542
 MP_comm_split          38
 MP_ISend             9592                 353978.
 MP_IRecv             9592                 353978.
 MP_Recv                24                   4680.
 -------------------------------------------------------------------------------


 -------------------------------------------------------------------------------
 -                                                                             -
 -                           R E F E R E N C E S                               -
 -                                                                             -
 -------------------------------------------------------------------------------
 
 CP2K version 10.0 (Development Version), the CP2K developers group (2022).
 CP2K is freely available from https://www.cp2k.org/ .

 Kuehne,Thomas D.; Iannuzzi,Marcella; Del Ben,Mauro;
 Rybkin,Vladimir V.; Seewald,Patrick; Stein,Frederick; Laino,Teodoro;
 Khaliullin,Rustam Z.; Schuett,Ole; Schiffmann,Florian; Golze,Dorothea;
 Wilhelm,Jan; Chulkov,Sergey; Bani-Hashemian,Mohammad Hossein;
 Weber,Valery; Borstnik,Urban; Taillefumier,Mathieu;
 Jakobovits,Alice Shoshana; Lazzaro,Alfio; Pabst,Hans; Mueller,Tiziano;
 Schade,Robert; Guidon,Manuel; Andermatt,Samuel; Holmberg,Nico;
 Schenter,Gregory K.; Hehn,Anna; Bussy,Augustin; Belleflamme,Fabian;
 Tabacchi,Gloria; Gloess,Andreas; Lass,Michael; Bethune,Iain;
 Mundy,Christopher J.; Plessl,Christian; Watkins,Matt;
 VandeVondele,Joost; Krack,Matthias; Hutter,Juerg. 
 The Journal of Chemical Physics, 152 (19), (2020). 
 CP2K: An electronic structure and molecular dynamics software package -
 Quickstep: Efficient and accurate electronic structure calculations.
 https://doi.org/10.1063/5.0007045

 Schuett, Ole; Messmer, Peter; Hutter, Juerg; VandeVondele, Joost. 
 Electronic Structure Calculations on Graphics Processing Units, John
 Wiley & Sons, Ltd, 173-190 (2016). 
 GPU-Accelerated Sparse Matrix-Matrix Multiplication for
 Linear Scaling Density Functional Theory.
 https://doi.org/10.1002/9781118670712.ch8

 Heinecke, A; Henry, G; Hutchinson, M; Pabst, H. 
 Proceedings of Intl. Supercomputing Conference, 981-991 (2016). 
 LIBXSMM: Accelerating Small Matrix Multiplications
 by Runtime Code Generation.
 https://doi.org/10.1109/SC.2016.83

 Borstnik, U; VandeVondele, J; Weber, V; Hutter, J. 
 PARALLEL COMPUTING, 40 (5-6), 47-58 (2014). 
 Sparse matrix multiplication: The distributed block-compressed sparse
 row library.
 https://doi.org/10.1016/j.parco.2014.03.012

 Hutter, J; Iannuzzi, M; Schiffmann, F; VandeVondele, J. 
 WIREs Comput Mol Sci., 4 (1), 15-25 (2014). 
 CP2K: atomistic simulations of condensed matter systems.
 https://doi.org/10.1002/wcms.1159

 Marek, A; Blum, V; Johanni, R; Havu, V; Lang, B; Auckenthaler, T;
 Heinecke, A; Bungartz, H; Lederer, H. 
 Journal of Physics: Condensed Matter, 26 (21), (2014). 
 The ELPA library: scalable parallel eigenvalue solutions for
 electronic structure
 theory and computational science.
 https://doi.org/10.1088/0953-8984/26/21/213201

 Krack, M. 
 THEORETICAL CHEMISTRY ACCOUNTS, 114 (1-3), 145-152 (2005). 
 Pseudopotentials for H to Kr optimized for gradient-corrected
 exchange-correlation functionals.
 https://doi.org/10.1007/s00214-005-0655-y

 Frigo, M; Johnson, SG. 
 PROCEEDINGS OF THE IEEE, 93 (2), 216-231 (2005). 
 The design and implementation of FFTW3.
 https://doi.org/10.1109/JPROC.2004.840301

 VandeVondele, J; Hutter, J. 
 JOURNAL OF CHEMICAL PHYSICS, 118 (10), 4365-4369 (2003). 
 An efficient orbital transformation method for electronic structure
 calculations.
 https://doi.org/10.1063/1.1543154

 Lippert, G; Hutter, J; Parrinello, M. 
 THEORETICAL CHEMISTRY ACCOUNTS, 103 (2), 124-140 (1999). 
 The Gaussian and augmented-plane-wave density functional method for ab
 initio molecular dynamics simulations.
 https://doi.org/10.1007/s002140050523

 Krack, M; Parrinello, M. 
 PHYSICAL CHEMISTRY CHEMICAL PHYSICS, 2 (10), 2105-2112 (2000). 
 All-electron ab-initio molecular dynamics.
 https://doi.org/10.1039/b001167n

 Hartwigsen, C; Goedecker, S; Hutter, J. 
 PHYSICAL REVIEW B, 58 (7), 3641-3662 (1998). 
 Relativistic separable dual-space Gaussian pseudopotentials from H to Rn.
 https://doi.org/10.1103/PhysRevB.58.3641

 Perdew, JP; Burke, K; Ernzerhof, M. 
 PHYSICAL REVIEW LETTERS, 77 (18), 3865-3868 (1996). 
 Generalized gradient approximation made simple.
 https://doi.org/10.1103/PhysRevLett.77.3865

 Goedecker, S; Teter, M; Hutter, J. 
 PHYSICAL REVIEW B, 54 (3), 1703-1710 (1996). 
 Separable dual-space Gaussian pseudopotentials.
 https://doi.org/10.1103/PhysRevB.54.1703


 -------------------------------------------------------------------------------
 -                                                                             -
 -                                T I M I N G                                  -
 -                                                                             -
 -------------------------------------------------------------------------------
 SUBROUTINE                       CALLS  ASD         SELF TIME        TOTAL TIME
                                MAXIMUM       AVERAGE  MAXIMUM  AVERAGE  MAXIMUM
 CP2K                                 1  1.0    0.012    0.037   46.057   46.059
 qs_energies                          1  2.0    0.000    0.000   45.802   45.803
 scf_env_do_scf                       1  3.0    0.000    0.000   45.364   45.365
 scf_env_do_scf_inner_loop           43  4.0    0.001    0.002   42.243   42.244
 qs_ks_update_qs_env                 46  5.0    0.000    0.000   32.757   32.799
 rebuild_ks_matrix                   43  6.0    0.000    0.000   32.749   32.795
 qs_ks_build_kohn_sham_matrix        43  7.0    0.009    0.011   32.749   32.795
 pw_transfer                       1244 10.0    0.123    0.150   15.337   15.689
 fft_wrap_pw1pw2                   1115 11.1    0.015    0.018   15.119   15.490
 fft_wrap_pw1pw2_300                719 12.7    0.973    1.123   14.053   14.392
 qs_vxc_create                       43  8.0    0.001    0.001   13.891   13.892
 fft3d_ps                          1115 13.1    6.078    6.878   11.729   12.394
 qs_rho_update_rho                   44  5.0    0.001    0.001   11.504   11.509
 calculate_rho_elec                  88  6.0    0.063    0.064   11.172   11.172
 rs_pw_transfer                     614  9.1    0.015    0.021   10.563   11.025
 xc_rho_set_and_dset_create          43 10.0    0.183    0.221    9.346    9.557
 xc_vxc_pw_create                    22  9.0    0.127    0.161    9.235    9.235
 density_rs2pw                       88  7.0    0.004    0.005    8.750    9.158
 xc_pw_derive                       390 11.0    0.004    0.005    8.630    8.923
 prepare_gapw_den                    43  8.0    0.001    0.001    7.827    7.892
 mp_alltoall_z22v                  1115 15.1    4.333    5.646    4.333    5.646
 rs_pw_transfer_RS2PW_300           131  9.7    2.643    3.435    4.860    5.266
 xc_exc_calc                         21  9.0    0.015    0.015    4.655    4.656
 sum_up_and_integrate                22  8.0    0.023    0.028    4.439    4.443
 integrate_v_rspace                  44  9.0    0.001    0.002    4.417    4.419
 xc_pw_divergence                    44 10.0    0.001    0.002    4.108    4.369
 calculate_rho_atom                  86  9.0    1.127    4.355    1.127    4.355
 mp_waitany                        9592 11.2    3.062    4.328    3.062    4.328
 potential_pw2rs                     44 10.0    0.004    0.004    3.941    3.945
 mp_sum_d                          1582  7.6    3.360    3.916    3.360    3.916
 xc_functional_eval                 129 10.9    0.001    0.001    3.486    3.711
 pbe_lsd_eval                       129 11.9    3.485    3.710    3.485    3.710
 rs_pw_transfer_PW2RS_300            87 11.0    1.767    2.157    3.339    3.471
 yz_to_x                            571 13.3    0.519    0.675    2.745    3.465
 x_to_yz                            544 14.9    0.758    0.873    2.866    3.353
 init_scf_loop                        3  4.0    0.000    0.000    3.119    3.119
 mp_sum_dv                          492 12.5    2.154    3.093    2.154    3.093
 integrate_vhg0_rspace               43  8.0    0.268    0.400    2.746    2.798
 put_rho0_on_grid                    43  9.0    0.036    0.050    2.698    2.763
 grid_collocate_task_list            88  7.0    1.861    2.695    1.861    2.695
 calculate_rho0_atom                 86  9.0    1.850    2.324    1.850    2.324
 mp_waitall_1                    100198 13.6    1.682    2.318    1.682    2.318
 calculate_vxc_atom                  43  8.0    0.048    0.347    2.287    2.287
 gaVxcgb_GC                          22  9.0    0.118    1.818    0.118    1.818
 pw_scatter_p                       544 13.9    1.328    1.492    1.328    1.492
 pw_gather_p                        571 12.3    1.031    1.273    1.031    1.273
 dbcsr_multiply_generic            1332  9.8    0.035    0.036    1.147    1.166
 qs_scf_new_mos                      43  5.0    0.000    0.000    1.133    1.142
 qs_scf_loop_do_ot                   43  6.0    0.000    0.000    1.133    1.142
 mp_sum_dm                          657  7.4    0.860    1.082    0.860    1.082
 ot_scf_mini                         43  7.0    0.001    0.001    1.060    1.068
 rs_pw_transfer_PW2RS_100            44 12.0    0.171    0.202    0.821    1.049
 fft_wrap_pw1pw2_100                132 11.0    0.033    0.046    0.833    0.983
 rs_pw_transfer_RS2PW_100            88  9.0    0.344    0.426    0.898    0.927
 -------------------------------------------------------------------------------

 The number of warnings for this run is : 0
 
 -------------------------------------------------------------------------------
  **** **** ******  **  PROGRAM ENDED AT                 2022-06-07 16:51:31.617
 ***** ** ***  *** **   PROGRAM RAN ON                                   tcopt10
 **    ****   ******    PROGRAM RAN BY                                    hutter
 ***** **    ** ** **   PROGRAM PROCESS ID                                 72587
  **** **  *******  **  PROGRAM STOPPED IN /data/hutter/GITHUB/BASIS/scMOLOPT/PB
                                           E/Hf
