 DBCSR| CPU Multiplication driver                                           XSMM
 DBCSR| Multrec recursion limit                                              512
 DBCSR| Multiplication stack size                                           1000
 DBCSR| Maximum elements for images                                    UNLIMITED
 DBCSR| Multiplicative factor virtual images                                   1
 DBCSR| Use multiplication densification                                       T
 DBCSR| Multiplication size stacks                                             3
 DBCSR| Use memory pool for CPU allocation                                     F
 DBCSR| Number of 3D layers                                               SINGLE
 DBCSR| Use MPI memory allocation                                              F
 DBCSR| Use RMA algorithm                                                      F
 DBCSR| Use Communication thread                                               T
 DBCSR| Communication thread load                                             87
 DBCSR| MPI: My node id                                                        0
 DBCSR| MPI: Number of nodes                                                  24
 DBCSR| OMP: Current number of threads                                         1
 DBCSR| OMP: Max number of threads                                             1
 DBCSR| Split modifier for TAS multiplication algorithm                  1.0E+00


  **** **** ******  **  PROGRAM STARTED AT               2022-05-16 12:28:50.212
 ***** ** ***  *** **   PROGRAM STARTED ON                               tcopt10
 **    ****   ******    PROGRAM STARTED BY                                hutter
 ***** **    ** ** **   PROGRAM PROCESS ID                                 79713
  **** **  *******  **  PROGRAM STARTED IN /data/hutter/GITHUB/BASIS/scMOLOPT/PB
                                           E/Ti

 CP2K| version string:                   CP2K version 10.0 (Development Version)
 CP2K| source code revision number:                                  git:13fcfd8
 CP2K| cp2kflags: omp libint fftw3 libxc elpa parallel mpi3 scalapack cosma xsmm
 CP2K|             spglib sirius libvori libbqb
 CP2K| is freely available from                            https://www.cp2k.org/
 CP2K| Program compiled at                      Tue 10 May 2022 02:27:21 PM CEST
 CP2K| Program compiled on                                               tcopt10
 CP2K| Program compiled for                                                local
 CP2K| Data directory path                   /data/hutter/GITHUB/TDLRI/cp2k/data
 CP2K| Input file name                                             TiCO4-ref.inp

 GLOBAL| Force Environment number                                              1
 GLOBAL| Basis set file name                                        ../def2QZVPP
 GLOBAL| Potential file name                                        ../POTENTIAL
 GLOBAL| MM Potential file name                                     MM_POTENTIAL
 GLOBAL| Coordinate file name                                      __STD_INPUT__
 GLOBAL| Method name                                                        CP2K
 GLOBAL| Project name                                                   refTiCO4
 GLOBAL| Run type                                                         ENERGY
 GLOBAL| FFT library                                                       FFTW3
 GLOBAL| Diagonalization library                                       ScaLAPACK
 GLOBAL| Orthonormality check for eigenvectors                          DISABLED
 GLOBAL| Matrix multiplication library                                     COSMA
 GLOBAL| All-to-all communication in single precision                          F
 GLOBAL| FFTs using library dependent lengths                                  F
 GLOBAL| Grid backend                                                       AUTO
 GLOBAL| Global print level                                                  LOW
 GLOBAL| MPI I/O enabled                                                       T
 GLOBAL| Total number of message passing processes                            24
 GLOBAL| Number of threads for this process                                    1
 GLOBAL| This output is from process                                           0
 GLOBAL| Stack size for threads created by OpenMP (OMP_STACKSIZE)        default
 GLOBAL| CPU model name                          AMD EPYC 7401 24-Core Processor
 GLOBAL| CPUID                                                              1002

 MEMORY| system memory details [Kb]
 MEMORY|                        rank 0           min           max       average
 MEMORY| MemTotal            263969136     263969136     263969136     263969136
 MEMORY| MemFree             201603964     201603964     201603964     201603964
 MEMORY| Buffers                   136           136           136           136
 MEMORY| Cached               45847800      45847800      45847800      45847800
 MEMORY| Slab                  1496824       1496824       1496824       1496824
 MEMORY| SReclaimable           940800        940800        940800        940800
 MEMORY| MemLikelyFree       248392700     248392700     248392700     248392700


 GENERATE|  Preliminary Number of Bonds generated:                             0
 GENERATE|  Achieved consistency in connectivity generation.

 *******************************************************************************
 *******************************************************************************
 **                                                                           **
 **     #####                         ##              ##                      **
 **    ##   ##            ##          ##              ##                      **
 **   ##     ##                       ##            ######                    **
 **   ##     ##  ##   ##  ##   #####  ##  ##   ####   ##    #####    #####    **
 **   ##     ##  ##   ##  ##  ##      ## ##   ##      ##   ##   ##  ##   ##   **
 **   ##  ## ##  ##   ##  ##  ##      ####     ###    ##   ######   ######    **
 **    ##  ###   ##   ##  ##  ##      ## ##      ##   ##   ##       ##        **
 **     #######   #####   ##   #####  ##  ##  ####    ##    #####   ##        **
 **           ##                                                    ##        **
 **                                                                           **
 **                                                ... make the atoms dance   **
 **                                                                           **
 **            Copyright (C) by CP2K developers group (2000-2022)             **
 **                      J. Chem. Phys. 152, 194103 (2020)                    **
 **                                                                           **
 *******************************************************************************


 TOTAL NUMBERS AND MAXIMUM NUMBERS

  Total number of            - Atomic kinds:                                   3
                             - Atoms:                                          9
                             - Shell sets:                                   163
                             - Shells:                                       163
                             - Primitive Cartesian functions:                288
                             - Cartesian basis functions:                    695
                             - Spherical basis functions:                    549

  Maximum angular momentum of the orbital basis functions:                     4


 SCF PARAMETERS         Density guess:                                   RESTART
                        --------------------------------------------------------
                        max_scf:                                             100
                        max_scf_history:                                       0
                        max_diis:                                              4
                        --------------------------------------------------------
                        eps_scf:                                        1.00E-06
                        eps_scf_history:                                0.00E+00
                        eps_diis:                                       1.00E-01
                        eps_eigval:                                     1.00E-05
                        --------------------------------------------------------
                        level_shift [a.u.]:                             0.000000
                        --------------------------------------------------------
                        Outer loop SCF in use 
                        No variables optimised in outer loop
                        eps_scf                                         1.00E-06
                        max_scf                                                1
                        No outer loop optimization
                        step_size                                       5.00E-01

 Number of electrons:                                                         78
 Number of occupied orbitals:                                                 39
 Number of molecular orbitals:                                                39

 Number of orbital functions:                                                549
 Number of independent orbital functions:                                    549

 Extrapolation method: initial_guess


 SCF WAVEFUNCTION OPTIMIZATION

  ----------------------------------- OT ---------------------------------------
  Minimizer      : DIIS                : direct inversion
                                         in the iterative subspace
                                         using   7 DIIS vectors
                                         safer DIIS on
  Preconditioner : FULL_ALL            : diagonalization, state selective
  Precond_solver : DEFAULT
  stepsize       :    0.10000000                  energy_gap     :    0.08000000
  eps_taylor     :   0.10000E-15                  max_taylor     :             4
  ----------------------------------- OT ---------------------------------------

  Step     Update method      Time    Convergence         Total energy    Change
  ------------------------------------------------------------------------------
     1 OT DIIS     0.10E+00    2.7     0.00184880      -940.3031959764 -9.40E+02
     2 OT DIIS     0.10E+00    2.8     0.00128489      -940.3093963801 -6.20E-03
     3 OT DIIS     0.10E+00    2.8     0.00011698      -940.3152180367 -5.82E-03
     4 OT DIIS     0.10E+00    2.8     0.00004951      -940.3152695287 -5.15E-05
     5 OT DIIS     0.10E+00    2.8     0.00002719      -940.3152900027 -2.05E-05
     6 OT DIIS     0.10E+00    2.8     0.00002276      -940.3152931940 -3.19E-06
     7 OT DIIS     0.10E+00    2.8     0.00001651      -940.3152989010 -5.71E-06
     8 OT DIIS     0.10E+00    2.8     0.00001175      -940.3153040627 -5.16E-06
     9 OT DIIS     0.10E+00    2.8     0.00000909      -940.3153070129 -2.95E-06
    10 OT DIIS     0.10E+00    2.8     0.00000862      -940.3153074969 -4.84E-07
    11 OT DIIS     0.10E+00    2.8     0.00000719      -940.3153091976 -1.70E-06
    12 OT DIIS     0.10E+00    2.8     0.00000671      -940.3153097819 -5.84E-07
    13 OT DIIS     0.10E+00    2.8     0.00000560      -940.3153111560 -1.37E-06
    14 OT DIIS     0.10E+00    2.8     0.00000531      -940.3153114884 -3.32E-07
    15 OT DIIS     0.10E+00    2.8     0.00000438      -940.3153124769 -9.89E-07
    16 OT DIIS     0.10E+00    2.8     0.00000417      -940.3153126747 -1.98E-07
    17 OT DIIS     0.10E+00    2.8     0.00000392      -940.3153129147 -2.40E-07
    18 OT DIIS     0.10E+00    2.8     0.00000360      -940.3153131991 -2.84E-07
    19 OT DIIS     0.10E+00    2.8     0.00000345      -940.3153133296 -1.31E-07
    20 OT DIIS     0.10E+00    2.8     0.00000293      -940.3153137650 -4.35E-07
    21 OT DIIS     0.10E+00    2.8     0.00000276      -940.3153139016 -1.37E-07
    22 OT DIIS     0.10E+00    2.8     0.00000262      -940.3153139909 -8.93E-08
    23 OT DIIS     0.10E+00    2.8     0.00000255      -940.3153140468 -5.59E-08
    24 OT DIIS     0.10E+00    2.8     0.00000237      -940.3153142021 -1.55E-07
    25 OT DIIS     0.10E+00    2.8     0.00000231      -940.3153142616 -5.95E-08
    26 OT DIIS     0.10E+00    2.8     0.00000206      -940.3153144917 -2.30E-07
    27 OT DIIS     0.10E+00    2.8     0.00000196      -940.3153145677 -7.60E-08
    28 OT DIIS     0.10E+00    2.8     0.00000184      -940.3153146669 -9.92E-08
    29 OT DIIS     0.10E+00    2.8     0.00000178      -940.3153147233 -5.65E-08
    30 OT DIIS     0.10E+00    2.5     0.00000174      -940.3153147640 -4.07E-08
    31 OT DIIS     0.10E+00    2.4     0.00000167      -940.3153148254 -6.14E-08
    32 OT DIIS     0.10E+00    2.4     0.00000160      -940.3153148918 -6.64E-08
    33 OT DIIS     0.10E+00    2.4     0.00000157      -940.3153149193 -2.75E-08
    34 OT DIIS     0.10E+00    2.4     0.00000152      -940.3153149516 -3.23E-08
    35 OT DIIS     0.10E+00    2.4     0.00000150      -940.3153149667 -1.51E-08
    36 OT DIIS     0.10E+00    2.4     0.00000148      -940.3153149892 -2.25E-08
    37 OT DIIS     0.10E+00    2.4     0.00000142      -940.3153150553 -6.61E-08
    38 OT DIIS     0.10E+00    2.4     0.00000138      -940.3153150938 -3.86E-08
    39 OT DIIS     0.10E+00    2.4     0.00000133      -940.3153151538 -5.99E-08
    40 OT DIIS     0.10E+00    2.4     0.00000129      -940.3153151999 -4.62E-08
    41 OT DIIS     0.10E+00    2.4     0.00000127      -940.3153152212 -2.13E-08
    42 OT DIIS     0.10E+00    2.4     0.00000124      -940.3153152559 -3.47E-08
    43 OT DIIS     0.10E+00    2.4     0.00000120      -940.3153153036 -4.77E-08
    44 OT DIIS     0.10E+00    2.4     0.00000116      -940.3153153500 -4.64E-08
    45 OT DIIS     0.10E+00    2.4     0.00000106      -940.3153154490 -9.90E-08
    46 OT DIIS     0.10E+00    2.4     0.00000103      -940.3153154798 -3.08E-08
    47 OT DIIS     0.10E+00    2.4     0.00000099      -940.3153155184 -3.85E-08

  *** SCF run converged in    47 steps ***


  Electronic density on regular grids:        -54.9119400859       23.0880599141
  Core density on regular grids:               78.0000000000        0.0000000000
  Hard and soft densities (Lebedev):         -180.0365539779     -156.9485042803
  Total Rho_soft + Rho1_hard - Rho1_soft      -77.9999897836
  Total charge density (r-space):               0.0000102164
  Total Rho_soft + Rho0_soft (g-space):         0.0000096683

  Overlap energy of the core charge distribution:               0.00002327069977
  Self energy of the core charge distribution:               -767.39114954177649
  Core Hamiltonian energy:                                   -176.44429235634880
  Hartree energy:                                             161.12493800021022
  Exchange-correlation energy:                                -31.53586276114046

  GAPW| Exc from hard and soft atomic rho1:                   -54.08238675867079
  GAPW| local Eh = 1 center integrals:                        -71.98658537134091

  Total energy:                                              -940.31531551836736

  outer SCF iter =    1 RMS gradient =   0.99E-06 energy =       -940.3153155184
  outer SCF loop converged in   1 iterations or   47 steps


 ENERGY| Total FORCE_EVAL ( QS ) energy [a.u.]:             -940.315315518367356

 -------------------------------------------------------------------------------
 -                                                                             -
 -                                DBCSR STATISTICS                             -
 -                                                                             -
 -------------------------------------------------------------------------------
 COUNTER                                    TOTAL       BLAS       SMM       ACC
 flops    93 x     7 x     7                 9114       0.0%    100.0%      0.0%
 flops    57 x     7 x     7                44688       0.0%    100.0%      0.0%
 flops    93 x    32 x    32               190464       0.0%    100.0%      0.0%
 flops     7 x     7 x     7               190708       0.0%    100.0%      0.0%
 flops     7 x     7 x    32               871808       0.0%    100.0%      0.0%
 flops     7 x    32 x     7               871808       0.0%    100.0%      0.0%
 flops    32 x     7 x     7               871808       0.0%    100.0%      0.0%
 flops    57 x    32 x    32               933888       0.0%    100.0%      0.0%
 flops     7 x     7 x    93              1722546       0.0%    100.0%      0.0%
 flops    32 x    32 x     7              3985408       0.0%    100.0%      0.0%
 flops     7 x    32 x    32              3985408       0.0%    100.0%      0.0%
 flops    32 x     7 x    32              3985408       0.0%    100.0%      0.0%
 flops   207 x     7 x     7              4767210       0.0%    100.0%      0.0%
 flops    93 x    93 x     7              5812128       0.0%    100.0%      0.0%
 flops     7 x    32 x    93              7874496       0.0%    100.0%      0.0%
 flops    32 x     7 x    93              7874496       0.0%    100.0%      0.0%
 flops   114 x     7 x     7              7876260       0.0%    100.0%      0.0%
 flops     7 x     7 x    57              8446032       0.0%    100.0%      0.0%
 flops    93 x     7 x    93             12108600       0.0%    100.0%      0.0%
 flops    93 x    57 x     7             14249088       0.0%    100.0%      0.0%
 flops    57 x    93 x     7             14249088       0.0%    100.0%      0.0%
 flops    32 x    32 x    32             18219008       0.0%    100.0%      0.0%
 flops   207 x    32 x     7             21792960       0.0%    100.0%      0.0%
 flops   207 x     7 x    32             21792960       0.0%    100.0%      0.0%
 flops   207 x     7 x    93             25873344       0.0%    100.0%      0.0%
 flops    93 x    93 x    32             26569728       0.0%    100.0%      0.0%
 flops    32 x    32 x    93             35997696       0.0%    100.0%      0.0%
 flops   114 x     7 x    32             36005760       0.0%    100.0%      0.0%
 flops   114 x    32 x     7             36005760       0.0%    100.0%      0.0%
 flops     7 x    32 x    57             38610432       0.0%    100.0%      0.0%
 flops    32 x     7 x    57             38610432       0.0%    100.0%      0.0%
 flops   114 x     7 x    93             42747264       0.0%    100.0%      0.0%
 flops    93 x    32 x    93             55353600       0.0%    100.0%      0.0%
 flops    57 x     7 x    93             59371200       0.0%    100.0%      0.0%
 flops    93 x     7 x    57             59371200       0.0%    100.0%      0.0%
 flops    93 x    57 x    32             65138688       0.0%    100.0%      0.0%
 flops    57 x    93 x    32             65138688       0.0%    100.0%      0.0%
 flops    57 x    57 x     7             78599808       0.0%    100.0%      0.0%
 flops   207 x    32 x    32             99624960       0.0%    100.0%      0.0%
 flops   207 x    32 x    93            118278144       0.0%    100.0%      0.0%
 flops   207 x     7 x    57            126862848       0.0%    100.0%      0.0%
 flops   114 x    32 x    32            164597760       0.0%    100.0%      0.0%
 flops    32 x    32 x    57            176504832       0.0%    100.0%      0.0%
 flops   114 x    32 x    93            195416064       0.0%    100.0%      0.0%
 flops   114 x     7 x    57            209599488       0.0%    100.0%      0.0%
 flops    57 x    32 x    93            271411200       0.0%    100.0%      0.0%
 flops    93 x    32 x    57            271411200       0.0%    100.0%      0.0%
 flops    57 x     7 x    57            291110400       0.0%    100.0%      0.0%
 flops    57 x    57 x    32            359313408       0.0%    100.0%      0.0%
 flops   207 x    32 x    57            579944448       0.0%    100.0%      0.0%
 flops   114 x    32 x    57            958169088       0.0%    100.0%      0.0%
 flops    57 x    32 x    57           1330790400       0.0%    100.0%      0.0%
 flops inhomo. stacks                           0       0.0%      0.0%      0.0%
 flops total                         5.979153E+09       0.0%    100.0%      0.0%
 flops max/rank                      1.866327E+09       0.0%    100.0%      0.0%
 matmuls inhomo. stacks                         0       0.0%      0.0%      0.0%
 matmuls total                              40238       0.0%    100.0%      0.0%
 number of processed stacks                 31590       0.0%    100.0%      0.0%
 average stack size                                     0.0       1.3       0.0
 marketing flops                     6.480674E+09
 -------------------------------------------------------------------------------
 # multiplications                            948
 max memory usage/rank             561.086464E+06
 # max total images/rank                        3
 # max 3D layers                                1
 # MPI messages exchanged                  432288
 MPI messages size (bytes):
  total size                         3.026265E+09
  min size                           0.000000E+00
  max size                         154.008000E+03
  average size                       7.000577E+03
 MPI breakdown and total messages size (bytes):
             size <=      128              334398                        0
       128 < size <=     8192               35602                130641600
      8192 < size <=    32768               25444                451845216
     32768 < size <=   131072               35864               2292834240
    131072 < size <=  4194304                 980                150927840
   4194304 < size <= 16777216                   0                        0
  16777216 < size                               0                        0
 -------------------------------------------------------------------------------

 *** WARNING in dbcsr_mm.F:290 :: Using a non-square number of MPI ranks ***
 *** might lead to poor performance. Used ranks: 24 Suggested: 25 49     ***

 -------------------------------------------------------------------------------
 -                                                                             -
 -                      DBCSR MESSAGE PASSING PERFORMANCE                      -
 -                                                                             -
 -------------------------------------------------------------------------------
 ROUTINE             CALLS      AVE VOLUME [Bytes]
 MP_Bcast               53                     12.
 MP_Allreduce         5252                      8.
 MP_Alltoall          2804                   4473.
 MP_ISend            40678                   6773.
 MP_IRecv            40396                   5029.
 -------------------------------------------------------------------------------

 -------------------------------------------------------------------------------
 -                                                                             -
 -                                GRID STATISTICS                              -
 -                                                                             -
 -------------------------------------------------------------------------------
 LP    KERNEL             BACKEND                              COUNT     PERCENT
 2     collocate ortho    REF                                 141120      11.95%
 2     integrate ortho    REF                                 138180      11.70%
 3     collocate ortho    REF                                 121152      10.26%
 3     integrate ortho    REF                                 118628      10.04%
 1     collocate ortho    REF                                 111552       9.44%
 1     integrate ortho    REF                                 109228       9.25%
 4     collocate ortho    REF                                  88896       7.53%
 4     integrate ortho    REF                                  87044       7.37%
 5     collocate ortho    REF                                  50304       4.26%
 5     integrate ortho    REF                                  49256       4.17%
 0     collocate ortho    REF                                  40800       3.45%
 0     integrate ortho    REF                                  39950       3.38%
 6     collocate ortho    REF                                  23088       1.95%
 6     integrate ortho    REF                                  22607       1.91%
 2     collocate general  REF                                  10152       0.86%
 2     integrate general  REF                                  10152       0.86%
 7     collocate ortho    REF                                   7872       0.67%
 7     integrate ortho    REF                                   7708       0.65%
 8     collocate ortho    REF                                   1824       0.15%
 8     integrate ortho    REF                                   1786       0.15%
 -------------------------------------------------------------------------------

 MEMORY| Estimated peak process memory [MiB]                                 569

 -------------------------------------------------------------------------------
 -                                                                             -
 -                         MESSAGE PASSING PERFORMANCE                         -
 -                                                                             -
 -------------------------------------------------------------------------------

 ROUTINE             CALLS      AVE VOLUME [Bytes]
 MP_Group                4
 MP_Bcast             1141                 274689.
 MP_Allreduce         2415                 478599.
 MP_Sync                10
 MP_Alltoall           958               16549256.
 MP_ISendRecv         6555                 242005.
 MP_Wait             12414
 MP_comm_split           3
 MP_ISend             5292                 675401.
 MP_IRecv             5292                 675401.
 MP_Recv                15                  30744.
 -------------------------------------------------------------------------------


 -------------------------------------------------------------------------------
 -                                                                             -
 -                           R E F E R E N C E S                               -
 -                                                                             -
 -------------------------------------------------------------------------------
 
 CP2K version 10.0 (Development Version), the CP2K developers group (2022).
 CP2K is freely available from https://www.cp2k.org/ .

 Kuehne,Thomas D.; Iannuzzi,Marcella; Del Ben,Mauro;
 Rybkin,Vladimir V.; Seewald,Patrick; Stein,Frederick; Laino,Teodoro;
 Khaliullin,Rustam Z.; Schuett,Ole; Schiffmann,Florian; Golze,Dorothea;
 Wilhelm,Jan; Chulkov,Sergey; Bani-Hashemian,Mohammad Hossein;
 Weber,Valery; Borstnik,Urban; Taillefumier,Mathieu;
 Jakobovits,Alice Shoshana; Lazzaro,Alfio; Pabst,Hans; Mueller,Tiziano;
 Schade,Robert; Guidon,Manuel; Andermatt,Samuel; Holmberg,Nico;
 Schenter,Gregory K.; Hehn,Anna; Bussy,Augustin; Belleflamme,Fabian;
 Tabacchi,Gloria; Gloess,Andreas; Lass,Michael; Bethune,Iain;
 Mundy,Christopher J.; Plessl,Christian; Watkins,Matt;
 VandeVondele,Joost; Krack,Matthias; Hutter,Juerg. 
 The Journal of Chemical Physics, 152 (19), (2020). 
 CP2K: An electronic structure and molecular dynamics software package -
 Quickstep: Efficient and accurate electronic structure calculations.
 https://doi.org/10.1063/5.0007045

 Schuett, Ole; Messmer, Peter; Hutter, Juerg; VandeVondele, Joost. 
 Electronic Structure Calculations on Graphics Processing Units, John
 Wiley & Sons, Ltd, 173-190 (2016). 
 GPU-Accelerated Sparse Matrix-Matrix Multiplication for
 Linear Scaling Density Functional Theory.
 https://doi.org/10.1002/9781118670712.ch8

 Heinecke, A; Henry, G; Hutchinson, M; Pabst, H. 
 Proceedings of Intl. Supercomputing Conference, 981-991 (2016). 
 LIBXSMM: Accelerating Small Matrix Multiplications
 by Runtime Code Generation.
 https://doi.org/10.1109/SC.2016.83

 Borstnik, U; VandeVondele, J; Weber, V; Hutter, J. 
 PARALLEL COMPUTING, 40 (5-6), 47-58 (2014). 
 Sparse matrix multiplication: The distributed block-compressed sparse
 row library.
 https://doi.org/10.1016/j.parco.2014.03.012

 Hutter, J; Iannuzzi, M; Schiffmann, F; VandeVondele, J. 
 WIREs Comput Mol Sci., 4 (1), 15-25 (2014). 
 CP2K: atomistic simulations of condensed matter systems.
 https://doi.org/10.1002/wcms.1159

 Frigo, M; Johnson, SG. 
 PROCEEDINGS OF THE IEEE, 93 (2), 216-231 (2005). 
 The design and implementation of FFTW3.
 https://doi.org/10.1109/JPROC.2004.840301

 VandeVondele, J; Hutter, J. 
 JOURNAL OF CHEMICAL PHYSICS, 118 (10), 4365-4369 (2003). 
 An efficient orbital transformation method for electronic structure
 calculations.
 https://doi.org/10.1063/1.1543154

 Lippert, G; Hutter, J; Parrinello, M. 
 THEORETICAL CHEMISTRY ACCOUNTS, 103 (2), 124-140 (1999). 
 The Gaussian and augmented-plane-wave density functional method for ab
 initio molecular dynamics simulations.
 https://doi.org/10.1007/s002140050523

 Krack, M; Parrinello, M. 
 PHYSICAL CHEMISTRY CHEMICAL PHYSICS, 2 (10), 2105-2112 (2000). 
 All-electron ab-initio molecular dynamics.
 https://doi.org/10.1039/b001167n

 Perdew, JP; Burke, K; Ernzerhof, M. 
 PHYSICAL REVIEW LETTERS, 77 (18), 3865-3868 (1996). 
 Generalized gradient approximation made simple.
 https://doi.org/10.1103/PhysRevLett.77.3865


 -------------------------------------------------------------------------------
 -                                                                             -
 -                                T I M I N G                                  -
 -                                                                             -
 -------------------------------------------------------------------------------
 SUBROUTINE                       CALLS  ASD         SELF TIME        TOTAL TIME
                                MAXIMUM       AVERAGE  MAXIMUM  AVERAGE  MAXIMUM
 CP2K                                 1  1.0    0.012    0.039  125.707  125.709
 qs_energies                          1  2.0    0.000    0.000  125.216  125.219
 scf_env_do_scf                       1  3.0    0.000    0.000  124.269  124.272
 scf_env_do_scf_inner_loop           47  4.0    0.001    0.003  121.596  121.599
 qs_ks_update_qs_env                 48  5.0    0.000    0.001  111.616  111.644
 rebuild_ks_matrix                   47  6.0    0.000    0.000  111.607  111.633
 qs_ks_build_kohn_sham_matrix        47  7.0    0.009    0.011  111.607  111.633
 mp_sum_d                          1572  7.6   41.439   44.210   41.439   44.210
 calculate_vxc_atom                  47  8.0    0.205    2.223   40.935   40.939
 gaVxcgb_GC                          94  9.0    2.017   37.709    2.017   37.709
 pw_transfer                        992 10.1    0.098    0.113   27.117   28.716
 fft_wrap_pw1pw2                    851 11.3    0.011    0.012   26.799   28.439
 fft_wrap_pw1pw2_300                566 12.7    1.671    1.756   25.666   27.145
 prepare_gapw_den                    47  8.0    0.002    0.002   25.416   25.594
 qs_vxc_create                       47  8.0    0.001    0.001   24.742   24.746
 xc_vxc_pw_create                    47  9.0    0.185    0.208   24.741   24.745
 fft3d_ps                           851 13.3   10.156   11.770   19.483   21.588
 calculate_rho_atom                 141  9.0    7.186   19.505    7.186   19.505
 xc_pw_derive                       282 11.0    0.003    0.004   14.591   16.206
 xc_rho_set_and_dset_create          47 10.0    0.148    0.184   13.979   15.095
 mp_sum_dv                          191 11.2   11.257   12.908   11.257   12.908
 xc_pw_divergence                    47 10.0    0.002    0.002   10.277   11.949
 qs_rho_update_rho                   48  5.0    0.001    0.001   11.260   11.264
 calculate_rho_elec                  48  6.0    0.089    0.090    9.836    9.836
 rs_pw_transfer                     474  9.5    0.008    0.009    8.849    9.129
 mp_alltoall_z22v                   851 15.3    6.103    8.913    6.103    8.913
 xc_functional_eval                 235 10.6    0.001    0.002    6.988    8.407
 pbe_lda_eval                       235 11.6    6.987    8.406    6.987    8.406
 sum_up_and_integrate                47  8.0    0.045    0.052    8.056    8.074
 integrate_v_rspace                  47  9.0    0.002    0.002    8.011    8.025
 density_rs2pw                       48  7.0    0.002    0.003    7.429    7.670
 yz_to_x                            427 13.9    1.629    2.001    5.336    7.370
 integrate_vhg0_rspace               47  8.0    0.913    1.241    5.775    5.790
 potential_pw2rs                     47 10.0    0.006    0.008    5.663    5.674
 x_to_yz                            424 14.7    1.571    1.788    3.965    4.661
 mp_sum_dm                         1287  7.7    4.030    4.301    4.030    4.301
 put_rho0_on_grid                    47  9.0    0.098    0.127    4.003    4.181
 calculate_rho0_atom                141  9.0    2.969    3.676    2.969    3.676
 rs_pw_transfer_RS2PW_300            95 10.0    1.914    2.181    3.362    3.659
 pw_gather_p                        427 12.9    2.770    3.620    2.770    3.620
 rs_pw_transfer_PW2RS_300            94 11.0    1.923    2.076    3.232    3.468
 pw_scatter_p                       424 13.7    2.817    3.168    2.817    3.168
 dbcsr_multiply_generic             948 10.1    0.028    0.032    2.635    2.754
 mp_waitany                        5292 11.5    2.157    2.748    2.157    2.748
 init_scf_loop                        1  4.0    0.000    0.000    2.672    2.672
 -------------------------------------------------------------------------------

 The number of warnings for this run is : 1
 
 -------------------------------------------------------------------------------
  **** **** ******  **  PROGRAM ENDED AT                 2022-05-16 12:30:56.412
 ***** ** ***  *** **   PROGRAM RAN ON                                   tcopt10
 **    ****   ******    PROGRAM RAN BY                                    hutter
 ***** **    ** ** **   PROGRAM PROCESS ID                                 79713
  **** **  *******  **  PROGRAM STOPPED IN /data/hutter/GITHUB/BASIS/scMOLOPT/PB
                                           E/Ti
