 DBCSR| CPU Multiplication driver                                           XSMM
 DBCSR| Multrec recursion limit                                              512
 DBCSR| Multiplication stack size                                           1000
 DBCSR| Maximum elements for images                                    UNLIMITED
 DBCSR| Multiplicative factor virtual images                                   1
 DBCSR| Use multiplication densification                                       T
 DBCSR| Multiplication size stacks                                             3
 DBCSR| Use memory pool for CPU allocation                                     F
 DBCSR| Number of 3D layers                                               SINGLE
 DBCSR| Use MPI memory allocation                                              F
 DBCSR| Use RMA algorithm                                                      F
 DBCSR| Use Communication thread                                               T
 DBCSR| Communication thread load                                             87
 DBCSR| MPI: My node id                                                        0
 DBCSR| MPI: Number of nodes                                                  48
 DBCSR| OMP: Current number of threads                                         1
 DBCSR| OMP: Max number of threads                                             1
 DBCSR| Split modifier for TAS multiplication algorithm                  1.0E+00


  **** **** ******  **  PROGRAM STARTED AT               2022-05-13 13:16:27.480
 ***** ** ***  *** **   PROGRAM STARTED ON                               tcopt10
 **    ****   ******    PROGRAM STARTED BY                                hutter
 ***** **    ** ** **   PROGRAM PROCESS ID                                 87772
  **** **  *******  **  PROGRAM STARTED IN /data/hutter/GITHUB/BASIS/scMOLOPT/PB
                                           E/Ti

 CP2K| version string:                   CP2K version 10.0 (Development Version)
 CP2K| source code revision number:                                  git:13fcfd8
 CP2K| cp2kflags: omp libint fftw3 libxc elpa parallel mpi3 scalapack cosma xsmm
 CP2K|             spglib sirius libvori libbqb
 CP2K| is freely available from                            https://www.cp2k.org/
 CP2K| Program compiled at                      Tue 10 May 2022 02:27:21 PM CEST
 CP2K| Program compiled on                                               tcopt10
 CP2K| Program compiled for                                                local
 CP2K| Data directory path                   /data/hutter/GITHUB/TDLRI/cp2k/data
 CP2K| Input file name                                               TiO-ref.inp

 GLOBAL| Force Environment number                                              1
 GLOBAL| Basis set file name                                        ../def2QZVPP
 GLOBAL| Potential file name                                        ../POTENTIAL
 GLOBAL| MM Potential file name                                     MM_POTENTIAL
 GLOBAL| Coordinate file name                                      __STD_INPUT__
 GLOBAL| Method name                                                        CP2K
 GLOBAL| Project name                                                     refTiO
 GLOBAL| Run type                                                         ENERGY
 GLOBAL| FFT library                                                       FFTW3
 GLOBAL| Diagonalization library                                       ScaLAPACK
 GLOBAL| Orthonormality check for eigenvectors                          DISABLED
 GLOBAL| Matrix multiplication library                                     COSMA
 GLOBAL| All-to-all communication in single precision                          F
 GLOBAL| FFTs using library dependent lengths                                  F
 GLOBAL| Grid backend                                                       AUTO
 GLOBAL| Global print level                                                  LOW
 GLOBAL| MPI I/O enabled                                                       T
 GLOBAL| Total number of message passing processes                            48
 GLOBAL| Number of threads for this process                                    1
 GLOBAL| This output is from process                                           0
 GLOBAL| Stack size for threads created by OpenMP (OMP_STACKSIZE)        default
 GLOBAL| CPU model name                          AMD EPYC 7401 24-Core Processor
 GLOBAL| CPUID                                                              1002

 MEMORY| system memory details [Kb]
 MEMORY|                        rank 0           min           max       average
 MEMORY| MemTotal            263969136     263969136     263969136     263969136
 MEMORY| MemFree             237766564     237766564     237766564     237766564
 MEMORY| Buffers                   136           136           136           136
 MEMORY| Cached               18977396      18977176      18977396      18977249
 MEMORY| Slab                  1427600       1427600       1427600       1427600
 MEMORY| SReclaimable           872744        872744        872744        872744
 MEMORY| MemLikelyFree       257616840     257616620     257616840     257616693


 GENERATE|  Preliminary Number of Bonds generated:                             0
 GENERATE|  Achieved consistency in connectivity generation.

 *******************************************************************************
 *******************************************************************************
 **                                                                           **
 **     #####                         ##              ##                      **
 **    ##   ##            ##          ##              ##                      **
 **   ##     ##                       ##            ######                    **
 **   ##     ##  ##   ##  ##   #####  ##  ##   ####   ##    #####    #####    **
 **   ##     ##  ##   ##  ##  ##      ## ##   ##      ##   ##   ##  ##   ##   **
 **   ##  ## ##  ##   ##  ##  ##      ####     ###    ##   ######   ######    **
 **    ##  ###   ##   ##  ##  ##      ## ##      ##   ##   ##       ##        **
 **     #######   #####   ##   #####  ##  ##  ####    ##    #####   ##        **
 **           ##                                                    ##        **
 **                                                                           **
 **                                                ... make the atoms dance   **
 **                                                                           **
 **            Copyright (C) by CP2K developers group (2000-2022)             **
 **                      J. Chem. Phys. 152, 194103 (2020)                    **
 **                                                                           **
 *******************************************************************************


 TOTAL NUMBERS AND MAXIMUM NUMBERS

  Total number of            - Atomic kinds:                                   2
                             - Atoms:                                          2
                             - Shell sets:                                    44
                             - Shells:                                        44
                             - Primitive Cartesian functions:                 85
                             - Cartesian basis functions:                    191
                             - Spherical basis functions:                    150

  Maximum angular momentum of the orbital basis functions:                     4


 SCF PARAMETERS         Density guess:                                   RESTART
                        --------------------------------------------------------
                        max_scf:                                              20
                        max_scf_history:                                       0
                        max_diis:                                              4
                        --------------------------------------------------------
                        eps_scf:                                        2.00E-06
                        eps_scf_history:                                0.00E+00
                        eps_diis:                                       1.00E-01
                        eps_eigval:                                     1.00E-05
                        --------------------------------------------------------
                        level_shift [a.u.]:                             0.000000
                        --------------------------------------------------------
                        Outer loop SCF in use 
                        No variables optimised in outer loop
                        eps_scf                                         2.00E-06
                        max_scf                                                2
                        No outer loop optimization
                        step_size                                       5.00E-01

 Number of electrons:                                                         30
 Number of occupied orbitals:                                                 15
 Number of molecular orbitals:                                                15

 Number of orbital functions:                                                150
 Number of independent orbital functions:                                    150

 Extrapolation method: initial_guess


 SCF WAVEFUNCTION OPTIMIZATION

  ----------------------------------- OT ---------------------------------------
  Minimizer      : DIIS                : direct inversion
                                         in the iterative subspace
                                         using   7 DIIS vectors
                                         safer DIIS on
  Preconditioner : FULL_ALL            : diagonalization, state selective
  Precond_solver : DEFAULT
  stepsize       :    0.10000000                  energy_gap     :    0.08000000
  eps_taylor     :   0.10000E-15                  max_taylor     :             4
  ----------------------------------- OT ---------------------------------------

  Step     Update method      Time    Convergence         Total energy    Change
  ------------------------------------------------------------------------------
     1 OT DIIS     0.10E+00    2.2     0.00004589      -924.4039918367 -9.24E+02
     2 OT DIIS     0.10E+00    2.5     0.00004954      -924.4039919964 -1.60E-07
     3 OT DIIS     0.10E+00    2.5     0.00002679      -924.4039920824 -8.60E-08
     4 OT DIIS     0.10E+00    2.5     0.00000837      -924.4039921296 -4.72E-08
     5 OT DIIS     0.10E+00    2.5     0.00000273      -924.4039921439 -1.43E-08
     6 OT DIIS     0.10E+00    2.5     0.00000132      -924.4039921474 -3.53E-09

  *** SCF run converged in     6 steps ***


  Electronic density on regular grids:        -19.1622720033       10.8377279967
  Core density on regular grids:               30.0000000000        0.0000000000
  Hard and soft densities (Lebedev):          -52.2639588681      -41.4262306380
  Total Rho_soft + Rho1_hard - Rho1_soft      -30.0000002334
  Total charge density (r-space):              -0.0000002334
  Total Rho_soft + Rho0_soft (g-space):        -0.0000001843

  Overlap energy of the core charge distribution:               0.00000000096508
  Self energy of the core charge distribution:               -432.20980238196597
  Core Hamiltonian energy:                                   -515.38015784722347
  Hartree energy:                                              79.24186730077174
  Exchange-correlation energy:                                -12.06533322052936

  GAPW| Exc from hard and soft atomic rho1:                   -38.20648955426917
  GAPW| local Eh = 1 center integrals:                         -5.78407644518523

  Total energy:                                              -924.40399214743627

  outer SCF iter =    1 RMS gradient =   0.13E-05 energy =       -924.4039921474
  outer SCF loop converged in   1 iterations or    6 steps


 ENERGY| Total FORCE_EVAL ( QS ) energy [a.u.]:             -924.403992147436270

 -------------------------------------------------------------------------------
 -                                                                             -
 -                                DBCSR STATISTICS                             -
 -                                                                             -
 -------------------------------------------------------------------------------
 COUNTER                                    TOTAL       BLAS       SMM       ACC
 flops    15 x    15 x    15               216000       0.0%    100.0%      0.0%
 flops    15 x    15 x    57               641250       0.0%    100.0%      0.0%
 flops    57 x    57 x    15               682290       0.0%    100.0%      0.0%
 flops    15 x    15 x    93              1046250       0.0%    100.0%      0.0%
 flops    57 x    93 x    15              1113210       0.0%    100.0%      0.0%
 flops    57 x    15 x    57              1754460       0.0%    100.0%      0.0%
 flops    93 x    93 x    15              1816290       0.0%    100.0%      0.0%
 flops   150 x    15 x    15              2092500       0.0%    100.0%      0.0%
 flops    57 x    15 x    93              2862540       0.0%    100.0%      0.0%
 flops    93 x    15 x    57              2862540       0.0%    100.0%      0.0%
 flops   150 x    15 x    57              3591000       0.0%    100.0%      0.0%
 flops    93 x    15 x    93              4670460       0.0%    100.0%      0.0%
 flops   150 x    15 x    93              5859000       0.0%    100.0%      0.0%
 flops inhomo. stacks                           0       0.0%      0.0%      0.0%
 flops total                        29.207790E+06       0.0%    100.0%      0.0%
 flops max/rank                     28.525500E+06       0.0%    100.0%      0.0%
 matmuls inhomo. stacks                         0       0.0%      0.0%      0.0%
 matmuls total                                234       0.0%    100.0%      0.0%
 number of processed stacks                   234       0.0%    100.0%      0.0%
 average stack size                                     0.0       1.0       0.0
 marketing flops                    30.388500E+06
 -------------------------------------------------------------------------------
 # multiplications                            128
 max memory usage/rank             662.753280E+06
 # max total images/rank                        3
 # max 3D layers                                1
 # MPI messages exchanged                  122880
 MPI messages size (bytes):
  total size                        80.263800E+06
  min size                           0.000000E+00
  max size                         111.600000E+03
  average size                     653.188477E+00
 MPI breakdown and total messages size (bytes):
             size <=      128              120283                        0
       128 < size <=     8192                1008                  4168080
      8192 < size <=    32768                 885                 12735720
     32768 < size <=   131072                 704                 63360000
    131072 < size <=  4194304                   0                        0
   4194304 < size <= 16777216                   0                        0
  16777216 < size                               0                        0
 -------------------------------------------------------------------------------

 *** WARNING in dbcsr_mm.F:290 :: Using a non-square number of MPI ranks ***
 *** might lead to poor performance. Used ranks: 48 Suggested: 49 100    ***

 -------------------------------------------------------------------------------
 -                                                                             -
 -                      DBCSR MESSAGE PASSING PERFORMANCE                      -
 -                                                                             -
 -------------------------------------------------------------------------------
 ROUTINE             CALLS      AVE VOLUME [Bytes]
 MP_Bcast               14                     12.
 MP_Allreduce          705                      9.
 MP_Alltoall           566                   7894.
 MP_ISend             5742                   1705.
 MP_IRecv             5642                    530.
 -------------------------------------------------------------------------------

 -------------------------------------------------------------------------------
 -                                                                             -
 -                                GRID STATISTICS                              -
 -                                                                             -
 -------------------------------------------------------------------------------
 LP    KERNEL             BACKEND                              COUNT     PERCENT
 2     collocate ortho    REF                                   2296      11.90%
 2     integrate ortho    REF                                   1968      10.20%
 3     collocate ortho    REF                                   1925       9.98%
 1     collocate ortho    REF                                   1785       9.25%
 3     integrate ortho    REF                                   1650       8.55%
 1     integrate ortho    REF                                   1530       7.93%
 4     collocate ortho    REF                                   1505       7.80%
 4     integrate ortho    REF                                   1290       6.69%
 5     collocate ortho    REF                                    959       4.97%
 5     integrate ortho    REF                                    822       4.26%
 0     collocate ortho    REF                                    658       3.41%
 2     collocate general  REF                                    576       2.99%
 2     integrate general  REF                                    576       2.99%
 0     integrate ortho    REF                                    564       2.92%
 6     collocate ortho    REF                                    427       2.21%
 6     integrate ortho    REF                                    366       1.90%
 7     collocate ortho    REF                                    161       0.83%
 7     integrate ortho    REF                                    138       0.72%
 8     collocate ortho    REF                                     49       0.25%
 8     integrate ortho    REF                                     42       0.22%
 -------------------------------------------------------------------------------

 MEMORY| Estimated peak process memory [MiB]                                 666

 -------------------------------------------------------------------------------
 -                                                                             -
 -                         MESSAGE PASSING PERFORMANCE                         -
 -                                                                             -
 -------------------------------------------------------------------------------

 ROUTINE             CALLS      AVE VOLUME [Bytes]
 MP_Group                4
 MP_Bcast              118                1567914.
 MP_Allreduce          555                 153061.
 MP_Sync                10
 MP_Alltoall           140               24782984.
 MP_ISendRecv         1222                 168768.
 MP_Wait              2210
 MP_comm_split           3
 MP_ISend              836                1060119.
 MP_IRecv              836                1060503.
 MP_Recv                 7                   2400.
 -------------------------------------------------------------------------------


 -------------------------------------------------------------------------------
 -                                                                             -
 -                           R E F E R E N C E S                               -
 -                                                                             -
 -------------------------------------------------------------------------------
 
 CP2K version 10.0 (Development Version), the CP2K developers group (2022).
 CP2K is freely available from https://www.cp2k.org/ .

 Kuehne,Thomas D.; Iannuzzi,Marcella; Del Ben,Mauro;
 Rybkin,Vladimir V.; Seewald,Patrick; Stein,Frederick; Laino,Teodoro;
 Khaliullin,Rustam Z.; Schuett,Ole; Schiffmann,Florian; Golze,Dorothea;
 Wilhelm,Jan; Chulkov,Sergey; Bani-Hashemian,Mohammad Hossein;
 Weber,Valery; Borstnik,Urban; Taillefumier,Mathieu;
 Jakobovits,Alice Shoshana; Lazzaro,Alfio; Pabst,Hans; Mueller,Tiziano;
 Schade,Robert; Guidon,Manuel; Andermatt,Samuel; Holmberg,Nico;
 Schenter,Gregory K.; Hehn,Anna; Bussy,Augustin; Belleflamme,Fabian;
 Tabacchi,Gloria; Gloess,Andreas; Lass,Michael; Bethune,Iain;
 Mundy,Christopher J.; Plessl,Christian; Watkins,Matt;
 VandeVondele,Joost; Krack,Matthias; Hutter,Juerg. 
 The Journal of Chemical Physics, 152 (19), (2020). 
 CP2K: An electronic structure and molecular dynamics software package -
 Quickstep: Efficient and accurate electronic structure calculations.
 https://doi.org/10.1063/5.0007045

 Schuett, Ole; Messmer, Peter; Hutter, Juerg; VandeVondele, Joost. 
 Electronic Structure Calculations on Graphics Processing Units, John
 Wiley & Sons, Ltd, 173-190 (2016). 
 GPU-Accelerated Sparse Matrix-Matrix Multiplication for
 Linear Scaling Density Functional Theory.
 https://doi.org/10.1002/9781118670712.ch8

 Heinecke, A; Henry, G; Hutchinson, M; Pabst, H. 
 Proceedings of Intl. Supercomputing Conference, 981-991 (2016). 
 LIBXSMM: Accelerating Small Matrix Multiplications
 by Runtime Code Generation.
 https://doi.org/10.1109/SC.2016.83

 Borstnik, U; VandeVondele, J; Weber, V; Hutter, J. 
 PARALLEL COMPUTING, 40 (5-6), 47-58 (2014). 
 Sparse matrix multiplication: The distributed block-compressed sparse
 row library.
 https://doi.org/10.1016/j.parco.2014.03.012

 Hutter, J; Iannuzzi, M; Schiffmann, F; VandeVondele, J. 
 WIREs Comput Mol Sci., 4 (1), 15-25 (2014). 
 CP2K: atomistic simulations of condensed matter systems.
 https://doi.org/10.1002/wcms.1159

 Frigo, M; Johnson, SG. 
 PROCEEDINGS OF THE IEEE, 93 (2), 216-231 (2005). 
 The design and implementation of FFTW3.
 https://doi.org/10.1109/JPROC.2004.840301

 VandeVondele, J; Hutter, J. 
 JOURNAL OF CHEMICAL PHYSICS, 118 (10), 4365-4369 (2003). 
 An efficient orbital transformation method for electronic structure
 calculations.
 https://doi.org/10.1063/1.1543154

 Lippert, G; Hutter, J; Parrinello, M. 
 THEORETICAL CHEMISTRY ACCOUNTS, 103 (2), 124-140 (1999). 
 The Gaussian and augmented-plane-wave density functional method for ab
 initio molecular dynamics simulations.
 https://doi.org/10.1007/s002140050523

 Krack, M; Parrinello, M. 
 PHYSICAL CHEMISTRY CHEMICAL PHYSICS, 2 (10), 2105-2112 (2000). 
 All-electron ab-initio molecular dynamics.
 https://doi.org/10.1039/b001167n

 Perdew, JP; Burke, K; Ernzerhof, M. 
 PHYSICAL REVIEW LETTERS, 77 (18), 3865-3868 (1996). 
 Generalized gradient approximation made simple.
 https://doi.org/10.1103/PhysRevLett.77.3865


 -------------------------------------------------------------------------------
 -                                                                             -
 -                                T I M I N G                                  -
 -                                                                             -
 -------------------------------------------------------------------------------
 SUBROUTINE                       CALLS  ASD         SELF TIME        TOTAL TIME
                                MAXIMUM       AVERAGE  MAXIMUM  AVERAGE  MAXIMUM
 CP2K                                 1  1.0    0.017    0.045   16.262   16.263
 qs_energies                          1  2.0    0.000    0.000   15.788   15.789
 scf_env_do_scf                       1  3.0    0.000    0.000   15.109   15.110
 scf_env_do_scf_inner_loop            6  4.0    0.000    0.000   12.950   12.951
 qs_ks_update_qs_env                  7  5.0    0.000    0.000   12.479   12.480
 rebuild_ks_matrix                    6  6.0    0.000    0.000   12.477   12.479
 qs_ks_build_kohn_sham_matrix         6  7.0    0.002    0.002   12.477   12.479
 pw_transfer                        131 10.1    0.020    0.024    6.997    7.676
 fft_wrap_pw1pw2                    113 11.2    0.002    0.003    6.886    7.568
 fft_wrap_pw1pw2_400                 74 12.6    0.590    0.621    6.571    7.230
 fft3d_ps                           113 13.2    2.535    2.780    4.833    5.581
 qs_vxc_create                        6  8.0    0.000    0.000    5.418    5.418
 xc_vxc_pw_create                     6  9.0    0.036    0.045    5.417    5.418
 xc_pw_derive                        36 11.0    0.001    0.001    3.838    4.520
 xc_pw_divergence                     6 10.0    0.000    0.001    2.637    3.308
 rs_pw_transfer                      64  9.4    0.002    0.003    3.118    3.186
 xc_rho_set_and_dset_create           6 10.0    0.043    0.054    2.705    3.147
 qs_rho_update_rho                    7  5.0    0.000    0.000    2.893    2.894
 calculate_rho_elec                   7  6.0    0.021    0.022    2.850    2.850
 density_rs2pw                        7  7.0    0.001    0.001    2.450    2.532
 prepare_gapw_den                     6  8.0    0.000    0.000    2.191    2.213
 init_scf_loop                        1  4.0    0.000    0.000    2.158    2.158
 yz_to_x                             58 13.8    0.524    0.600    1.345    2.037
 mp_alltoall_z22v                   113 15.2    1.265    2.019    1.265    2.019
 sum_up_and_integrate                 6  8.0    0.017    0.020    1.987    2.000
 integrate_v_rspace                   6  9.0    0.000    0.000    1.970    1.982
 potential_pw2rs                      6 10.0    0.001    0.001    1.665    1.668
 rs_pw_transfer_RS2PW_400            13  9.9    0.863    0.940    1.220    1.297
 xc_functional_eval                  30 10.9    0.000    0.000    0.772    1.214
 pbe_lda_eval                        30 11.9    0.772    1.214    0.772    1.214
 put_rho0_on_grid                     6  9.0    0.019    0.027    1.191    1.213
 rs_pw_transfer_PW2RS_400            12 11.0    0.771    0.793    1.134    1.167
 mp_sum_d                           586  3.0    1.044    1.113    1.044    1.113
 x_to_yz                             55 14.6    0.499    0.534    0.943    1.020
 integrate_vhg0_rspace                6  8.0    0.059    0.124    1.006    1.016
 calculate_vxc_atom                   6  8.0    0.003    0.046    0.841    0.841
 calculate_rho_atom                  12  9.0    0.258    0.839    0.258    0.839
 mp_waitany                         836 11.4    0.688    0.783    0.688    0.783
 gaVxcgb_GC                          12  9.0    0.016    0.772    0.016    0.772
 pw_scatter_p                        55 13.6    0.730    0.752    0.730    0.752
 pw_gather_p                         58 12.8    0.710    0.742    0.710    0.742
 grid_collocate_task_list             7  7.0    0.362    0.686    0.362    0.686
 calculate_rho0_atom                 12  9.0    0.567    0.608    0.567    0.608
 init_scf_run                         1  3.0    0.000    0.000    0.439    0.439
 scf_env_initial_rho_setup            1  4.0    0.000    0.000    0.439    0.439
 pw_derive                           36 12.0    0.374    0.397    0.374    0.397
 qs_init_subsys                       1  2.0    0.005    0.005    0.396    0.396
 mp_sum_dv                           27 11.1    0.174    0.329    0.174    0.329
 -------------------------------------------------------------------------------

 The number of warnings for this run is : 1
 
 -------------------------------------------------------------------------------
  **** **** ******  **  PROGRAM ENDED AT                 2022-05-13 13:16:44.186
 ***** ** ***  *** **   PROGRAM RAN ON                                   tcopt10
 **    ****   ******    PROGRAM RAN BY                                    hutter
 ***** **    ** ** **   PROGRAM PROCESS ID                                 87772
  **** **  *******  **  PROGRAM STOPPED IN /data/hutter/GITHUB/BASIS/scMOLOPT/PB
                                           E/Ti
