 DBCSR| CPU Multiplication driver                                           XSMM
 DBCSR| Multrec recursion limit                                              512
 DBCSR| Multiplication stack size                                           1000
 DBCSR| Maximum elements for images                                    UNLIMITED
 DBCSR| Multiplicative factor virtual images                                   1
 DBCSR| Use multiplication densification                                       T
 DBCSR| Multiplication size stacks                                             3
 DBCSR| Use memory pool for CPU allocation                                     F
 DBCSR| Number of 3D layers                                               SINGLE
 DBCSR| Use MPI memory allocation                                              F
 DBCSR| Use RMA algorithm                                                      F
 DBCSR| Use Communication thread                                               T
 DBCSR| Communication thread load                                             87
 DBCSR| MPI: My node id                                                        0
 DBCSR| MPI: Number of nodes                                                  36
 DBCSR| OMP: Current number of threads                                         1
 DBCSR| OMP: Max number of threads                                             1
 DBCSR| Split modifier for TAS multiplication algorithm                  1.0E+00


  **** **** ******  **  PROGRAM STARTED AT               2022-05-13 11:46:56.742
 ***** ** ***  *** **   PROGRAM STARTED ON                               tcopt10
 **    ****   ******    PROGRAM STARTED BY                                hutter
 ***** **    ** ** **   PROGRAM PROCESS ID                                 76119
  **** **  *******  **  PROGRAM STARTED IN /data/hutter/GITHUB/BASIS/scMOLOPT/PB
                                           E/Ti

 CP2K| version string:                   CP2K version 10.0 (Development Version)
 CP2K| source code revision number:                                  git:13fcfd8
 CP2K| cp2kflags: omp libint fftw3 libxc elpa parallel mpi3 scalapack cosma xsmm
 CP2K|             spglib sirius libvori libbqb
 CP2K| is freely available from                            https://www.cp2k.org/
 CP2K| Program compiled at                      Tue 10 May 2022 02:27:21 PM CEST
 CP2K| Program compiled on                                               tcopt10
 CP2K| Program compiled for                                                local
 CP2K| Data directory path                   /data/hutter/GITHUB/TDLRI/cp2k/data
 CP2K| Input file name                                              TiO2-ref.inp

 GLOBAL| Force Environment number                                              1
 GLOBAL| Basis set file name                                        ../def2QZVPP
 GLOBAL| Potential file name                                        ../POTENTIAL
 GLOBAL| MM Potential file name                                     MM_POTENTIAL
 GLOBAL| Coordinate file name                                      __STD_INPUT__
 GLOBAL| Method name                                                        CP2K
 GLOBAL| Project name                                                    refTiO2
 GLOBAL| Run type                                                         ENERGY
 GLOBAL| FFT library                                                       FFTW3
 GLOBAL| Diagonalization library                                       ScaLAPACK
 GLOBAL| Orthonormality check for eigenvectors                          DISABLED
 GLOBAL| Matrix multiplication library                                     COSMA
 GLOBAL| All-to-all communication in single precision                          F
 GLOBAL| FFTs using library dependent lengths                                  F
 GLOBAL| Grid backend                                                       AUTO
 GLOBAL| Global print level                                                  LOW
 GLOBAL| MPI I/O enabled                                                       T
 GLOBAL| Total number of message passing processes                            36
 GLOBAL| Number of threads for this process                                    1
 GLOBAL| This output is from process                                           0
 GLOBAL| Stack size for threads created by OpenMP (OMP_STACKSIZE)        default
 GLOBAL| CPU model name                          AMD EPYC 7401 24-Core Processor
 GLOBAL| CPUID                                                              1002

 MEMORY| system memory details [Kb]
 MEMORY|                        rank 0           min           max       average
 MEMORY| MemTotal            263969136     263969136     263969136     263969136
 MEMORY| MemFree             238880020     238880020     238880020     238880020
 MEMORY| Buffers                   136           136           136           136
 MEMORY| Cached               18971424      18971420      18971424      18971420
 MEMORY| Slab                  1426944       1426944       1426944       1426944
 MEMORY| SReclaimable           872432        872432        872432        872432
 MEMORY| MemLikelyFree       258724012     258724008     258724012     258724008


 GENERATE|  Preliminary Number of Bonds generated:                             0
 GENERATE|  Achieved consistency in connectivity generation.

 *******************************************************************************
 *******************************************************************************
 **                                                                           **
 **     #####                         ##              ##                      **
 **    ##   ##            ##          ##              ##                      **
 **   ##     ##                       ##            ######                    **
 **   ##     ##  ##   ##  ##   #####  ##  ##   ####   ##    #####    #####    **
 **   ##     ##  ##   ##  ##  ##      ## ##   ##      ##   ##   ##  ##   ##   **
 **   ##  ## ##  ##   ##  ##  ##      ####     ###    ##   ######   ######    **
 **    ##  ###   ##   ##  ##  ##      ## ##      ##   ##   ##       ##        **
 **     #######   #####   ##   #####  ##  ##  ####    ##    #####   ##        **
 **           ##                                                    ##        **
 **                                                                           **
 **                                                ... make the atoms dance   **
 **                                                                           **
 **            Copyright (C) by CP2K developers group (2000-2022)             **
 **                      J. Chem. Phys. 152, 194103 (2020)                    **
 **                                                                           **
 *******************************************************************************


 TOTAL NUMBERS AND MAXIMUM NUMBERS

  Total number of            - Atomic kinds:                                   2
                             - Atoms:                                          3
                             - Shell sets:                                    61
                             - Shells:                                        61
                             - Primitive Cartesian functions:                114
                             - Cartesian basis functions:                    263
                             - Spherical basis functions:                    207

  Maximum angular momentum of the orbital basis functions:                     4


 SCF PARAMETERS         Density guess:                                    ATOMIC
                        --------------------------------------------------------
                        max_scf:                                              20
                        max_scf_history:                                       0
                        max_diis:                                              4
                        --------------------------------------------------------
                        eps_scf:                                        5.00E-07
                        eps_scf_history:                                0.00E+00
                        eps_diis:                                       1.00E-01
                        eps_eigval:                                     1.00E-05
                        --------------------------------------------------------
                        level_shift [a.u.]:                             0.000000
                        --------------------------------------------------------
                        Outer loop SCF in use 
                        No variables optimised in outer loop
                        eps_scf                                         5.00E-07
                        max_scf                                                5
                        No outer loop optimization
                        step_size                                       5.00E-01

 Number of electrons:                                                         38
 Number of occupied orbitals:                                                 19
 Number of molecular orbitals:                                                19

 Number of orbital functions:                                                207
 Number of independent orbital functions:                                    207

 Extrapolation method: initial_guess


 SCF WAVEFUNCTION OPTIMIZATION

  ----------------------------------- OT ---------------------------------------
  Minimizer      : DIIS                : direct inversion
                                         in the iterative subspace
                                         using   7 DIIS vectors
                                         safer DIIS on
  Preconditioner : FULL_ALL            : diagonalization, state selective
  Precond_solver : DEFAULT
  stepsize       :    0.10000000                  energy_gap     :    0.08000000
  eps_taylor     :   0.10000E-15                  max_taylor     :             4
  ----------------------------------- OT ---------------------------------------

  Step     Update method      Time    Convergence         Total energy    Change
  ------------------------------------------------------------------------------
     1 OT DIIS     0.10E+00    1.7     0.34715590      -945.2232838524 -9.45E+02
     2 OT DIIS     0.10E+00    2.0     0.19424760      -982.5096765115 -3.73E+01
     3 OT DIIS     0.10E+00    2.0     0.04793753      -996.5682741326 -1.41E+01
     4 OT DIIS     0.10E+00    2.0     0.02487306      -997.1117647296 -5.43E-01
     5 OT DIIS     0.10E+00    2.0     0.01287450      -997.4337343090 -3.22E-01
     6 OT DIIS     0.10E+00    2.0     0.01138705      -997.5888584759 -1.55E-01
     7 OT DIIS     0.10E+00    2.0     0.01066685      -997.9490827661 -3.60E-01
     8 OT DIIS     0.10E+00    2.0     0.00780677      -998.2002120988 -2.51E-01
     9 OT DIIS     0.10E+00    2.0     0.00661134      -998.3408816546 -1.41E-01
    10 OT DIIS     0.10E+00    2.0     0.00631073      -998.4143085763 -7.34E-02
    11 OT DIIS     0.10E+00    2.0     0.00516319      -998.6059778540 -1.92E-01
    12 OT DIIS     0.10E+00    2.0     0.00499627      -998.6235509221 -1.76E-02
    13 OT DIIS     0.10E+00    2.0     0.00426635      -998.7180078973 -9.45E-02
    14 OT DIIS     0.10E+00    2.0     0.00400936      -998.7718887856 -5.39E-02
    15 OT DIIS     0.10E+00    2.0     0.00414924      -998.7786819791 -6.79E-03
    16 OT DIIS     0.10E+00    2.0     0.00373643      -998.8158653533 -3.72E-02
    17 OT DIIS     0.10E+00    2.0     0.00364194      -998.8574261550 -4.16E-02
    18 OT DIIS     0.10E+00    2.0     0.00352849      -998.8717143355 -1.43E-02
    19 OT DIIS     0.10E+00    2.0     0.00346597      -998.9083276278 -3.66E-02
    20 OT DIIS     0.10E+00    2.0     0.00341491      -998.9219751263 -1.36E-02

  Leaving inner SCF loop after reaching    20 steps.


  Electronic density on regular grids:        -24.9524447997       13.0475552003
  Core density on regular grids:               38.0000000000        0.0000000000
  Hard and soft densities (Lebedev):          -75.5419023892      -62.4943482183
  Total Rho_soft + Rho1_hard - Rho1_soft      -37.9999989706
  Total charge density (r-space):               0.0000010294
  Total Rho_soft + Rho0_soft (g-space):         0.0000010374

  Overlap energy of the core charge distribution:               0.00000000083982
  Self energy of the core charge distribution:               -505.11992260983453
  Core Hamiltonian energy:                                   -521.18002717719924
  Hartree energy:                                              91.38059363649245
  Exchange-correlation energy:                                -15.24331886720909

  GAPW| Exc from hard and soft atomic rho1:                   -43.45859812063046
  GAPW| local Eh = 1 center integrals:                         -5.30070198874378

  Total energy:                                              -998.92197512628479

  outer SCF iter =    1 RMS gradient =   0.34E-02 energy =       -998.9219751263

  ----------------------------------- OT ---------------------------------------
  Minimizer      : DIIS                : direct inversion
                                         in the iterative subspace
                                         using   7 DIIS vectors
                                         safer DIIS on
  Preconditioner : FULL_ALL            : diagonalization, state selective
  Precond_solver : DEFAULT
  stepsize       :    0.10000000                  energy_gap     :    0.08000000
  eps_taylor     :   0.10000E-15                  max_taylor     :             4
  ----------------------------------- OT ---------------------------------------

  Step     Update method      Time    Convergence         Total energy    Change
  ------------------------------------------------------------------------------
     1 OT DIIS     0.10E+00    4.1     0.04067359      -998.9924989724 -7.05E-02
     2 OT DIIS     0.10E+00    2.0     0.06145719      -999.2446438882 -2.52E-01
     3 OT DIIS     0.10E+00    2.0     0.02245049      -999.5218841243 -2.77E-01
     4 OT DIIS     0.10E+00    2.0     0.05415091      -999.5523854107 -3.05E-02
     5 OT DIIS     0.10E+00    2.0     0.01580108      -999.6518777430 -9.95E-02
     6 OT DIIS     0.10E+00    2.0     0.01543187      -999.6679516508 -1.61E-02
     7 OT DIIS     0.10E+00    2.0     0.00919073      -999.6902259867 -2.23E-02
     8 OT DIIS     0.10E+00    2.0     0.00456496      -999.7025714903 -1.23E-02
     9 OT DIIS     0.10E+00    2.0     0.00316504      -999.7049724201 -2.40E-03
    10 OT DIIS     0.10E+00    2.0     0.00074202      -999.7067025867 -1.73E-03
    11 OT DIIS     0.10E+00    1.9     0.00073788      -999.7068127054 -1.10E-04
    12 OT DIIS     0.10E+00    2.0     0.00046403      -999.7068969942 -8.43E-05
    13 OT DIIS     0.10E+00    2.0     0.00034369      -999.7069310628 -3.41E-05
    14 OT DIIS     0.10E+00    2.0     0.00014628      -999.7069544969 -2.34E-05
    15 OT DIIS     0.10E+00    2.0     0.00004514      -999.7069613083 -6.81E-06
    16 OT DIIS     0.10E+00    2.0     0.00001477      -999.7069628407 -1.53E-06
    17 OT DIIS     0.10E+00    1.9     0.00000744      -999.7069630171 -1.76E-07
    18 OT DIIS     0.10E+00    2.0     0.00000359      -999.7069630477 -3.06E-08
    19 OT DIIS     0.10E+00    2.0     0.00000199      -999.7069630558 -8.11E-09
    20 OT DIIS     0.10E+00    2.0     0.00000099      -999.7069630591 -3.21E-09

  Leaving inner SCF loop after reaching    20 steps.


  Electronic density on regular grids:        -24.8658423260       13.1341576740
  Core density on regular grids:               38.0000000000        0.0000000000
  Hard and soft densities (Lebedev):          -76.7089725884      -63.5748147014
  Total Rho_soft + Rho1_hard - Rho1_soft      -38.0000002129
  Total charge density (r-space):              -0.0000002129
  Total Rho_soft + Rho0_soft (g-space):        -0.0000002041

  Overlap energy of the core charge distribution:               0.00000000083982
  Self energy of the core charge distribution:               -505.11992260983453
  Core Hamiltonian energy:                                   -521.57339460045682
  Hartree energy:                                              91.26324879378768
  Exchange-correlation energy:                                -15.39625054049616

  GAPW| Exc from hard and soft atomic rho1:                   -43.52194678172222
  GAPW| local Eh = 1 center integrals:                         -5.35869732117066

  Total energy:                                              -999.70696305905301

  outer SCF iter =    2 RMS gradient =   0.99E-06 energy =       -999.7069630591

  ----------------------------------- OT ---------------------------------------
  Minimizer      : DIIS                : direct inversion
                                         in the iterative subspace
                                         using   7 DIIS vectors
                                         safer DIIS on
  Preconditioner : FULL_ALL            : diagonalization, state selective
  Precond_solver : DEFAULT
  stepsize       :    0.10000000                  energy_gap     :    0.08000000
  eps_taylor     :   0.10000E-15                  max_taylor     :             4
  ----------------------------------- OT ---------------------------------------

  Step     Update method      Time    Convergence         Total energy    Change
  ------------------------------------------------------------------------------
     1 OT DIIS     0.10E+00    4.0     0.00000053      -999.7069630624 -3.34E-09
     2 OT DIIS     0.10E+00    2.0     0.00000071      -999.7069630619  5.09E-10
     3 OT DIIS     0.10E+00    1.9     0.00000027      -999.7069630620 -1.44E-10

  *** SCF run converged in     3 steps ***


  Electronic density on regular grids:        -24.8658424070       13.1341575930
  Core density on regular grids:               38.0000000000        0.0000000000
  Hard and soft densities (Lebedev):          -76.7089700608      -63.5748122548
  Total Rho_soft + Rho1_hard - Rho1_soft      -38.0000002130
  Total charge density (r-space):              -0.0000002130
  Total Rho_soft + Rho0_soft (g-space):        -0.0000002041

  Overlap energy of the core charge distribution:               0.00000000083982
  Self energy of the core charge distribution:               -505.11992260983453
  Core Hamiltonian energy:                                   -521.57340286919657
  Hartree energy:                                              91.26325319981831
  Exchange-correlation energy:                                -15.39625055950843

  GAPW| Exc from hard and soft atomic rho1:                   -43.52194913465033
  GAPW| local Eh = 1 center integrals:                         -5.35869108949638

  Total energy:                                              -999.70696306202808

  outer SCF iter =    3 RMS gradient =   0.27E-06 energy =       -999.7069630620
  outer SCF loop converged in   3 iterations or   43 steps


 ENERGY| Total FORCE_EVAL ( QS ) energy [a.u.]:             -999.706963062028080

 -------------------------------------------------------------------------------
 -                                                                             -
 -                                DBCSR STATISTICS                             -
 -                                                                             -
 -------------------------------------------------------------------------------
 COUNTER                                    TOTAL       BLAS       SMM       ACC
 flops    19 x    19 x    19              4815018       0.0%    100.0%      0.0%
 flops    57 x    93 x    19              8863272       0.0%    100.0%      0.0%
 flops    93 x    57 x    19              8863272       0.0%    100.0%      0.0%
 flops    19 x    19 x    93             11750550       0.0%    100.0%      0.0%
 flops    19 x    19 x    57             14403900       0.0%    100.0%      0.0%
 flops    93 x    93 x    19             14461128       0.0%    100.0%      0.0%
 flops    93 x    19 x    19             14637828       0.0%    100.0%      0.0%
 flops    57 x    57 x    19             16296984       0.0%    100.0%      0.0%
 flops    57 x    19 x    19             17943144       0.0%    100.0%      0.0%
 flops    93 x    19 x    93             65075076       0.0%    100.0%      0.0%
 flops    93 x    19 x    57             79769448       0.0%    100.0%      0.0%
 flops    57 x    19 x    93             79769448       0.0%    100.0%      0.0%
 flops    57 x    19 x    57             97781904       0.0%    100.0%      0.0%
 flops inhomo. stacks                           0       0.0%      0.0%      0.0%
 flops total                       434.430972E+06       0.0%    100.0%      0.0%
 flops max/rank                    204.912948E+06       0.0%    100.0%      0.0%
 matmuls inhomo. stacks                         0       0.0%      0.0%      0.0%
 matmuls total                               3576       0.0%    100.0%      0.0%
 number of processed stacks                  3576       0.0%    100.0%      0.0%
 average stack size                                     0.0       1.0       0.0
 marketing flops                   458.038592E+06
 -------------------------------------------------------------------------------
 # multiplications                            989
 max memory usage/rank             590.999552E+06
 # max total images/rank                        1
 # max 3D layers                                1
 # MPI messages exchanged                  356040
 MPI messages size (bytes):
  total size                       487.000128E+06
  min size                           0.000000E+00
  max size                          69.192000E+03
  average size                       1.367824E+03
 MPI breakdown and total messages size (bytes):
             size <=      128              329720                        0
       128 < size <=     8192                4600                 13284800
      8192 < size <=    32768               16770                237279600
     32768 < size <=   131072                4950                236435760
    131072 < size <=  4194304                   0                        0
   4194304 < size <= 16777216                   0                        0
  16777216 < size                               0                        0
 -------------------------------------------------------------------------------
 -                                                                             -
 -                      DBCSR MESSAGE PASSING PERFORMANCE                      -
 -                                                                             -
 -------------------------------------------------------------------------------
 ROUTINE             CALLS      AVE VOLUME [Bytes]
 MP_Bcast               14                     12.
 MP_Allreduce         5278                      8.
 MP_Alltoall          3724                   3427.
 MP_ISend            23724                   2363.
 MP_IRecv            23724                   1164.
 -------------------------------------------------------------------------------

 -------------------------------------------------------------------------------
 -                                                                             -
 -                                GRID STATISTICS                              -
 -                                                                             -
 -------------------------------------------------------------------------------
 LP    KERNEL             BACKEND                              COUNT     PERCENT
 2     collocate ortho    REF                                  28952      11.76%
 2     integrate ortho    REF                                  28294      11.49%
 3     collocate ortho    REF                                  24904      10.12%
 3     integrate ortho    REF                                  24338       9.89%
 1     collocate ortho    REF                                  22792       9.26%
 1     integrate ortho    REF                                  22274       9.05%
 4     collocate ortho    REF                                  17600       7.15%
 4     integrate ortho    REF                                  17200       6.99%
 5     collocate ortho    REF                                  10736       4.36%
 5     integrate ortho    REF                                  10492       4.26%
 0     collocate ortho    REF                                   7788       3.16%
 0     integrate ortho    REF                                   7611       3.09%
 6     collocate ortho    REF                                   4884       1.98%
 6     integrate ortho    REF                                   4773       1.94%
 2     collocate general  REF                                   4644       1.89%
 2     integrate general  REF                                   4644       1.89%
 7     collocate ortho    REF                                   1672       0.68%
 7     integrate ortho    REF                                   1634       0.66%
 8     collocate ortho    REF                                    484       0.20%
 8     integrate ortho    REF                                    473       0.19%
 -------------------------------------------------------------------------------

 MEMORY| Estimated peak process memory [MiB]                                 572

 -------------------------------------------------------------------------------
 -                                                                             -
 -                         MESSAGE PASSING PERFORMANCE                         -
 -                                                                             -
 -------------------------------------------------------------------------------

 ROUTINE             CALLS      AVE VOLUME [Bytes]
 MP_Group                4
 MP_Bcast             1176                 177310.
 MP_Allreduce         3352                 196978.
 MP_Sync               102
 MP_Alltoall           880               18331005.
 MP_ISendRecv         6090                 120528.
 MP_Wait             11810
 MP_comm_split          49
 MP_ISend             4680                 990833.
 MP_IRecv             4680                 990818.
 MP_Recv                12                   6624.
 -------------------------------------------------------------------------------


 -------------------------------------------------------------------------------
 -                                                                             -
 -                           R E F E R E N C E S                               -
 -                                                                             -
 -------------------------------------------------------------------------------
 
 CP2K version 10.0 (Development Version), the CP2K developers group (2022).
 CP2K is freely available from https://www.cp2k.org/ .

 Kuehne,Thomas D.; Iannuzzi,Marcella; Del Ben,Mauro;
 Rybkin,Vladimir V.; Seewald,Patrick; Stein,Frederick; Laino,Teodoro;
 Khaliullin,Rustam Z.; Schuett,Ole; Schiffmann,Florian; Golze,Dorothea;
 Wilhelm,Jan; Chulkov,Sergey; Bani-Hashemian,Mohammad Hossein;
 Weber,Valery; Borstnik,Urban; Taillefumier,Mathieu;
 Jakobovits,Alice Shoshana; Lazzaro,Alfio; Pabst,Hans; Mueller,Tiziano;
 Schade,Robert; Guidon,Manuel; Andermatt,Samuel; Holmberg,Nico;
 Schenter,Gregory K.; Hehn,Anna; Bussy,Augustin; Belleflamme,Fabian;
 Tabacchi,Gloria; Gloess,Andreas; Lass,Michael; Bethune,Iain;
 Mundy,Christopher J.; Plessl,Christian; Watkins,Matt;
 VandeVondele,Joost; Krack,Matthias; Hutter,Juerg. 
 The Journal of Chemical Physics, 152 (19), (2020). 
 CP2K: An electronic structure and molecular dynamics software package -
 Quickstep: Efficient and accurate electronic structure calculations.
 https://doi.org/10.1063/5.0007045

 Schuett, Ole; Messmer, Peter; Hutter, Juerg; VandeVondele, Joost. 
 Electronic Structure Calculations on Graphics Processing Units, John
 Wiley & Sons, Ltd, 173-190 (2016). 
 GPU-Accelerated Sparse Matrix-Matrix Multiplication for
 Linear Scaling Density Functional Theory.
 https://doi.org/10.1002/9781118670712.ch8

 Heinecke, A; Henry, G; Hutchinson, M; Pabst, H. 
 Proceedings of Intl. Supercomputing Conference, 981-991 (2016). 
 LIBXSMM: Accelerating Small Matrix Multiplications
 by Runtime Code Generation.
 https://doi.org/10.1109/SC.2016.83

 Borstnik, U; VandeVondele, J; Weber, V; Hutter, J. 
 PARALLEL COMPUTING, 40 (5-6), 47-58 (2014). 
 Sparse matrix multiplication: The distributed block-compressed sparse
 row library.
 https://doi.org/10.1016/j.parco.2014.03.012

 Hutter, J; Iannuzzi, M; Schiffmann, F; VandeVondele, J. 
 WIREs Comput Mol Sci., 4 (1), 15-25 (2014). 
 CP2K: atomistic simulations of condensed matter systems.
 https://doi.org/10.1002/wcms.1159

 Frigo, M; Johnson, SG. 
 PROCEEDINGS OF THE IEEE, 93 (2), 216-231 (2005). 
 The design and implementation of FFTW3.
 https://doi.org/10.1109/JPROC.2004.840301

 VandeVondele, J; Hutter, J. 
 JOURNAL OF CHEMICAL PHYSICS, 118 (10), 4365-4369 (2003). 
 An efficient orbital transformation method for electronic structure
 calculations.
 https://doi.org/10.1063/1.1543154

 Lippert, G; Hutter, J; Parrinello, M. 
 THEORETICAL CHEMISTRY ACCOUNTS, 103 (2), 124-140 (1999). 
 The Gaussian and augmented-plane-wave density functional method for ab
 initio molecular dynamics simulations.
 https://doi.org/10.1007/s002140050523

 Krack, M; Parrinello, M. 
 PHYSICAL CHEMISTRY CHEMICAL PHYSICS, 2 (10), 2105-2112 (2000). 
 All-electron ab-initio molecular dynamics.
 https://doi.org/10.1039/b001167n

 Perdew, JP; Burke, K; Ernzerhof, M. 
 PHYSICAL REVIEW LETTERS, 77 (18), 3865-3868 (1996). 
 Generalized gradient approximation made simple.
 https://doi.org/10.1103/PhysRevLett.77.3865


 -------------------------------------------------------------------------------
 -                                                                             -
 -                                T I M I N G                                  -
 -                                                                             -
 -------------------------------------------------------------------------------
 SUBROUTINE                       CALLS  ASD         SELF TIME        TOTAL TIME
                                MAXIMUM       AVERAGE  MAXIMUM  AVERAGE  MAXIMUM
 CP2K                                 1  1.0    0.012    0.027   86.296   86.298
 qs_energies                          1  2.0    0.000    0.000   85.923   85.925
 scf_env_do_scf                       1  3.0    0.000    0.000   85.301   85.302
 scf_env_do_scf_inner_loop           43  4.0    0.001    0.003   80.259   80.261
 qs_ks_update_qs_env                 46  5.0    0.000    0.001   70.187   70.191
 rebuild_ks_matrix                   43  6.0    0.000    0.000   70.181   70.184
 qs_ks_build_kohn_sham_matrix        43  7.0    0.010    0.012   70.180   70.183
 pw_transfer                        908 10.1    0.117    0.135   38.258   41.401
 fft_wrap_pw1pw2                    779 11.3    0.014    0.017   37.818   40.989
 fft_wrap_pw1pw2_400                518 12.7    1.912    2.269   36.552   39.648
 fft3d_ps                           779 13.3   17.537   24.220   29.507   32.981
 qs_vxc_create                       43  8.0    0.001    0.001   31.764   31.764
 xc_vxc_pw_create                    43  9.0    0.165    0.189   31.763   31.763
 xc_pw_derive                       258 11.0    0.004    0.005   21.385   24.393
 xc_rho_set_and_dset_create          43 10.0    0.147    0.169   16.306   18.907
 xc_pw_divergence                    43 10.0    0.002    0.003   14.287   17.395
 rs_pw_transfer                     434  9.5    0.013    0.015   14.174   14.658
 qs_rho_update_rho                   44  5.0    0.001    0.001   14.408   14.413
 calculate_rho_elec                  44  6.0    0.089    0.102   14.124   14.125
 density_rs2pw                       44  7.0    0.003    0.004   11.723   12.985
 prepare_gapw_den                    43  8.0    0.001    0.002   11.812   11.921
 mp_alltoall_z22v                   779 15.3    8.034   11.304    8.034   11.304
 sum_up_and_integrate                43  8.0    0.061    0.075   11.160   11.210
 integrate_v_rspace                  43  9.0    0.002    0.002   11.099   11.146
 yz_to_x                            391 13.9    1.945    2.341    7.109   10.043
 mp_sum_d                          1772  8.2    7.832    9.253    7.832    9.253
 potential_pw2rs                     43 10.0    0.007    0.007    7.474    7.486
 xc_functional_eval                 129 10.9    0.001    0.001    5.361    7.393
 pbe_lda_eval                       129 11.9    5.361    7.392    5.361    7.392
 rs_pw_transfer_RS2PW_400            87 10.0    2.958    3.717    6.221    6.746
 mp_waitany                        4680 11.5    5.093    6.634    5.093    6.634
 x_to_yz                            388 14.7    1.958    2.101    4.828    6.115
 put_rho0_on_grid                    43  9.0    0.095    0.134    5.467    5.577
 calculate_rho_atom                  86  9.0    1.894    5.246    1.894    5.246
 rs_pw_transfer_PW2RS_400            86 11.0    2.860    3.482    4.606    5.136
 init_scf_loop                        3  4.0    0.000    0.000    5.041    5.041
 integrate_vhg0_rspace               43  8.0    0.434    0.824    4.986    5.026
 calculate_vxc_atom                  43  8.0    0.026    0.175    4.612    4.613
 gaVxcgb_GC                          43  9.0    0.186    4.349    0.186    4.349
 grid_collocate_task_list            44  7.0    1.390    4.092    1.390    4.092
 calculate_rho0_atom                 86  9.0    3.147    3.848    3.147    3.848
 mp_alltoall_d11v                   903 11.9    3.321    3.646    3.321    3.646
 rs_gather_matrices                  43 10.0    0.001    0.017    3.280    3.610
 grid_integrate_task_list            43 10.0    0.343    3.608    0.343    3.608
 pw_gather_p                        391 12.9    3.132    3.442    3.132    3.442
 pw_scatter_p                       388 13.7    3.174    3.415    3.174    3.415
 mp_sum_dm                          393  7.7    1.946    2.212    1.946    2.212
 -------------------------------------------------------------------------------

 The number of warnings for this run is : 0
 
 -------------------------------------------------------------------------------
  **** **** ******  **  PROGRAM ENDED AT                 2022-05-13 11:48:23.427
 ***** ** ***  *** **   PROGRAM RAN ON                                   tcopt10
 **    ****   ******    PROGRAM RAN BY                                    hutter
 ***** **    ** ** **   PROGRAM PROCESS ID                                 76119
  **** **  *******  **  PROGRAM STOPPED IN /data/hutter/GITHUB/BASIS/scMOLOPT/PB
                                           E/Ti
