 DBCSR| CPU Multiplication driver                                           XSMM
 DBCSR| Multrec recursion limit                                              512
 DBCSR| Multiplication stack size                                           1000
 DBCSR| Maximum elements for images                                    UNLIMITED
 DBCSR| Multiplicative factor virtual images                                   1
 DBCSR| Use multiplication densification                                       T
 DBCSR| Multiplication size stacks                                             3
 DBCSR| Use memory pool for CPU allocation                                     F
 DBCSR| Number of 3D layers                                               SINGLE
 DBCSR| Use MPI memory allocation                                              F
 DBCSR| Use RMA algorithm                                                      F
 DBCSR| Use Communication thread                                               T
 DBCSR| Communication thread load                                             87
 DBCSR| MPI: My node id                                                        0
 DBCSR| MPI: Number of nodes                                                  48
 DBCSR| OMP: Current number of threads                                         1
 DBCSR| OMP: Max number of threads                                             1
 DBCSR| Split modifier for TAS multiplication algorithm                  1.0E+00


  **** **** ******  **  PROGRAM STARTED AT               2022-06-07 18:12:15.246
 ***** ** ***  *** **   PROGRAM STARTED ON                               tcopt10
 **    ****   ******    PROGRAM STARTED BY                                hutter
 ***** **    ** ** **   PROGRAM PROCESS ID                                 85852
  **** **  *******  **  PROGRAM STARTED IN /data/hutter/GITHUB/BASIS/scMOLOPT/PB
                                           E/Tl

 CP2K| version string:                   CP2K version 10.0 (Development Version)
 CP2K| source code revision number:                                  git:d19b00a
 CP2K| cp2kflags: omp libint fftw3 libxc elpa parallel mpi3 scalapack cosma xsmm
 CP2K|             spglib sirius libvori libbqb
 CP2K| is freely available from                            https://www.cp2k.org/
 CP2K| Program compiled at                      Wed 18 May 2022 12:15:59 PM CEST
 CP2K| Program compiled on                                               tcopt10
 CP2K| Program compiled for                                                local
 CP2K| Data directory path                   /data/hutter/GITHUB/TDLRI/cp2k/data
 CP2K| Input file name                                               TlO-ref.inp

 GLOBAL| Force Environment number                                              1
 GLOBAL| Basis set file name                                        ../def2QZVPP
 GLOBAL| Potential file name                                        ../POTENTIAL
 GLOBAL| MM Potential file name                                     MM_POTENTIAL
 GLOBAL| Coordinate file name                                      __STD_INPUT__
 GLOBAL| Method name                                                        CP2K
 GLOBAL| Project name                                                     refTlO
 GLOBAL| Run type                                                         ENERGY
 GLOBAL| FFT library                                                       FFTW3
 GLOBAL| Diagonalization library                                            ELPA
 GLOBAL| Minimum number of eigenvectors for ELPA usage                        16
 GLOBAL| Orthonormality check for eigenvectors                          DISABLED
 GLOBAL| Matrix multiplication library                                     COSMA
 GLOBAL| All-to-all communication in single precision                          F
 GLOBAL| FFTs using library dependent lengths                                  F
 GLOBAL| Grid backend                                                       AUTO
 GLOBAL| Global print level                                                  LOW
 GLOBAL| MPI I/O enabled                                                       T
 GLOBAL| Total number of message passing processes                            48
 GLOBAL| Number of threads for this process                                    1
 GLOBAL| This output is from process                                           0
 GLOBAL| Stack size for threads created by OpenMP (OMP_STACKSIZE)        default
 GLOBAL| CPU model name                          AMD EPYC 7401 24-Core Processor
 GLOBAL| CPUID                                                              1002

 MEMORY| system memory details [Kb]
 MEMORY|                        rank 0           min           max       average
 MEMORY| MemTotal            263969132     263969132     263969132     263969132
 MEMORY| MemFree             236075476     236075476     236075476     236075476
 MEMORY| Buffers                  2836          2836          2836          2836
 MEMORY| Cached               20350924      20350920      20350924      20350920
 MEMORY| Slab                  1479040       1479040       1479040       1479040
 MEMORY| SReclaimable           874388        874388        874388        874388
 MEMORY| MemLikelyFree       257303624     257303620     257303624     257303620


 GENERATE|  Preliminary Number of Bonds generated:                             0
 GENERATE|  Achieved consistency in connectivity generation.

 *******************************************************************************
 *******************************************************************************
 **                                                                           **
 **     #####                         ##              ##                      **
 **    ##   ##            ##          ##              ##                      **
 **   ##     ##                       ##            ######                    **
 **   ##     ##  ##   ##  ##   #####  ##  ##   ####   ##    #####    #####    **
 **   ##     ##  ##   ##  ##  ##      ## ##   ##      ##   ##   ##  ##   ##   **
 **   ##  ## ##  ##   ##  ##  ##      ####     ###    ##   ######   ######    **
 **    ##  ###   ##   ##  ##  ##      ## ##      ##   ##   ##       ##        **
 **     #######   #####   ##   #####  ##  ##  ####    ##    #####   ##        **
 **           ##                                                    ##        **
 **                                                                           **
 **                                                ... make the atoms dance   **
 **                                                                           **
 **            Copyright (C) by CP2K developers group (2000-2022)             **
 **                      J. Chem. Phys. 152, 194103 (2020)                    **
 **                                                                           **
 *******************************************************************************


 TOTAL NUMBERS AND MAXIMUM NUMBERS

  Total number of            - Atomic kinds:                                   2
                             - Atoms:                                          2
                             - Shell sets:                                    39
                             - Shells:                                        39
                             - Primitive Cartesian functions:                 75
                             - Cartesian basis functions:                    176
                             - Spherical basis functions:                    139

  Maximum angular momentum of- Orbital basis functions:                        4
                             - Local part of the GTH pseudopotential:          2
                             - Non-local part of the GTH pseudopotential:      5


 SCF PARAMETERS         Density guess:                                    ATOMIC
                        --------------------------------------------------------
                        max_scf:                                              20
                        max_scf_history:                                       0
                        max_diis:                                              4
                        --------------------------------------------------------
                        eps_scf:                                        1.00E-07
                        eps_scf_history:                                0.00E+00
                        eps_diis:                                       1.00E-01
                        eps_eigval:                                     1.00E-05
                        --------------------------------------------------------
                        level_shift [a.u.]:                             0.000000
                        --------------------------------------------------------
                        Outer loop SCF in use 
                        No variables optimised in outer loop
                        eps_scf                                         1.00E-07
                        max_scf                                                5
                        No outer loop optimization
                        step_size                                       5.00E-01

 Spin 1

 Number of electrons:                                                         15
 Number of occupied orbitals:                                                 15
 Number of molecular orbitals:                                                15

 Spin 2

 Number of electrons:                                                         14
 Number of occupied orbitals:                                                 14
 Number of molecular orbitals:                                                14

 Number of orbital functions:                                                139
 Number of independent orbital functions:                                    139

 Extrapolation method: initial_guess


 SCF WAVEFUNCTION OPTIMIZATION

  ----------------------------------- OT ---------------------------------------
  Minimizer      : DIIS                : direct inversion
                                         in the iterative subspace
                                         using   7 DIIS vectors
                                         safer DIIS on
  Preconditioner : FULL_ALL            : diagonalization, state selective
  Precond_solver : DEFAULT
  stepsize       :    0.10000000                  energy_gap     :    0.08000000
  eps_taylor     :   0.10000E-15                  max_taylor     :             4
  ----------------------------------- OT ---------------------------------------

  Step     Update method      Time    Convergence         Total energy    Change
  ------------------------------------------------------------------------------
     1 OT DIIS     0.10E+00    1.5     0.06638549      -243.3336745935 -2.43E+02
     2 OT DIIS     0.10E+00    1.8     0.04063264      -244.7322165331 -1.40E+00
     3 OT DIIS     0.10E+00    1.8     0.02075290      -245.5931897491 -8.61E-01
     4 OT DIIS     0.10E+00    1.8     0.01092444      -245.8790233713 -2.86E-01
     5 OT DIIS     0.10E+00    1.8     0.00706643      -245.9659123647 -8.69E-02
     6 OT DIIS     0.10E+00    1.8     0.00493142      -246.0113854043 -4.55E-02
     7 OT DIIS     0.10E+00    1.8     0.00349925      -246.0411546416 -2.98E-02
     8 OT DIIS     0.10E+00    1.7     0.00274057      -246.0632812300 -2.21E-02
     9 OT DIIS     0.10E+00    1.8     0.00238565      -246.0645361392 -1.25E-03
    10 OT DIIS     0.10E+00    1.8     0.00162810      -246.0722909355 -7.75E-03
    11 OT DIIS     0.10E+00    1.8     0.00147981      -246.0750758931 -2.78E-03
    12 OT DIIS     0.10E+00    1.7     0.00106044      -246.0794673866 -4.39E-03
    13 OT DIIS     0.10E+00    1.8     0.00080557      -246.0794239238  4.35E-05
    14 OT DIIS     0.10E+00    1.8     0.00048391      -246.0805891426 -1.17E-03
    15 OT DIIS     0.10E+00    1.8     0.00070799      -246.0806687737 -7.96E-05
    16 OT DIIS     0.10E+00    1.8     0.00059895      -246.0808723772 -2.04E-04
    17 OT DIIS     0.10E+00    1.8     0.00039351      -246.0814454525 -5.73E-04
    18 OT DIIS     0.10E+00    1.8     0.00037404      -246.0816213886 -1.76E-04
    19 OT DIIS     0.10E+00    1.8     0.00034450      -246.0821477316 -5.26E-04
    20 OT DIIS     0.10E+00    1.8     0.00033577      -246.0823389460 -1.91E-04

  Leaving inner SCF loop after reaching    20 steps.


  Electronic density on regular grids:        -30.3850514436       -1.3850514436
  Core density on regular grids:               29.0000000000        0.0000000000
  Hard and soft densities (Lebedev):          -32.7152620519      -34.1003130513
  Total Rho_soft + Rho1_hard - Rho1_soft      -29.0000004443
  Total charge density (r-space):              -0.0000004443
  Total Rho_soft + Rho0_soft (g-space):        -0.0000007280

  Overlap energy of the core charge distribution:               0.00000000095057
  Self energy of the core charge distribution:               -330.62837044560411
  Core Hamiltonian energy:                                     50.28860383767719
  Hartree energy:                                             236.78671675856714
  Exchange-correlation energy:                                -22.85117523688379

  GAPW| Exc from hard and soft atomic rho1:                    -0.31490677539086
  GAPW| local Eh = 1 center integrals:                       -179.36320708534973

  Total energy:                                              -246.08233894603359

  outer SCF iter =    1 RMS gradient =   0.34E-03 energy =       -246.0823389460

  ----------------------------------- OT ---------------------------------------
  Minimizer      : DIIS                : direct inversion
                                         in the iterative subspace
                                         using   7 DIIS vectors
                                         safer DIIS on
  Preconditioner : FULL_ALL            : diagonalization, state selective
  Precond_solver : DEFAULT
  stepsize       :    0.10000000                  energy_gap     :    0.08000000
  eps_taylor     :   0.10000E-15                  max_taylor     :             4
  ----------------------------------- OT ---------------------------------------

  Step     Update method      Time    Convergence         Total energy    Change
  ------------------------------------------------------------------------------
     1 OT DIIS     0.10E+00    3.6     0.00073059      -246.0834125439 -1.07E-03
     2 OT DIIS     0.10E+00    1.7     0.00068015      -246.0836189765 -2.06E-04
     3 OT DIIS     0.10E+00    1.8     0.00058368      -246.0841081109 -4.89E-04
     4 OT DIIS     0.10E+00    1.8     0.00045346      -246.0849385525 -8.30E-04
     5 OT DIIS     0.10E+00    1.8     0.00038333      -246.0854197875 -4.81E-04
     6 OT DIIS     0.10E+00    1.8     0.00077482      -246.0856632093 -2.43E-04
     7 OT DIIS     0.10E+00    1.8     0.00030061      -246.0857963205 -1.33E-04
     8 OT DIIS     0.10E+00    1.8     0.00029836      -246.0858077872 -1.15E-05
     9 OT DIIS     0.10E+00    1.7     0.00007116      -246.0858261274 -1.83E-05
    10 OT DIIS     0.10E+00    1.8     0.00002246      -246.0858375236 -1.14E-05
    11 OT DIIS     0.10E+00    1.8     0.00001396      -246.0858378310 -3.07E-07
    12 OT DIIS     0.10E+00    1.8     0.00000528      -246.0858380417 -2.11E-07
    13 OT DIIS     0.10E+00    1.8     0.00000272      -246.0858380570 -1.53E-08
    14 OT DIIS     0.10E+00    1.8     0.00000125      -246.0858380744 -1.74E-08
    15 OT DIIS     0.10E+00    1.8     0.00000091      -246.0858380753 -9.16E-10
    16 OT DIIS     0.10E+00    1.7     0.00000063      -246.0858380759 -5.83E-10
    17 OT DIIS     0.10E+00    1.8     0.00000031      -246.0858380763 -4.68E-10
    18 OT DIIS     0.10E+00    1.8     0.00000024      -246.0858380764 -6.68E-11
    19 OT DIIS     0.10E+00    1.8     0.00000010      -246.0858380765 -9.63E-11
    20 OT DIIS     0.10E+00    1.8     0.00000008      -246.0858380765 -6.54E-12

  *** SCF run converged in    20 steps ***


  Electronic density on regular grids:        -30.3845496605       -1.3845496605
  Core density on regular grids:               29.0000000000        0.0000000000
  Hard and soft densities (Lebedev):          -32.5983220245      -33.9828711820
  Total Rho_soft + Rho1_hard - Rho1_soft      -29.0000005030
  Total charge density (r-space):              -0.0000005030
  Total Rho_soft + Rho0_soft (g-space):        -0.0000007867

  Overlap energy of the core charge distribution:               0.00000000095057
  Self energy of the core charge distribution:               -330.62837044560411
  Core Hamiltonian energy:                                     50.25798377355787
  Hartree energy:                                             236.81434825928451
  Exchange-correlation energy:                                -22.84486089779524

  GAPW| Exc from hard and soft atomic rho1:                    -0.31535469341800
  GAPW| local Eh = 1 center integrals:                       -179.36958407349104

  Total energy:                                              -246.08583807651536

  outer SCF iter =    2 RMS gradient =   0.80E-07 energy =       -246.0858380765
  outer SCF loop converged in   2 iterations or   40 steps


  Integrated absolute spin density  :                               1.0464388426
  Ideal and single determinant S**2 :                    0.750000       0.755555

 ENERGY| Total FORCE_EVAL ( QS ) energy [a.u.]:             -246.085838076515358

 -------------------------------------------------------------------------------
 -                                                                             -
 -                                DBCSR STATISTICS                             -
 -                                                                             -
 -------------------------------------------------------------------------------
 COUNTER                                    TOTAL       BLAS       SMM       ACC
 flops    14 x    14 x    14              1904336       0.0%    100.0%      0.0%
 flops    15 x    15 x    15              2504250       0.0%    100.0%      0.0%
 flops    14 x    14 x    57              3619728       0.0%    100.0%      0.0%
 flops    57 x    57 x    14              3729852       0.0%    100.0%      0.0%
 flops    57 x    57 x    15              3996270       0.0%    100.0%      0.0%
 flops    15 x    15 x    57              4155300       0.0%    100.0%      0.0%
 flops    14 x    14 x    82              5207328       0.0%    100.0%      0.0%
 flops    57 x    82 x    14              5365752       0.0%    100.0%      0.0%
 flops    57 x    82 x    15              5749020       0.0%    100.0%      0.0%
 flops    15 x    15 x    82              5977800       0.0%    100.0%      0.0%
 flops    82 x    82 x    14              7719152       0.0%    100.0%      0.0%
 flops    82 x    82 x    15              8270520       0.0%    100.0%      0.0%
 flops    57 x    14 x    57              8642340       0.0%    100.0%      0.0%
 flops    57 x    15 x    57              9162180       0.0%    100.0%      0.0%
 flops   139 x    14 x    14             11006576       0.0%    100.0%      0.0%
 flops    57 x    14 x    82             12432840       0.0%    100.0%      0.0%
 flops    82 x    14 x    57             12432840       0.0%    100.0%      0.0%
 flops   139 x    15 x    15             12635100       0.0%    100.0%      0.0%
 flops    57 x    15 x    82             13180680       0.0%    100.0%      0.0%
 flops    82 x    15 x    57             13180680       0.0%    100.0%      0.0%
 flops    82 x    14 x    82             17885840       0.0%    100.0%      0.0%
 flops   139 x    14 x    57             18634896       0.0%    100.0%      0.0%
 flops    82 x    15 x    82             18961680       0.0%    100.0%      0.0%
 flops   139 x    15 x    57             19965960       0.0%    100.0%      0.0%
 flops   139 x    14 x    82             26808096       0.0%    100.0%      0.0%
 flops   139 x    15 x    82             28722960       0.0%    100.0%      0.0%
 flops inhomo. stacks                           0       0.0%      0.0%      0.0%
 flops total                       281.851976E+06       0.0%    100.0%      0.0%
 flops max/rank                    274.125854E+06       0.0%    100.0%      0.0%
 matmuls inhomo. stacks                         0       0.0%      0.0%      0.0%
 matmuls total                               3108       0.0%    100.0%      0.0%
 number of processed stacks                  3108       0.0%    100.0%      0.0%
 average stack size                                     0.0       1.0       0.0
 marketing flops                   293.196800E+06
 -------------------------------------------------------------------------------
 # multiplications                           1889
 max memory usage/rank             574.836736E+06
 # max total images/rank                        3
 # max 3D layers                                1
 # MPI messages exchanged                 1813440
 MPI messages size (bytes):
  total size                       806.567104E+06
  min size                           0.000000E+00
  max size                          91.184000E+03
  average size                     444.771881E+00
 MPI breakdown and total messages size (bytes):
             size <=      128             1777270                        0
       128 < size <=     8192               17117                 57706904
      8192 < size <=    32768               11199                141871656
     32768 < size <=   131072                7854                606988536
    131072 < size <=  4194304                   0                        0
   4194304 < size <= 16777216                   0                        0
  16777216 < size                               0                        0
 -------------------------------------------------------------------------------

 *** WARNING in dbcsr_mm.F:290 :: Using a non-square number of MPI ranks ***
 *** might lead to poor performance. Used ranks: 48 Suggested: 49 100    ***

 -------------------------------------------------------------------------------
 -                                                                             -
 -                      DBCSR MESSAGE PASSING PERFORMANCE                      -
 -                                                                             -
 -------------------------------------------------------------------------------
 ROUTINE             CALLS      AVE VOLUME [Bytes]
 MP_Bcast               27                     12.
 MP_Allreduce        10092                      8.
 MP_Alltoall          6548                   4714.
 MP_ISend            84458                   1196.
 MP_IRecv            83268                    394.
 -------------------------------------------------------------------------------

 -------------------------------------------------------------------------------
 -                                                                             -
 -                                GRID STATISTICS                              -
 -                                                                             -
 -------------------------------------------------------------------------------
 LP    KERNEL             BACKEND                              COUNT     PERCENT
 2     collocate ortho    REF                                  56498      12.75%
 2     integrate ortho    REF                                  55120      12.44%
 3     collocate ortho    REF                                  51906      11.71%
 3     integrate ortho    REF                                  50640      11.43%
 1     collocate ortho    REF                                  42148       9.51%
 1     integrate ortho    REF                                  41120       9.28%
 4     collocate ortho    REF                                  32636       7.36%
 4     integrate ortho    REF                                  31840       7.19%
 5     collocate ortho    REF                                  17630       3.98%
 5     integrate ortho    REF                                  17200       3.88%
 0     collocate ortho    REF                                  12054       2.72%
 0     integrate ortho    REF                                  11760       2.65%
 6     collocate ortho    REF                                   5822       1.31%
 6     integrate ortho    REF                                   5680       1.28%
 2     collocate general  REF                                   3840       0.87%
 2     integrate general  REF                                   3840       0.87%
 7     collocate ortho    REF                                   1476       0.33%
 7     integrate ortho    REF                                   1440       0.32%
 8     collocate ortho    REF                                    246       0.06%
 8     integrate ortho    REF                                    240       0.05%
 -------------------------------------------------------------------------------

 MEMORY| Estimated peak process memory [MiB]                                 549

 -------------------------------------------------------------------------------
 -                                                                             -
 -                         MESSAGE PASSING PERFORMANCE                         -
 -                                                                             -
 -------------------------------------------------------------------------------

 ROUTINE             CALLS      AVE VOLUME [Bytes]
 MP_Group                4
 MP_Bcast             1283                 287917.
 MP_Allreduce         3419                 207363.
 MP_Sync               144
 MP_Alltoall          1707                5455806.
 MP_ISendRecv        22842                 115392.
 MP_Wait             37604
 MP_comm_split          70
 MP_ISend            13552                 242076.
 MP_IRecv            13552                 242124.
 MP_Recv                26                   2224.
 -------------------------------------------------------------------------------


 -------------------------------------------------------------------------------
 -                                                                             -
 -                           R E F E R E N C E S                               -
 -                                                                             -
 -------------------------------------------------------------------------------
 
 CP2K version 10.0 (Development Version), the CP2K developers group (2022).
 CP2K is freely available from https://www.cp2k.org/ .

 Kuehne,Thomas D.; Iannuzzi,Marcella; Del Ben,Mauro;
 Rybkin,Vladimir V.; Seewald,Patrick; Stein,Frederick; Laino,Teodoro;
 Khaliullin,Rustam Z.; Schuett,Ole; Schiffmann,Florian; Golze,Dorothea;
 Wilhelm,Jan; Chulkov,Sergey; Bani-Hashemian,Mohammad Hossein;
 Weber,Valery; Borstnik,Urban; Taillefumier,Mathieu;
 Jakobovits,Alice Shoshana; Lazzaro,Alfio; Pabst,Hans; Mueller,Tiziano;
 Schade,Robert; Guidon,Manuel; Andermatt,Samuel; Holmberg,Nico;
 Schenter,Gregory K.; Hehn,Anna; Bussy,Augustin; Belleflamme,Fabian;
 Tabacchi,Gloria; Gloess,Andreas; Lass,Michael; Bethune,Iain;
 Mundy,Christopher J.; Plessl,Christian; Watkins,Matt;
 VandeVondele,Joost; Krack,Matthias; Hutter,Juerg. 
 The Journal of Chemical Physics, 152 (19), (2020). 
 CP2K: An electronic structure and molecular dynamics software package -
 Quickstep: Efficient and accurate electronic structure calculations.
 https://doi.org/10.1063/5.0007045

 Schuett, Ole; Messmer, Peter; Hutter, Juerg; VandeVondele, Joost. 
 Electronic Structure Calculations on Graphics Processing Units, John
 Wiley & Sons, Ltd, 173-190 (2016). 
 GPU-Accelerated Sparse Matrix-Matrix Multiplication for
 Linear Scaling Density Functional Theory.
 https://doi.org/10.1002/9781118670712.ch8

 Heinecke, A; Henry, G; Hutchinson, M; Pabst, H. 
 Proceedings of Intl. Supercomputing Conference, 981-991 (2016). 
 LIBXSMM: Accelerating Small Matrix Multiplications
 by Runtime Code Generation.
 https://doi.org/10.1109/SC.2016.83

 Borstnik, U; VandeVondele, J; Weber, V; Hutter, J. 
 PARALLEL COMPUTING, 40 (5-6), 47-58 (2014). 
 Sparse matrix multiplication: The distributed block-compressed sparse
 row library.
 https://doi.org/10.1016/j.parco.2014.03.012

 Hutter, J; Iannuzzi, M; Schiffmann, F; VandeVondele, J. 
 WIREs Comput Mol Sci., 4 (1), 15-25 (2014). 
 CP2K: atomistic simulations of condensed matter systems.
 https://doi.org/10.1002/wcms.1159

 Marek, A; Blum, V; Johanni, R; Havu, V; Lang, B; Auckenthaler, T;
 Heinecke, A; Bungartz, H; Lederer, H. 
 Journal of Physics: Condensed Matter, 26 (21), (2014). 
 The ELPA library: scalable parallel eigenvalue solutions for
 electronic structure
 theory and computational science.
 https://doi.org/10.1088/0953-8984/26/21/213201

 Krack, M. 
 THEORETICAL CHEMISTRY ACCOUNTS, 114 (1-3), 145-152 (2005). 
 Pseudopotentials for H to Kr optimized for gradient-corrected
 exchange-correlation functionals.
 https://doi.org/10.1007/s00214-005-0655-y

 Frigo, M; Johnson, SG. 
 PROCEEDINGS OF THE IEEE, 93 (2), 216-231 (2005). 
 The design and implementation of FFTW3.
 https://doi.org/10.1109/JPROC.2004.840301

 VandeVondele, J; Hutter, J. 
 JOURNAL OF CHEMICAL PHYSICS, 118 (10), 4365-4369 (2003). 
 An efficient orbital transformation method for electronic structure
 calculations.
 https://doi.org/10.1063/1.1543154

 Lippert, G; Hutter, J; Parrinello, M. 
 THEORETICAL CHEMISTRY ACCOUNTS, 103 (2), 124-140 (1999). 
 The Gaussian and augmented-plane-wave density functional method for ab
 initio molecular dynamics simulations.
 https://doi.org/10.1007/s002140050523

 Krack, M; Parrinello, M. 
 PHYSICAL CHEMISTRY CHEMICAL PHYSICS, 2 (10), 2105-2112 (2000). 
 All-electron ab-initio molecular dynamics.
 https://doi.org/10.1039/b001167n

 Hartwigsen, C; Goedecker, S; Hutter, J. 
 PHYSICAL REVIEW B, 58 (7), 3641-3662 (1998). 
 Relativistic separable dual-space Gaussian pseudopotentials from H to Rn.
 https://doi.org/10.1103/PhysRevB.58.3641

 Perdew, JP; Burke, K; Ernzerhof, M. 
 PHYSICAL REVIEW LETTERS, 77 (18), 3865-3868 (1996). 
 Generalized gradient approximation made simple.
 https://doi.org/10.1103/PhysRevLett.77.3865

 Goedecker, S; Teter, M; Hutter, J. 
 PHYSICAL REVIEW B, 54 (3), 1703-1710 (1996). 
 Separable dual-space Gaussian pseudopotentials.
 https://doi.org/10.1103/PhysRevB.54.1703


 -------------------------------------------------------------------------------
 -                                                                             -
 -                                T I M I N G                                  -
 -                                                                             -
 -------------------------------------------------------------------------------
 SUBROUTINE                       CALLS  ASD         SELF TIME        TOTAL TIME
                                MAXIMUM       AVERAGE  MAXIMUM  AVERAGE  MAXIMUM
 CP2K                                 1  1.0    0.010    0.034   71.477   71.478
 qs_energies                          1  2.0    0.000    0.000   71.158   71.159
 scf_env_do_scf                       1  3.0    0.000    0.000   70.383   70.384
 scf_env_do_scf_inner_loop           40  4.0    0.001    0.002   67.439   67.440
 qs_ks_update_qs_env                 42  5.0    0.000    0.001   56.764   56.769
 rebuild_ks_matrix                   40  6.0    0.000    0.000   56.756   56.760
 qs_ks_build_kohn_sham_matrix        40  7.0    0.009    0.011   56.756   56.759
 pw_transfer                       1490 10.3    0.161    0.209   16.308   16.959
 fft_wrap_pw1pw2                   1370 11.3    0.019    0.025   16.058   16.714
 prepare_gapw_den                    40  8.0    0.001    0.002   15.929   15.958
 fft_wrap_pw1pw2_300                884 12.8    1.063    1.217   14.946   15.592
 rs_pw_transfer                     728  9.5    0.018    0.029   14.562   14.965
 qs_vxc_create                       40  8.0    0.001    0.001   14.415   14.416
 xc_vxc_pw_create                    40  9.0    0.223    0.281   14.414   14.415
 fft3d_ps                          1370 13.3    6.182    7.390   12.648   13.629
 qs_rho_update_rho                   41  5.0    0.001    0.001   11.718   11.722
 mp_sum_d                          2346  8.8   11.006   11.542   11.006   11.542
 calculate_rho_elec                  82  6.0    0.045    0.048   10.831   10.831
 calculate_rho0_atom                 80  9.0    9.954   10.431    9.954   10.431
 xc_pw_derive                       480 11.0    0.006    0.006    9.459   10.405
 calculate_vxc_atom                  40  8.0    0.034    0.624    9.030    9.031
 density_rs2pw                       82  7.0    0.005    0.006    8.297    8.804
 sum_up_and_integrate                40  8.0    0.038    0.045    8.541    8.563
 integrate_v_rspace                  80  9.0    0.002    0.003    8.503    8.517
 calculate_rho_atom                  80  9.0    1.456    8.349    1.456    8.349
 gaVxcgb_GC                          80  9.0    0.170    8.176    0.170    8.176
 potential_pw2rs                     80 10.0    0.006    0.007    7.937    7.946
 xc_pw_divergence                    80 10.0    0.003    0.003    6.637    7.507
 xc_rho_set_and_dset_create          40 10.0    0.196    0.238    7.184    7.490
 mp_alltoall_z22v                  1370 15.3    5.076    7.375    5.076    7.375
 rs_pw_transfer_PW2RS_300           120 11.3    3.317    3.518    5.251    5.541
 rs_pw_transfer_RS2PW_300           122  9.7    3.190    3.477    4.824    5.292
 yz_to_x                            606 14.1    0.602    0.824    3.592    5.227
 integrate_vhg0_rspace               40  8.0    0.419    1.247    5.155    5.211
 mp_sum_dv                         1300 13.0    1.952    4.156    1.952    4.156
 mp_sum_dm                          408  7.4    3.500    3.652    3.500    3.652
 mp_waitall_1                    175172 13.9    3.105    3.572    3.105    3.572
 mp_waitany                       13552 11.5    2.737    3.231    2.737    3.231
 x_to_yz                            602 14.8    0.684    0.770    2.758    3.075
 init_scf_loop                        2  4.0    0.000    0.000    2.942    2.942
 xc_functional_eval                 200 10.9    0.001    0.002    2.495    2.923
 pbe_lsd_eval                       200 11.9    2.494    2.921    2.494    2.921
 dbcsr_multiply_generic            1889 10.2    0.053    0.054    2.745    2.785
 put_rho0_on_grid                    40  9.0    0.026    0.030    2.571    2.601
 rs_pw_transfer_PW2RS_100            80 12.0    0.444    0.542    2.058    2.277
 grid_collocate_task_list            82  7.0    2.035    2.272    2.035    2.272
 qs_scf_new_mos                      40  5.0    0.000    0.000    2.023    2.024
 qs_scf_loop_do_ot                   40  6.0    0.000    0.000    2.023    2.024
 ot_scf_mini                         40  7.0    0.001    0.001    1.937    1.938
 Vh_1c_gg_integrals                  40  8.0    0.044    1.458    1.471    1.533
 -------------------------------------------------------------------------------

 The number of warnings for this run is : 1
 
 -------------------------------------------------------------------------------
  **** **** ******  **  PROGRAM ENDED AT                 2022-06-07 18:13:27.153
 ***** ** ***  *** **   PROGRAM RAN ON                                   tcopt10
 **    ****   ******    PROGRAM RAN BY                                    hutter
 ***** **    ** ** **   PROGRAM PROCESS ID                                 85852
  **** **  *******  **  PROGRAM STOPPED IN /data/hutter/GITHUB/BASIS/scMOLOPT/PB
                                           E/Tl
