
  **** **** ******  **  PROGRAM STARTED AT               2021-01-28 18:07:29.099
 ***** ** ***  *** **   PROGRAM STARTED ON                               tcopt10
 **    ****   ******    PROGRAM STARTED BY                                hutter
 ***** **    ** ** **   PROGRAM PROCESS ID                                 94241
  **** **  *******  **  PROGRAM STARTED IN /data/hutter/GITHUB/BASIS/MOLOPT/PBE/
                                           Ni

 CP2K| version string:                    CP2K version 9.0 (Development Version)
 CP2K| source code revision number:                                  git:3a0fa18
 CP2K| cp2kflags: omp libint fftw3 libxc elpa parallel mpi3 scalapack xsmm spgli
 CP2K|            b sirius libvori libbqb
 CP2K| is freely available from                            https://www.cp2k.org/
 CP2K| Program compiled at                          Wed Jan 27 11:43:32 CET 2021
 CP2K| Program compiled on                                               tcopt10
 CP2K| Program compiled for                                                local
 CP2K| Data directory path                 /data/hutter/GITHUB/CURRENT/cp2k/data
 CP2K| Input file name                                              opt-dzvp.inp

 GLOBAL| Method name                                              OPTIMIZE_BASIS
 GLOBAL| Project name                                                     molopt
 GLOBAL| Preferred FFT library                                             FFTW3
 GLOBAL| Preferred diagonalization lib.                                     ELPA
 GLOBAL| Run type                                                   ENERGY_FORCE
 GLOBAL| All-to-all communication in single precision                          F
 GLOBAL| FFTs using library dependent lengths                                  F
 GLOBAL| Global print level                                               MEDIUM
 GLOBAL| MPI I/O enabled                                                       T
 GLOBAL| Total number of message passing processes                            48
 GLOBAL| Number of threads for this process                                    1
 GLOBAL| This output is from process                                           0
 GLOBAL| CPU model name                          AMD EPYC 7401 24-Core Processor
 GLOBAL| CPUID                                                              1002

 MEMORY| system memory details [Kb]
 MEMORY|                        rank 0           min           max       average
 MEMORY| MemTotal            263969964     263969964     263969964     263969964
 MEMORY| MemFree             248378516     248378516     248378516     248378516
 MEMORY| Buffers                   136           136           136           136
 MEMORY| Cached               11056548      11056548      11056548      11056548
 MEMORY| Slab                   685840        685840        685840        685840
 MEMORY| SReclaimable           288628        288628        288628        288628
 MEMORY| MemLikelyFree       259723828     259723828     259723828     259723828


 *** Fundamental physical constants (SI units) ***

 *** Literature: B. J. Mohr and B. N. Taylor,
 ***             CODATA recommended values of the fundamental physical
 ***             constants: 2006, Web Version 5.1
 ***             http://physics.nist.gov/constants

 Speed of light in vacuum [m/s]                             2.99792458000000E+08
 Magnetic constant or permeability of vacuum [N/A**2]       1.25663706143592E-06
 Electric constant or permittivity of vacuum [F/m]          8.85418781762039E-12
 Planck constant (h) [J*s]                                  6.62606896000000E-34
 Planck constant (h-bar) [J*s]                              1.05457162825177E-34
 Elementary charge [C]                                      1.60217648700000E-19
 Electron mass [kg]                                         9.10938215000000E-31
 Electron g factor [ ]                                     -2.00231930436220E+00
 Proton mass [kg]                                           1.67262163700000E-27
 Fine-structure constant                                    7.29735253760000E-03
 Rydberg constant [1/m]                                     1.09737315685270E+07
 Avogadro constant [1/mol]                                  6.02214179000000E+23
 Boltzmann constant [J/K]                                   1.38065040000000E-23
 Atomic mass unit [kg]                                      1.66053878200000E-27
 Bohr radius [m]                                            5.29177208590000E-11

 *** Conversion factors ***

 [u] -> [a.u.]                                              1.82288848426455E+03
 [Angstrom] -> [Bohr] = [a.u.]                              1.88972613288564E+00
 [a.u.] = [Bohr] -> [Angstrom]                              5.29177208590000E-01
 [a.u.] -> [s]                                              2.41888432650478E-17
 [a.u.] -> [fs]                                             2.41888432650478E-02
 [a.u.] -> [J]                                              4.35974393937059E-18
 [a.u.] -> [N]                                              8.23872205491840E-08
 [a.u.] -> [K]                                              3.15774647902944E+05
 [a.u.] -> [kJ/mol]                                         2.62549961709828E+03
 [a.u.] -> [kcal/mol]                                       6.27509468713739E+02
 [a.u.] -> [Pa]                                             2.94210107994716E+13
 [a.u.] -> [bar]                                            2.94210107994716E+08
 [a.u.] -> [atm]                                            2.90362800883016E+08
 [a.u.] -> [eV]                                             2.72113838565563E+01
 [a.u.] -> [Hz]                                             6.57968392072181E+15
 [a.u.] -> [1/cm] (wave numbers)                            2.19474631370540E+05
 [a.u./Bohr**2] -> [1/cm]                                   5.14048714338585E+03
 
 DBCSR| CPU Multiplication driver                                           XSMM
 DBCSR| Multrec recursion limit                                              512
 DBCSR| Multiplication stack size                                           1000
 DBCSR| Maximum elements for images                                    UNLIMITED
 DBCSR| Multiplicative factor virtual images                                   1
 DBCSR| Use multiplication densification                                       T
 DBCSR| Multiplication size stacks                                             3
 DBCSR| Use memory pool for CPU allocation                                     F
 DBCSR| Number of 3D layers                                               SINGLE
 DBCSR| Use MPI memory allocation                                              F
 DBCSR| Use RMA algorithm                                                      F
 DBCSR| Use Communication thread                                               T
 DBCSR| Communication thread load                                             87
 DBCSR| MPI: My node id                                                        0
 DBCSR| MPI: Number of nodes                                                  48
 DBCSR| OMP: Current number of threads                                         1
 DBCSR| OMP: Max number of threads                                             1
 DBCSR| Split modifier for TAS multiplication algorithm                  1.0E+00

 BASOPT| Total number of calculations      6

 BASOPT| Content of basis combination      1
 BASOPT|     Element:   NI    Basis set:    DZVP-MOLOPT-PBE-GTH-Q18
 BASOPT|     Element:   CL    Basis set:    DZVP-MOLOPT-PBE-GTH-Q7
 BASOPT|     Element:    S    Basis set:    DZVP-MOLOPT-PBE-GTH-Q6
 BASOPT|     Element:    C    Basis set:    DZVP-MOLOPT-PBE-GTH-Q4
 BASOPT|     Element:    O    Basis set:    DZVP-MOLOPT-PBE-GTH-Q6
 BASOPT|     Element:    F    Basis set:    DZVP-MOLOPT-PBE-GTH-Q7

 BASOPT| Information at iteration number:       0
 BASOPT| Training set | Combination | Rho difference | Condition num. | Time
 BASOPT| -----------------------------------------------------------------------
 BASOPT|        1     |       1     | 0.47710128E-02 | 0.22421986E+03 |    0.031
 BASOPT|        2     |       1     | 0.83471773E-02 | 0.10482669E+03 |    0.036
 BASOPT|        3     |       1     | 0.49340381E-02 | 0.20325053E+03 |    0.044
 BASOPT|        4     |       1     | 0.66036818E-02 | 0.12444750E+03 |    0.050
 BASOPT|        5     |       1     | 0.55828845E-01 | 0.24533670E+03 |    0.083
 BASOPT|        6     |       1     | 0.13705500E-01 | 0.15772487E+04 |    0.537
 BASOPT| -----------------------------------------------------------------------
 BASOPT| Total residuum value: -.20769135E+04

 BASOPT| Information at iteration number:     100
 BASOPT| Training set | Combination | Rho difference | Condition num. | Time
 BASOPT| -----------------------------------------------------------------------
 BASOPT|        1     |       1     | 0.47796001E-02 | 0.22379390E+03 |    3.456
 BASOPT|        2     |       1     | 0.83523605E-02 | 0.10412294E+03 |    3.972
 BASOPT|        3     |       1     | 0.49621778E-02 | 0.20325053E+03 |    4.926
 BASOPT|        4     |       1     | 0.66194594E-02 | 0.12444750E+03 |    5.785
 BASOPT|        5     |       1     | 0.56177298E-01 | 0.24547512E+03 |    9.534
 BASOPT|        6     |       1     | 0.13727904E-01 | 0.15470215E+04 |   62.795
 BASOPT| -----------------------------------------------------------------------
 BASOPT| Total residuum value: -.20769152E+04

 BASOPT| Information at iteration number:     200
 BASOPT| Training set | Combination | Rho difference | Condition num. | Time
 BASOPT| -----------------------------------------------------------------------
 BASOPT|        1     |       1     | 0.55945084E-02 | 0.16001791E+03 |    7.119
 BASOPT|        2     |       1     | 0.75917571E-02 | 0.99118070E+02 |    8.062
 BASOPT|        3     |       1     | 0.59625817E-02 | 0.13535456E+03 |   10.054
 BASOPT|        4     |       1     | 0.69122181E-02 | 0.10057512E+03 |   11.769
 BASOPT|        5     |       1     | 0.28661035E-01 | 0.15869278E+03 |   19.272
 BASOPT|        6     |       1     | 0.16393876E-01 | 0.11008482E+04 |  127.034
 BASOPT| -----------------------------------------------------------------------
 BASOPT| Total residuum value: -.20774932E+04

 BASOPT| Information at iteration number:     300
 BASOPT| Training set | Combination | Rho difference | Condition num. | Time
 BASOPT| -----------------------------------------------------------------------
 BASOPT|        1     |       1     | 0.70060215E-02 | 0.13099430E+03 |   10.848
 BASOPT|        2     |       1     | 0.83203974E-02 | 0.91465899E+02 |   12.168
 BASOPT|        3     |       1     | 0.68465598E-02 | 0.11279226E+03 |   15.191
 BASOPT|        4     |       1     | 0.74757586E-02 | 0.91863475E+02 |   17.706
 BASOPT|        5     |       1     | 0.21652456E-01 | 0.12907896E+03 |   28.983
 BASOPT|        6     |       1     | 0.17086115E-01 | 0.97920354E+03 |  191.556
 BASOPT| -----------------------------------------------------------------------
 BASOPT| Total residuum value: -.20775769E+04

 BASOPT| Information at iteration number:     400
 BASOPT| Training set | Combination | Rho difference | Condition num. | Time
 BASOPT| -----------------------------------------------------------------------
 BASOPT|        1     |       1     | 0.68193579E-02 | 0.13313500E+03 |   14.648
 BASOPT|        2     |       1     | 0.81698555E-02 | 0.91514958E+02 |   16.380
 BASOPT|        3     |       1     | 0.66766594E-02 | 0.11488678E+03 |   20.333
 BASOPT|        4     |       1     | 0.73316955E-02 | 0.91597350E+02 |   23.617
 BASOPT|        5     |       1     | 0.21786865E-01 | 0.13105889E+03 |   38.716
 BASOPT|        6     |       1     | 0.16938392E-01 | 0.98013127E+03 |  256.251
 BASOPT| -----------------------------------------------------------------------
 BASOPT| Total residuum value: -.20776142E+04

 BASOPT| Information at iteration number:     500
 BASOPT| Training set | Combination | Rho difference | Condition num. | Time
 BASOPT| -----------------------------------------------------------------------
 BASOPT|        1     |       1     | 0.66879505E-02 | 0.13425836E+03 |   18.452
 BASOPT|        2     |       1     | 0.81866857E-02 | 0.89343095E+02 |   20.599
 BASOPT|        3     |       1     | 0.64164368E-02 | 0.11744136E+03 |   25.468
 BASOPT|        4     |       1     | 0.72016375E-02 | 0.91160050E+02 |   29.523
 BASOPT|        5     |       1     | 0.21613048E-01 | 0.13356310E+03 |   48.403
 BASOPT|        6     |       1     | 0.16612168E-01 | 0.99235901E+03 |  320.914
 BASOPT| -----------------------------------------------------------------------
 BASOPT| Total residuum value: -.20776360E+04

 BASOPT| Information at iteration number:     600
 BASOPT| Training set | Combination | Rho difference | Condition num. | Time
 BASOPT| -----------------------------------------------------------------------
 BASOPT|        1     |       1     | 0.66214326E-02 | 0.13473902E+03 |   22.258
 BASOPT|        2     |       1     | 0.81115495E-02 | 0.88916259E+02 |   24.822
 BASOPT|        3     |       1     | 0.63280335E-02 | 0.11906727E+03 |   30.617
 BASOPT|        4     |       1     | 0.70996345E-02 | 0.90982175E+02 |   35.440
 BASOPT|        5     |       1     | 0.21250895E-01 | 0.13551052E+03 |   58.124
 BASOPT|        6     |       1     | 0.16528914E-01 | 0.10041585E+04 |  385.605
 BASOPT| -----------------------------------------------------------------------
 BASOPT| Total residuum value: -.20776599E+04

 BASOPT| Information at iteration number:     700
 BASOPT| Training set | Combination | Rho difference | Condition num. | Time
 BASOPT| -----------------------------------------------------------------------
 BASOPT|        1     |       1     | 0.68317297E-02 | 0.13261897E+03 |   26.061
 BASOPT|        2     |       1     | 0.82682884E-02 | 0.87406983E+02 |   29.054
 BASOPT|        3     |       1     | 0.63571289E-02 | 0.11740861E+03 |   35.783
 BASOPT|        4     |       1     | 0.71528720E-02 | 0.88618234E+02 |   41.394
 BASOPT|        5     |       1     | 0.20090240E-01 | 0.13342630E+03 |   67.844
 BASOPT|        6     |       1     | 0.16555409E-01 | 0.10093272E+04 |  450.376
 BASOPT| -----------------------------------------------------------------------
 BASOPT| Total residuum value: -.20776722E+04

 BASOPT| Information at iteration number:     800
 BASOPT| Training set | Combination | Rho difference | Condition num. | Time
 BASOPT| -----------------------------------------------------------------------
 BASOPT|        1     |       1     | 0.67518950E-02 | 0.13280930E+03 |   29.864
 BASOPT|        2     |       1     | 0.81862225E-02 | 0.88090320E+02 |   33.284
 BASOPT|        3     |       1     | 0.63500991E-02 | 0.11761392E+03 |   40.956
 BASOPT|        4     |       1     | 0.71159044E-02 | 0.89725111E+02 |   47.344
 BASOPT|        5     |       1     | 0.20253817E-01 | 0.13351505E+03 |   77.548
 BASOPT|        6     |       1     | 0.16509649E-01 | 0.10097104E+04 |  515.197
 BASOPT| -----------------------------------------------------------------------
 BASOPT| Total residuum value: -.20776765E+04

 BASOPT| Information at iteration number:     900
 BASOPT| Training set | Combination | Rho difference | Condition num. | Time
 BASOPT| -----------------------------------------------------------------------
 BASOPT|        1     |       1     | 0.67719458E-02 | 0.13205601E+03 |   33.665
 BASOPT|        2     |       1     | 0.82430370E-02 | 0.87016400E+02 |   37.508
 BASOPT|        3     |       1     | 0.63161754E-02 | 0.11752609E+03 |   46.109
 BASOPT|        4     |       1     | 0.71360645E-02 | 0.90043327E+02 |   53.318
 BASOPT|        5     |       1     | 0.20226317E-01 | 0.13315736E+03 |   87.195
 BASOPT|        6     |       1     | 0.16473004E-01 | 0.10089939E+04 |  579.926
 BASOPT| -----------------------------------------------------------------------
 BASOPT| Total residuum value: -.20776865E+04

 BASOPT| Information at iteration number:    1000
 BASOPT| Training set | Combination | Rho difference | Condition num. | Time
 BASOPT| -----------------------------------------------------------------------
 BASOPT|        1     |       1     | 0.69494849E-02 | 0.12996012E+03 |   37.468
 BASOPT|        2     |       1     | 0.84070320E-02 | 0.85143048E+02 |   41.736
 BASOPT|        3     |       1     | 0.63342019E-02 | 0.11648123E+03 |   51.270
 BASOPT|        4     |       1     | 0.71822319E-02 | 0.89424261E+02 |   59.245
 BASOPT|        5     |       1     | 0.19794658E-01 | 0.13168801E+03 |   96.884
 BASOPT|        6     |       1     | 0.16447823E-01 | 0.10077951E+04 |  644.750
 BASOPT| -----------------------------------------------------------------------
 BASOPT| Total residuum value: -.20776965E+04

 BASOPT| Information at iteration number:    1100
 BASOPT| Training set | Combination | Rho difference | Condition num. | Time
 BASOPT| -----------------------------------------------------------------------
 BASOPT|        1     |       1     | 0.69642205E-02 | 0.13019946E+03 |   41.281
 BASOPT|        2     |       1     | 0.84724446E-02 | 0.83955970E+02 |   45.986
 BASOPT|        3     |       1     | 0.62594062E-02 | 0.11692674E+03 |   56.425
 BASOPT|        4     |       1     | 0.71620369E-02 | 0.89965502E+02 |   65.166
 BASOPT|        5     |       1     | 0.19172647E-01 | 0.13106609E+03 |  106.607
 BASOPT|        6     |       1     | 0.16221247E-01 | 0.10137219E+04 |  709.544
 BASOPT| -----------------------------------------------------------------------
 BASOPT| Total residuum value: -.20777174E+04

 BASOPT| Information at iteration number:    1200
 BASOPT| Training set | Combination | Rho difference | Condition num. | Time
 BASOPT| -----------------------------------------------------------------------
 BASOPT|        1     |       1     | 0.72422667E-02 | 0.12676874E+03 |   45.104
 BASOPT|        2     |       1     | 0.87106596E-02 | 0.81735256E+02 |   50.258
 BASOPT|        3     |       1     | 0.63510573E-02 | 0.11373410E+03 |   61.805
 BASOPT|        4     |       1     | 0.72270147E-02 | 0.87927181E+02 |   71.081
 BASOPT|        5     |       1     | 0.18503988E-01 | 0.12676099E+03 |  116.556
 BASOPT|        6     |       1     | 0.16070057E-01 | 0.10122717E+04 |  774.292
 BASOPT| -----------------------------------------------------------------------
 BASOPT| Total residuum value: -.20777298E+04

 BASOPT| Information at iteration number:    1300
 BASOPT| Training set | Combination | Rho difference | Condition num. | Time
 BASOPT| -----------------------------------------------------------------------
 BASOPT|        1     |       1     | 0.74823184E-02 | 0.12376591E+03 |   48.911
 BASOPT|        2     |       1     | 0.89890367E-02 | 0.78493042E+02 |   54.534
 BASOPT|        3     |       1     | 0.63418645E-02 | 0.11226419E+03 |   67.200
 BASOPT|        4     |       1     | 0.73245015E-02 | 0.87015416E+02 |   76.998
 BASOPT|        5     |       1     | 0.18042007E-01 | 0.12445975E+03 |  126.540
 BASOPT|        6     |       1     | 0.15965865E-01 | 0.10135622E+04 |  839.034
 BASOPT| -----------------------------------------------------------------------
 BASOPT| Total residuum value: -.20777390E+04

 BASOPT| Information at iteration number:    1400
 BASOPT| Training set | Combination | Rho difference | Condition num. | Time
 BASOPT| -----------------------------------------------------------------------
 BASOPT|        1     |       1     | 0.74794617E-02 | 0.12347895E+03 |   52.719
 BASOPT|        2     |       1     | 0.90782334E-02 | 0.77230656E+02 |   58.807
 BASOPT|        3     |       1     | 0.62785190E-02 | 0.11303375E+03 |   72.598
 BASOPT|        4     |       1     | 0.73572938E-02 | 0.87710128E+02 |   82.915
 BASOPT|        5     |       1     | 0.18024122E-01 | 0.12496406E+03 |  136.529
 BASOPT|        6     |       1     | 0.15830639E-01 | 0.10144774E+04 |  903.810
 BASOPT| -----------------------------------------------------------------------
 BASOPT| Total residuum value: -.20777457E+04

 BASOPT| Information at iteration number:    1500
 BASOPT| Training set | Combination | Rho difference | Condition num. | Time
 BASOPT| -----------------------------------------------------------------------
 BASOPT|        1     |       1     | 0.75466201E-02 | 0.12328692E+03 |   56.540
 BASOPT|        2     |       1     | 0.91528820E-02 | 0.76853337E+02 |   63.081
 BASOPT|        3     |       1     | 0.62955691E-02 | 0.11289952E+03 |   77.994
 BASOPT|        4     |       1     | 0.73887152E-02 | 0.87581442E+02 |   88.830
 BASOPT|        5     |       1     | 0.17874822E-01 | 0.12458364E+03 |  146.531
 BASOPT|        6     |       1     | 0.15835412E-01 | 0.10144931E+04 |  968.607
 BASOPT| -----------------------------------------------------------------------
 BASOPT| Total residuum value: -.20777484E+04

 BASOPT| Information at iteration number:    1600
 BASOPT| Training set | Combination | Rho difference | Condition num. | Time
 BASOPT| -----------------------------------------------------------------------
 BASOPT|        1     |       1     | 0.75451641E-02 | 0.12378940E+03 |   60.346
 BASOPT|        2     |       1     | 0.91708147E-02 | 0.76879637E+02 |   67.354
 BASOPT|        3     |       1     | 0.62893728E-02 | 0.11343419E+03 |   83.385
 BASOPT|        4     |       1     | 0.73812631E-02 | 0.87845456E+02 |   94.746
 BASOPT|        5     |       1     | 0.17831424E-01 | 0.12510487E+03 |  156.548
 BASOPT|        6     |       1     | 0.15781278E-01 | 0.10144981E+04 | 1033.462
 BASOPT| -----------------------------------------------------------------------
 BASOPT| Total residuum value: -.20777507E+04

 BASOPT| Information at iteration number:    1700
 BASOPT| Training set | Combination | Rho difference | Condition num. | Time
 BASOPT| -----------------------------------------------------------------------
 BASOPT|        1     |       1     | 0.75995595E-02 | 0.12452220E+03 |   64.167
 BASOPT|        2     |       1     | 0.92974447E-02 | 0.76176561E+02 |   71.626
 BASOPT|        3     |       1     | 0.62672610E-02 | 0.11478741E+03 |   88.775
 BASOPT|        4     |       1     | 0.74122930E-02 | 0.88200609E+02 |  100.687
 BASOPT|        5     |       1     | 0.17676721E-01 | 0.12598835E+03 |  166.571
 BASOPT|        6     |       1     | 0.15643892E-01 | 0.10099826E+04 | 1098.306
 BASOPT| -----------------------------------------------------------------------
 BASOPT| Total residuum value: -.20777564E+04

 BASOPT| Information at iteration number:    1800
 BASOPT| Training set | Combination | Rho difference | Condition num. | Time
 BASOPT| -----------------------------------------------------------------------
 BASOPT|        1     |       1     | 0.76202518E-02 | 0.12466911E+03 |   67.982
 BASOPT|        2     |       1     | 0.93159767E-02 | 0.75978003E+02 |   75.896
 BASOPT|        3     |       1     | 0.62659457E-02 | 0.11505148E+03 |   94.167
 BASOPT|        4     |       1     | 0.74171195E-02 | 0.87947898E+02 |  106.632
 BASOPT|        5     |       1     | 0.17658926E-01 | 0.12620167E+03 |  176.579
 BASOPT|        6     |       1     | 0.15668536E-01 | 0.10083236E+04 | 1163.100
 BASOPT| -----------------------------------------------------------------------
 BASOPT| Total residuum value: -.20777581E+04

 BASOPT| Information at iteration number:    1900
 BASOPT| Training set | Combination | Rho difference | Condition num. | Time
 BASOPT| -----------------------------------------------------------------------
 BASOPT|        1     |       1     | 0.75204623E-02 | 0.12589474E+03 |   71.795
 BASOPT|        2     |       1     | 0.92589365E-02 | 0.76116889E+02 |   80.164
 BASOPT|        3     |       1     | 0.62256159E-02 | 0.11659816E+03 |   99.559
 BASOPT|        4     |       1     | 0.73892036E-02 | 0.88660605E+02 |  112.598
 BASOPT|        5     |       1     | 0.17793162E-01 | 0.12780289E+03 |  186.607
 BASOPT|        6     |       1     | 0.15589386E-01 | 0.10072553E+04 | 1227.979
 BASOPT| -----------------------------------------------------------------------
 BASOPT| Total residuum value: -.20777591E+04

 BASOPT| Information at iteration number:    2000
 BASOPT| Training set | Combination | Rho difference | Condition num. | Time
 BASOPT| -----------------------------------------------------------------------
 BASOPT|        1     |       1     | 0.76863147E-02 | 0.12422956E+03 |   75.622
 BASOPT|        2     |       1     | 0.93815348E-02 | 0.75277624E+02 |   84.437
 BASOPT|        3     |       1     | 0.62720869E-02 | 0.11493633E+03 |  104.965
 BASOPT|        4     |       1     | 0.74292206E-02 | 0.87262484E+02 |  118.538
 BASOPT|        5     |       1     | 0.17525714E-01 | 0.12582311E+03 |  196.610
 BASOPT|        6     |       1     | 0.15642807E-01 | 0.10042064E+04 | 1292.801
 BASOPT| -----------------------------------------------------------------------
 BASOPT| Total residuum value: -.20777615E+04

 BASOPT| Information at iteration number:    2100
 BASOPT| Training set | Combination | Rho difference | Condition num. | Time
 BASOPT| -----------------------------------------------------------------------
 BASOPT|        1     |       1     | 0.76234747E-02 | 0.12485187E+03 |   79.447
 BASOPT|        2     |       1     | 0.93432074E-02 | 0.75457743E+02 |   88.705
 BASOPT|        3     |       1     | 0.62396418E-02 | 0.11524646E+03 |  110.362
 BASOPT|        4     |       1     | 0.74063669E-02 | 0.87323534E+02 |  124.482
 BASOPT|        5     |       1     | 0.17568592E-01 | 0.12609469E+03 |  206.649
 BASOPT|        6     |       1     | 0.15609630E-01 | 0.10027771E+04 | 1357.698
 BASOPT| -----------------------------------------------------------------------
 BASOPT| Total residuum value: -.20777644E+04

 BASOPT| Information at iteration number:    2200
 BASOPT| Training set | Combination | Rho difference | Condition num. | Time
 BASOPT| -----------------------------------------------------------------------
 BASOPT|        1     |       1     | 0.76640505E-02 | 0.12464264E+03 |   83.276
 BASOPT|        2     |       1     | 0.93790292E-02 | 0.75405885E+02 |   92.977
 BASOPT|        3     |       1     | 0.62642109E-02 | 0.11479726E+03 |  115.757
 BASOPT|        4     |       1     | 0.74266743E-02 | 0.86912468E+02 |  130.424
 BASOPT|        5     |       1     | 0.17494717E-01 | 0.12550792E+03 |  216.710
 BASOPT|        6     |       1     | 0.15609072E-01 | 0.10011198E+04 | 1422.548
 BASOPT| -----------------------------------------------------------------------
 BASOPT| Total residuum value: -.20777659E+04

 BASOPT| Information at iteration number:    2300
 BASOPT| Training set | Combination | Rho difference | Condition num. | Time
 BASOPT| -----------------------------------------------------------------------
 BASOPT|        1     |       1     | 0.76113649E-02 | 0.12532836E+03 |   87.101
 BASOPT|        2     |       1     | 0.93483279E-02 | 0.75485033E+02 |   97.255
 BASOPT|        3     |       1     | 0.62298413E-02 | 0.11531604E+03 |  121.147
 BASOPT|        4     |       1     | 0.73990244E-02 | 0.86896572E+02 |  136.358
 BASOPT|        5     |       1     | 0.17552764E-01 | 0.12608797E+03 |  226.749
 BASOPT|        6     |       1     | 0.15573232E-01 | 0.99863344E+03 | 1487.407
 BASOPT| -----------------------------------------------------------------------
 BASOPT| Total residuum value: -.20777685E+04

 BASOPT| Information at iteration number:    2400
 BASOPT| Training set | Combination | Rho difference | Condition num. | Time
 BASOPT| -----------------------------------------------------------------------
 BASOPT|        1     |       1     | 0.76248908E-02 | 0.12502996E+03 |   90.941
 BASOPT|        2     |       1     | 0.93593374E-02 | 0.75340357E+02 |  101.536
 BASOPT|        3     |       1     | 0.62229623E-02 | 0.11478047E+03 |  126.542
 BASOPT|        4     |       1     | 0.74043815E-02 | 0.86262183E+02 |  142.284
 BASOPT|        5     |       1     | 0.17510861E-01 | 0.12543428E+03 |  236.762
 BASOPT|        6     |       1     | 0.15605690E-01 | 0.99615526E+03 | 1552.194
 BASOPT| -----------------------------------------------------------------------
 BASOPT| Total residuum value: -.20777700E+04

 BASOPT| Information at iteration number:    2500
 BASOPT| Training set | Combination | Rho difference | Condition num. | Time
 BASOPT| -----------------------------------------------------------------------
 BASOPT|        1     |       1     | 0.75789054E-02 | 0.12559078E+03 |   94.771
 BASOPT|        2     |       1     | 0.93505971E-02 | 0.75292859E+02 |  105.815
 BASOPT|        3     |       1     | 0.61802445E-02 | 0.11531670E+03 |  131.933
 BASOPT|        4     |       1     | 0.73903216E-02 | 0.86078448E+02 |  148.211
 BASOPT|        5     |       1     | 0.17545332E-01 | 0.12593220E+03 |  246.772
 BASOPT|        6     |       1     | 0.15541426E-01 | 0.99349005E+03 | 1616.993
 BASOPT| -----------------------------------------------------------------------
 BASOPT| Total residuum value: -.20777728E+04

 BASOPT| Information at iteration number:    2600
 BASOPT| Training set | Combination | Rho difference | Condition num. | Time
 BASOPT| -----------------------------------------------------------------------
 BASOPT|        1     |       1     | 0.74122595E-02 | 0.12742941E+03 |   98.581
 BASOPT|        2     |       1     | 0.92480903E-02 | 0.75749200E+02 |  110.090
 BASOPT|        3     |       1     | 0.61054694E-02 | 0.11711922E+03 |  137.322
 BASOPT|        4     |       1     | 0.73457332E-02 | 0.86729669E+02 |  154.142
 BASOPT|        5     |       1     | 0.17768837E-01 | 0.12779630E+03 |  256.784
 BASOPT|        6     |       1     | 0.15456461E-01 | 0.99237410E+03 | 1681.756
 BASOPT| -----------------------------------------------------------------------
 BASOPT| Total residuum value: -.20777740E+04

 BASOPT| Information at iteration number:    2700
 BASOPT| Training set | Combination | Rho difference | Condition num. | Time
 BASOPT| -----------------------------------------------------------------------
 BASOPT|        1     |       1     | 0.74905582E-02 | 0.12728353E+03 |  102.412
 BASOPT|        2     |       1     | 0.92942863E-02 | 0.75902013E+02 |  114.366
 BASOPT|        3     |       1     | 0.61516786E-02 | 0.11590418E+03 |  142.715
 BASOPT|        4     |       1     | 0.73707435E-02 | 0.85423117E+02 |  160.068
 BASOPT|        5     |       1     | 0.17570941E-01 | 0.12639382E+03 |  266.794
 BASOPT|        6     |       1     | 0.15473820E-01 | 0.99128623E+03 | 1746.528
 BASOPT| -----------------------------------------------------------------------
 BASOPT| Total residuum value: -.20777764E+04

 BASOPT| Information at iteration number:    2800
 BASOPT| Training set | Combination | Rho difference | Condition num. | Time
 BASOPT| -----------------------------------------------------------------------
 BASOPT|        1     |       1     | 0.75084542E-02 | 0.12717693E+03 |  106.235
 BASOPT|        2     |       1     | 0.93167322E-02 | 0.75678342E+02 |  118.654
 BASOPT|        3     |       1     | 0.61401102E-02 | 0.11569043E+03 |  148.107
 BASOPT|        4     |       1     | 0.73656499E-02 | 0.84865867E+02 |  165.994
 BASOPT|        5     |       1     | 0.17546908E-01 | 0.12620823E+03 |  276.797
 BASOPT|        6     |       1     | 0.15464568E-01 | 0.99033963E+03 | 1811.301
 BASOPT| -----------------------------------------------------------------------
 BASOPT| Total residuum value: -.20777774E+04

 BASOPT| Information at iteration number:    2900
 BASOPT| Training set | Combination | Rho difference | Condition num. | Time
 BASOPT| -----------------------------------------------------------------------
 BASOPT|        1     |       1     | 0.75006175E-02 | 0.12747043E+03 |  110.068
 BASOPT|        2     |       1     | 0.93173299E-02 | 0.75671968E+02 |  122.951
 BASOPT|        3     |       1     | 0.61321568E-02 | 0.11606320E+03 |  153.502
 BASOPT|        4     |       1     | 0.73649275E-02 | 0.84432161E+02 |  171.923
 BASOPT|        5     |       1     | 0.17529749E-01 | 0.12612132E+03 |  286.799
 BASOPT|        6     |       1     | 0.15445230E-01 | 0.98965101E+03 | 1876.053
 BASOPT| -----------------------------------------------------------------------
 BASOPT| Total residuum value: -.20777789E+04

 BASOPT| Information at iteration number:    3000
 BASOPT| Training set | Combination | Rho difference | Condition num. | Time
 BASOPT| -----------------------------------------------------------------------
 BASOPT|        1     |       1     | 0.75894522E-02 | 0.12643174E+03 |  113.883
 BASOPT|        2     |       1     | 0.94064067E-02 | 0.74911695E+02 |  127.247
 BASOPT|        3     |       1     | 0.61385023E-02 | 0.11535875E+03 |  158.904
 BASOPT|        4     |       1     | 0.73978749E-02 | 0.83072784E+02 |  177.847
 BASOPT|        5     |       1     | 0.17437363E-01 | 0.12479627E+03 |  296.800
 BASOPT|        6     |       1     | 0.15434095E-01 | 0.98621786E+03 | 1940.830
 BASOPT| -----------------------------------------------------------------------
 BASOPT| Total residuum value: -.20777808E+04

 BASOPT| Information at iteration number:    3100
 BASOPT| Training set | Combination | Rho difference | Condition num. | Time
 BASOPT| -----------------------------------------------------------------------
 BASOPT|        1     |       1     | 0.76308533E-02 | 0.12591425E+03 |  117.715
 BASOPT|        2     |       1     | 0.94459442E-02 | 0.74554573E+02 |  131.535
 BASOPT|        3     |       1     | 0.61407509E-02 | 0.11505954E+03 |  164.300
 BASOPT|        4     |       1     | 0.74118067E-02 | 0.82240778E+02 |  183.770
 BASOPT|        5     |       1     | 0.17363916E-01 | 0.12396810E+03 |  306.802
 BASOPT|        6     |       1     | 0.15436716E-01 | 0.98445015E+03 | 2005.602
 BASOPT| -----------------------------------------------------------------------
 BASOPT| Total residuum value: -.20777817E+04

 BASOPT| Information at iteration number:    3200
 BASOPT| Training set | Combination | Rho difference | Condition num. | Time
 BASOPT| -----------------------------------------------------------------------
 BASOPT|        1     |       1     | 0.76176239E-02 | 0.12646400E+03 |  121.554
 BASOPT|        2     |       1     | 0.94398789E-02 | 0.74578875E+02 |  135.834
 BASOPT|        3     |       1     | 0.61296007E-02 | 0.11556384E+03 |  169.695
 BASOPT|        4     |       1     | 0.74067125E-02 | 0.81545177E+02 |  189.699
 BASOPT|        5     |       1     | 0.17347397E-01 | 0.12392346E+03 |  316.819
 BASOPT|        6     |       1     | 0.15416992E-01 | 0.98232954E+03 | 2070.424
 BASOPT| -----------------------------------------------------------------------
 BASOPT| Total residuum value: -.20777829E+04

 BASOPT| Information at iteration number:    3300
 BASOPT| Training set | Combination | Rho difference | Condition num. | Time
 BASOPT| -----------------------------------------------------------------------
 BASOPT|        1     |       1     | 0.77366811E-02 | 0.12556073E+03 |  125.374
 BASOPT|        2     |       1     | 0.95184329E-02 | 0.74250113E+02 |  140.106
 BASOPT|        3     |       1     | 0.61818489E-02 | 0.11482439E+03 |  175.087
 BASOPT|        4     |       1     | 0.74439814E-02 | 0.80477158E+02 |  195.660
 BASOPT|        5     |       1     | 0.17175568E-01 | 0.12264562E+03 |  326.834
 BASOPT|        6     |       1     | 0.15474578E-01 | 0.98216106E+03 | 2135.271
 BASOPT| -----------------------------------------------------------------------
 BASOPT| Total residuum value: -.20777831E+04

 BASOPT| Information at iteration number:    3400
 BASOPT| Training set | Combination | Rho difference | Condition num. | Time
 BASOPT| -----------------------------------------------------------------------
 BASOPT|        1     |       1     | 0.76039831E-02 | 0.12695511E+03 |  129.196
 BASOPT|        2     |       1     | 0.94409559E-02 | 0.74528597E+02 |  144.378
 BASOPT|        3     |       1     | 0.61146478E-02 | 0.11587596E+03 |  180.481
 BASOPT|        4     |       1     | 0.74020049E-02 | 0.80997002E+02 |  201.610
 BASOPT|        5     |       1     | 0.17332202E-01 | 0.12417000E+03 |  336.880
 BASOPT|        6     |       1     | 0.15391099E-01 | 0.98154263E+03 | 2200.113
 BASOPT| -----------------------------------------------------------------------
 BASOPT| Total residuum value: -.20777843E+04

 BASOPT| Information at iteration number:    3500
 BASOPT| Training set | Combination | Rho difference | Condition num. | Time
 BASOPT| -----------------------------------------------------------------------
 BASOPT|        1     |       1     | 0.75742620E-02 | 0.12721100E+03 |  133.028
 BASOPT|        2     |       1     | 0.94386757E-02 | 0.74286001E+02 |  148.657
 BASOPT|        3     |       1     | 0.60792304E-02 | 0.11598159E+03 |  185.891
 BASOPT|        4     |       1     | 0.74033602E-02 | 0.80595357E+02 |  207.540
 BASOPT|        5     |       1     | 0.17372593E-01 | 0.12440832E+03 |  346.895
 BASOPT|        6     |       1     | 0.15378312E-01 | 0.97912052E+03 | 2264.942
 BASOPT| -----------------------------------------------------------------------
 BASOPT| Total residuum value: -.20777856E+04

 BASOPT| Information at iteration number:    3600
 BASOPT| Training set | Combination | Rho difference | Condition num. | Time
 BASOPT| -----------------------------------------------------------------------
 BASOPT|        1     |       1     | 0.76251704E-02 | 0.12696561E+03 |  136.850
 BASOPT|        2     |       1     | 0.94774741E-02 | 0.74108232E+02 |  152.930
 BASOPT|        3     |       1     | 0.60942519E-02 | 0.11576511E+03 |  191.284
 BASOPT|        4     |       1     | 0.74177198E-02 | 0.79943398E+02 |  213.492
 BASOPT|        5     |       1     | 0.17294747E-01 | 0.12392706E+03 |  356.928
 BASOPT|        6     |       1     | 0.15397716E-01 | 0.97837897E+03 | 2329.789
 BASOPT| -----------------------------------------------------------------------
 BASOPT| Total residuum value: -.20777865E+04

 BASOPT| Information at iteration number:    3700
 BASOPT| Training set | Combination | Rho difference | Condition num. | Time
 BASOPT| -----------------------------------------------------------------------
 BASOPT|        1     |       1     | 0.75696635E-02 | 0.12748161E+03 |  140.678
 BASOPT|        2     |       1     | 0.94553627E-02 | 0.73904148E+02 |  157.234
 BASOPT|        3     |       1     | 0.60526766E-02 | 0.11613244E+03 |  196.679
 BASOPT|        4     |       1     | 0.74041866E-02 | 0.79591274E+02 |  219.434
 BASOPT|        5     |       1     | 0.17393026E-01 | 0.12444962E+03 |  366.936
 BASOPT|        6     |       1     | 0.15357323E-01 | 0.97657185E+03 | 2394.602
 BASOPT| -----------------------------------------------------------------------
 BASOPT| Total residuum value: -.20777874E+04

 BASOPT| Information at iteration number:    3800
 BASOPT| Training set | Combination | Rho difference | Condition num. | Time
 BASOPT| -----------------------------------------------------------------------
 BASOPT|        1     |       1     | 0.75874940E-02 | 0.12777128E+03 |  144.514
 BASOPT|        2     |       1     | 0.94677961E-02 | 0.74042328E+02 |  161.554
 BASOPT|        3     |       1     | 0.60696710E-02 | 0.11630818E+03 |  202.139
 BASOPT|        4     |       1     | 0.74160492E-02 | 0.79319386E+02 |  225.290
 BASOPT|        5     |       1     | 0.17333242E-01 | 0.12454317E+03 |  376.564
 BASOPT|        6     |       1     | 0.15370942E-01 | 0.97645824E+03 | 2459.113
 BASOPT| -----------------------------------------------------------------------
 BASOPT| Total residuum value: -.20777876E+04

 BASOPT| Information at iteration number:    3900
 BASOPT| Training set | Combination | Rho difference | Condition num. | Time
 BASOPT| -----------------------------------------------------------------------
 BASOPT|        1     |       1     | 0.74907624E-02 | 0.12893080E+03 |  148.354
 BASOPT|        2     |       1     | 0.94036991E-02 | 0.74176582E+02 |  165.870
 BASOPT|        3     |       1     | 0.60247443E-02 | 0.11717449E+03 |  207.606
 BASOPT|        4     |       1     | 0.73823400E-02 | 0.79441016E+02 |  231.149
 BASOPT|        5     |       1     | 0.17417306E-01 | 0.12568498E+03 |  386.136
 BASOPT|        6     |       1     | 0.15321936E-01 | 0.97605985E+03 | 2523.597
 BASOPT| -----------------------------------------------------------------------
 BASOPT| Total residuum value: -.20777885E+04

 BASOPT| Information at iteration number:    4000
 BASOPT| Training set | Combination | Rho difference | Condition num. | Time
 BASOPT| -----------------------------------------------------------------------
 BASOPT|        1     |       1     | 0.75532848E-02 | 0.12829413E+03 |  152.196
 BASOPT|        2     |       1     | 0.94486583E-02 | 0.73907287E+02 |  170.187
 BASOPT|        3     |       1     | 0.60514140E-02 | 0.11677008E+03 |  213.072
 BASOPT|        4     |       1     | 0.73992795E-02 | 0.78725912E+02 |  236.985
 BASOPT|        5     |       1     | 0.17319027E-01 | 0.12479943E+03 |  395.694
 BASOPT|        6     |       1     | 0.15333246E-01 | 0.97552272E+03 | 2588.020
 BASOPT| -----------------------------------------------------------------------
 BASOPT| Total residuum value: -.20777893E+04

 BASOPT| Information at iteration number:    4100
 BASOPT| Training set | Combination | Rho difference | Condition num. | Time
 BASOPT| -----------------------------------------------------------------------
 BASOPT|        1     |       1     | 0.76376570E-02 | 0.12728698E+03 |  156.035
 BASOPT|        2     |       1     | 0.95177583E-02 | 0.73327825E+02 |  174.505
 BASOPT|        3     |       1     | 0.60716093E-02 | 0.11605841E+03 |  218.540
 BASOPT|        4     |       1     | 0.74284129E-02 | 0.77903957E+02 |  242.818
 BASOPT|        5     |       1     | 0.17201535E-01 | 0.12381081E+03 |  405.268
 BASOPT|        6     |       1     | 0.15365312E-01 | 0.97505457E+03 | 2652.436
 BASOPT| -----------------------------------------------------------------------
 BASOPT| Total residuum value: -.20777896E+04

 BASOPT| Information at iteration number:    4200
 BASOPT| Training set | Combination | Rho difference | Condition num. | Time
 BASOPT| -----------------------------------------------------------------------
 BASOPT|        1     |       1     | 0.76043695E-02 | 0.12780405E+03 |  159.872
 BASOPT|        2     |       1     | 0.95072455E-02 | 0.73306506E+02 |  178.821
 BASOPT|        3     |       1     | 0.60517189E-02 | 0.11652960E+03 |  224.006
 BASOPT|        4     |       1     | 0.74213086E-02 | 0.77851721E+02 |  248.651
 BASOPT|        5     |       1     | 0.17256380E-01 | 0.12429693E+03 |  414.835
 BASOPT|        6     |       1     | 0.15329378E-01 | 0.97492051E+03 | 2716.885
 BASOPT| -----------------------------------------------------------------------
 BASOPT| Total residuum value: -.20777904E+04

 BASOPT| Information at iteration number:    4300
 BASOPT| Training set | Combination | Rho difference | Condition num. | Time
 BASOPT| -----------------------------------------------------------------------
 BASOPT|        1     |       1     | 0.75747900E-02 | 0.12844808E+03 |  163.706
 BASOPT|        2     |       1     | 0.94862354E-02 | 0.73459386E+02 |  183.137
 BASOPT|        3     |       1     | 0.60408031E-02 | 0.11709890E+03 |  229.472
 BASOPT|        4     |       1     | 0.74084637E-02 | 0.77681104E+02 |  254.482
 BASOPT|        5     |       1     | 0.17274720E-01 | 0.12472938E+03 |  424.406
 BASOPT|        6     |       1     | 0.15307051E-01 | 0.97509789E+03 | 2781.349
 BASOPT| -----------------------------------------------------------------------
 BASOPT| Total residuum value: -.20777910E+04

 BASOPT| Information at iteration number:    4400
 BASOPT| Training set | Combination | Rho difference | Condition num. | Time
 BASOPT| -----------------------------------------------------------------------
 BASOPT|        1     |       1     | 0.76740183E-02 | 0.12782651E+03 |  167.542
 BASOPT|        2     |       1     | 0.95568341E-02 | 0.73153117E+02 |  187.454
 BASOPT|        3     |       1     | 0.60716574E-02 | 0.11657162E+03 |  234.941
 BASOPT|        4     |       1     | 0.74317076E-02 | 0.76540561E+02 |  260.344
 BASOPT|        5     |       1     | 0.17114343E-01 | 0.12369167E+03 |  433.966
 BASOPT|        6     |       1     | 0.15348368E-01 | 0.97440244E+03 | 2845.816
 BASOPT| -----------------------------------------------------------------------
 BASOPT| Total residuum value: -.20777912E+04

 BASOPT| Information at iteration number:    4500
 BASOPT| Training set | Combination | Rho difference | Condition num. | Time
 BASOPT| -----------------------------------------------------------------------
 BASOPT|        1     |       1     | 0.76401990E-02 | 0.12866710E+03 |  171.382
 BASOPT|        2     |       1     | 0.95361880E-02 | 0.73319793E+02 |  191.769
 BASOPT|        3     |       1     | 0.60600786E-02 | 0.11731083E+03 |  240.410
 BASOPT|        4     |       1     | 0.74191669E-02 | 0.76371980E+02 |  266.198
 BASOPT|        5     |       1     | 0.17146720E-01 | 0.12421452E+03 |  443.558
 BASOPT|        6     |       1     | 0.15317674E-01 | 0.97418015E+03 | 2910.387
 BASOPT| -----------------------------------------------------------------------
 BASOPT| Total residuum value: -.20777925E+04

 BASOPT| Information at iteration number:    4600
 BASOPT| Training set | Combination | Rho difference | Condition num. | Time
 BASOPT| -----------------------------------------------------------------------
 BASOPT|        1     |       1     | 0.76071849E-02 | 0.12915749E+03 |  175.201
 BASOPT|        2     |       1     | 0.95167596E-02 | 0.73445627E+02 |  196.095
 BASOPT|        3     |       1     | 0.60487592E-02 | 0.11781249E+03 |  245.881
 BASOPT|        4     |       1     | 0.74109397E-02 | 0.76335175E+02 |  272.049
 BASOPT|        5     |       1     | 0.17166567E-01 | 0.12445656E+03 |  453.120
 BASOPT|        6     |       1     | 0.15280084E-01 | 0.97413899E+03 | 2975.242
 BASOPT| -----------------------------------------------------------------------
 BASOPT| Total residuum value: -.20777928E+04

 BASOPT| Information at iteration number:    4700
 BASOPT| Training set | Combination | Rho difference | Condition num. | Time
 BASOPT| -----------------------------------------------------------------------
 BASOPT|        1     |       1     | 0.76757605E-02 | 0.12834484E+03 |  179.015
 BASOPT|        2     |       1     | 0.95740962E-02 | 0.73052502E+02 |  200.416
 BASOPT|        3     |       1     | 0.60660444E-02 | 0.11723162E+03 |  251.350
 BASOPT|        4     |       1     | 0.74453270E-02 | 0.75738565E+02 |  277.883
 BASOPT|        5     |       1     | 0.17079266E-01 | 0.12360183E+03 |  462.698
 BASOPT|        6     |       1     | 0.15315149E-01 | 0.97326795E+03 | 3040.128
 BASOPT| -----------------------------------------------------------------------
 BASOPT| Total residuum value: -.20777928E+04

 BASOPT| Information at iteration number:    4800
 BASOPT| Training set | Combination | Rho difference | Condition num. | Time
 BASOPT| -----------------------------------------------------------------------
 BASOPT|        1     |       1     | 0.76245726E-02 | 0.12861005E+03 |  182.830
 BASOPT|        2     |       1     | 0.95429276E-02 | 0.73001489E+02 |  204.736
 BASOPT|        3     |       1     | 0.60293467E-02 | 0.11731812E+03 |  256.820
 BASOPT|        4     |       1     | 0.74292097E-02 | 0.75837798E+02 |  283.717
 BASOPT|        5     |       1     | 0.17121015E-01 | 0.12399084E+03 |  472.305
 BASOPT|        6     |       1     | 0.15297586E-01 | 0.97221896E+03 | 3104.991
 BASOPT| -----------------------------------------------------------------------
 BASOPT| Total residuum value: -.20777937E+04

 BASOPT| Information at iteration number:    4900
 BASOPT| Training set | Combination | Rho difference | Condition num. | Time
 BASOPT| -----------------------------------------------------------------------
 BASOPT|        1     |       1     | 0.76274972E-02 | 0.12865670E+03 |  186.646
 BASOPT|        2     |       1     | 0.95490156E-02 | 0.73025290E+02 |  209.050
 BASOPT|        3     |       1     | 0.60283512E-02 | 0.11739459E+03 |  262.289
 BASOPT|        4     |       1     | 0.74299769E-02 | 0.75626413E+02 |  289.561
 BASOPT|        5     |       1     | 0.17126811E-01 | 0.12382840E+03 |  481.909
 BASOPT|        6     |       1     | 0.15285304E-01 | 0.97085923E+03 | 3169.898
 BASOPT| -----------------------------------------------------------------------
 BASOPT| Total residuum value: -.20777943E+04

 BASOPT| Information at iteration number:    5000
 BASOPT| Training set | Combination | Rho difference | Condition num. | Time
 BASOPT| -----------------------------------------------------------------------
 BASOPT|        1     |       1     | 0.76060666E-02 | 0.12892099E+03 |  190.473
 BASOPT|        2     |       1     | 0.95315716E-02 | 0.73125168E+02 |  213.368
 BASOPT|        3     |       1     | 0.60205859E-02 | 0.11764034E+03 |  267.756
 BASOPT|        4     |       1     | 0.74241968E-02 | 0.75534810E+02 |  295.427
 BASOPT|        5     |       1     | 0.17133421E-01 | 0.12390465E+03 |  491.514
 BASOPT|        6     |       1     | 0.15276017E-01 | 0.96994618E+03 | 3234.788
 BASOPT| -----------------------------------------------------------------------
 BASOPT| Total residuum value: -.20777946E+04

 BASOPT| Information at iteration number:    5100
 BASOPT| Training set | Combination | Rho difference | Condition num. | Time
 BASOPT| -----------------------------------------------------------------------
 BASOPT|        1     |       1     | 0.75856664E-02 | 0.12934821E+03 |  194.292
 BASOPT|        2     |       1     | 0.95213103E-02 | 0.73309691E+02 |  217.680
 BASOPT|        3     |       1     | 0.60119986E-02 | 0.11805221E+03 |  273.226
 BASOPT|        4     |       1     | 0.74176839E-02 | 0.75553429E+02 |  301.317
 BASOPT|        5     |       1     | 0.17142690E-01 | 0.12405852E+03 |  501.108
 BASOPT|        6     |       1     | 0.15252518E-01 | 0.96913244E+03 | 3299.300
 BASOPT| -----------------------------------------------------------------------
 BASOPT| Total residuum value: -.20777951E+04

 BASOPT| Information at iteration number:    5200
 BASOPT| Training set | Combination | Rho difference | Condition num. | Time
 BASOPT| -----------------------------------------------------------------------
 BASOPT|        1     |       1     | 0.76119438E-02 | 0.12907980E+03 |  198.118
 BASOPT|        2     |       1     | 0.95474210E-02 | 0.73144261E+02 |  221.992
 BASOPT|        3     |       1     | 0.60137746E-02 | 0.11792426E+03 |  278.696
 BASOPT|        4     |       1     | 0.74253955E-02 | 0.75306499E+02 |  307.203
 BASOPT|        5     |       1     | 0.17111889E-01 | 0.12375897E+03 |  510.708
 BASOPT|        6     |       1     | 0.15256164E-01 | 0.96834508E+03 | 3363.816
 BASOPT| -----------------------------------------------------------------------
 BASOPT| Total residuum value: -.20777955E+04

 BASOPT| Information at iteration number:    5300
 BASOPT| Training set | Combination | Rho difference | Condition num. | Time
 BASOPT| -----------------------------------------------------------------------
 BASOPT|        1     |       1     | 0.76675856E-02 | 0.12847594E+03 |  201.931
 BASOPT|        2     |       1     | 0.95882312E-02 | 0.72982509E+02 |  226.316
 BASOPT|        3     |       1     | 0.60421746E-02 | 0.11781279E+03 |  284.167
 BASOPT|        4     |       1     | 0.74568676E-02 | 0.74950428E+02 |  313.088
 BASOPT|        5     |       1     | 0.17040387E-01 | 0.12294728E+03 |  520.318
 BASOPT|        6     |       1     | 0.15286283E-01 | 0.96731643E+03 | 3428.389
 BASOPT| -----------------------------------------------------------------------
 BASOPT| Total residuum value: -.20777960E+04

 BASOPT| Information at iteration number:    5400
 BASOPT| Training set | Combination | Rho difference | Condition num. | Time
 BASOPT| -----------------------------------------------------------------------
 BASOPT|        1     |       1     | 0.76537558E-02 | 0.12874293E+03 |  205.750
 BASOPT|        2     |       1     | 0.95896942E-02 | 0.72961140E+02 |  230.636
 BASOPT|        3     |       1     | 0.60268999E-02 | 0.11819988E+03 |  289.637
 BASOPT|        4     |       1     | 0.74473341E-02 | 0.74960492E+02 |  318.962
 BASOPT|        5     |       1     | 0.17062589E-01 | 0.12317238E+03 |  529.926
 BASOPT|        6     |       1     | 0.15257331E-01 | 0.96652408E+03 | 3492.955
 BASOPT| -----------------------------------------------------------------------
 BASOPT| Total residuum value: -.20777974E+04

 BASOPT| Information at iteration number:    5500
 BASOPT| Training set | Combination | Rho difference | Condition num. | Time
 BASOPT| -----------------------------------------------------------------------
 BASOPT|        1     |       1     | 0.76692771E-02 | 0.12834588E+03 |  209.561
 BASOPT|        2     |       1     | 0.96203339E-02 | 0.72535343E+02 |  234.955
 BASOPT|        3     |       1     | 0.60103566E-02 | 0.11789334E+03 |  295.103
 BASOPT|        4     |       1     | 0.74512667E-02 | 0.74731325E+02 |  324.850
 BASOPT|        5     |       1     | 0.17102487E-01 | 0.12306592E+03 |  539.525
 BASOPT|        6     |       1     | 0.15246059E-01 | 0.96473072E+03 | 3557.514
 BASOPT| -----------------------------------------------------------------------
 BASOPT| Total residuum value: -.20777980E+04

 BASOPT| Information at iteration number:    5600
 BASOPT| Training set | Combination | Rho difference | Condition num. | Time
 BASOPT| -----------------------------------------------------------------------
 BASOPT|        1     |       1     | 0.76086048E-02 | 0.12929833E+03 |  213.387
 BASOPT|        2     |       1     | 0.95762855E-02 | 0.72931913E+02 |  239.270
 BASOPT|        3     |       1     | 0.59958238E-02 | 0.11876247E+03 |  300.572
 BASOPT|        4     |       1     | 0.74357753E-02 | 0.75145735E+02 |  330.732
 BASOPT|        5     |       1     | 0.17152939E-01 | 0.12379866E+03 |  549.127
 BASOPT|        6     |       1     | 0.15207673E-01 | 0.96502089E+03 | 3622.037
 BASOPT| -----------------------------------------------------------------------
 BASOPT| Total residuum value: -.20777980E+04

 BASOPT| Information at iteration number:    5700
 BASOPT| Training set | Combination | Rho difference | Condition num. | Time
 BASOPT| -----------------------------------------------------------------------
 BASOPT|        1     |       1     | 0.76565557E-02 | 0.12894218E+03 |  217.199
 BASOPT|        2     |       1     | 0.96174165E-02 | 0.72776360E+02 |  243.578
 BASOPT|        3     |       1     | 0.59987578E-02 | 0.11834573E+03 |  306.044
 BASOPT|        4     |       1     | 0.74444834E-02 | 0.74906214E+02 |  336.608
 BASOPT|        5     |       1     | 0.17109652E-01 | 0.12347187E+03 |  558.754
 BASOPT|        6     |       1     | 0.15233991E-01 | 0.96393341E+03 | 3686.541
 BASOPT| -----------------------------------------------------------------------
 BASOPT| Total residuum value: -.20777987E+04

 BASOPT| Information at iteration number:    5800
 BASOPT| Training set | Combination | Rho difference | Condition num. | Time
 BASOPT| -----------------------------------------------------------------------
 BASOPT|        1     |       1     | 0.76573169E-02 | 0.12889694E+03 |  221.016
 BASOPT|        2     |       1     | 0.96169018E-02 | 0.72878462E+02 |  247.896
 BASOPT|        3     |       1     | 0.59995835E-02 | 0.11849086E+03 |  311.513
 BASOPT|        4     |       1     | 0.74459622E-02 | 0.74870676E+02 |  342.485
 BASOPT|        5     |       1     | 0.17098489E-01 | 0.12337998E+03 |  568.358
 BASOPT|        6     |       1     | 0.15240426E-01 | 0.96362361E+03 | 3751.075
 BASOPT| -----------------------------------------------------------------------
 BASOPT| Total residuum value: -.20777992E+04

 BASOPT| Information at iteration number:    5900
 BASOPT| Training set | Combination | Rho difference | Condition num. | Time
 BASOPT| -----------------------------------------------------------------------
 BASOPT|        1     |       1     | 0.76535182E-02 | 0.12895833E+03 |  224.838
 BASOPT|        2     |       1     | 0.96133707E-02 | 0.72918016E+02 |  252.202
 BASOPT|        3     |       1     | 0.59974107E-02 | 0.11854460E+03 |  316.981
 BASOPT|        4     |       1     | 0.74472697E-02 | 0.74947428E+02 |  348.370
 BASOPT|        5     |       1     | 0.17107809E-01 | 0.12348672E+03 |  577.959
 BASOPT|        6     |       1     | 0.15243916E-01 | 0.96329055E+03 | 3815.664
 BASOPT| -----------------------------------------------------------------------
 BASOPT| Total residuum value: -.20777994E+04

 BASOPT| Information at iteration number:    6000
 BASOPT| Training set | Combination | Rho difference | Condition num. | Time
 BASOPT| -----------------------------------------------------------------------
 BASOPT|        1     |       1     | 0.76341539E-02 | 0.12932278E+03 |  228.649
 BASOPT|        2     |       1     | 0.96012854E-02 | 0.73064682E+02 |  256.507
 BASOPT|        3     |       1     | 0.59898004E-02 | 0.11890582E+03 |  322.447
 BASOPT|        4     |       1     | 0.74401464E-02 | 0.75049516E+02 |  354.260
 BASOPT|        5     |       1     | 0.17152133E-01 | 0.12391084E+03 |  587.554
 BASOPT|        6     |       1     | 0.15226043E-01 | 0.96317568E+03 | 3880.306
 BASOPT| -----------------------------------------------------------------------
 BASOPT| Total residuum value: -.20777995E+04

 BASOPT| Information at iteration number:    6100
 BASOPT| Training set | Combination | Rho difference | Condition num. | Time
 BASOPT| -----------------------------------------------------------------------
 BASOPT|        1     |       1     | 0.76635018E-02 | 0.12923507E+03 |  232.462
 BASOPT|        2     |       1     | 0.96159975E-02 | 0.73136854E+02 |  260.813
 BASOPT|        3     |       1     | 0.60036951E-02 | 0.11883034E+03 |  327.914
 BASOPT|        4     |       1     | 0.74442273E-02 | 0.74955899E+02 |  360.134
 BASOPT|        5     |       1     | 0.17091694E-01 | 0.12382385E+03 |  597.141
 BASOPT|        6     |       1     | 0.15236248E-01 | 0.96354692E+03 | 3944.805
 BASOPT| -----------------------------------------------------------------------
 BASOPT| Total residuum value: -.20777998E+04

 BASOPT| Information at iteration number:    6200
 BASOPT| Training set | Combination | Rho difference | Condition num. | Time
 BASOPT| -----------------------------------------------------------------------
 BASOPT|        1     |       1     | 0.76276193E-02 | 0.12955925E+03 |  236.280
 BASOPT|        2     |       1     | 0.95913895E-02 | 0.73211859E+02 |  265.120
 BASOPT|        3     |       1     | 0.59897579E-02 | 0.11891150E+03 |  333.380
 BASOPT|        4     |       1     | 0.74353963E-02 | 0.75206302E+02 |  366.021
 BASOPT|        5     |       1     | 0.17130106E-01 | 0.12403685E+03 |  606.740
 BASOPT|        6     |       1     | 0.15217927E-01 | 0.96376266E+03 | 4009.353
 BASOPT| -----------------------------------------------------------------------
 BASOPT| Total residuum value: -.20778001E+04

 BASOPT| Information at iteration number:    6300
 BASOPT| Training set | Combination | Rho difference | Condition num. | Time
 BASOPT| -----------------------------------------------------------------------
 BASOPT|        1     |       1     | 0.76321701E-02 | 0.12939659E+03 |  240.093
 BASOPT|        2     |       1     | 0.95898370E-02 | 0.73183365E+02 |  269.426
 BASOPT|        3     |       1     | 0.59921114E-02 | 0.11870662E+03 |  338.846
 BASOPT|        4     |       1     | 0.74385954E-02 | 0.75297804E+02 |  371.907
 BASOPT|        5     |       1     | 0.17108743E-01 | 0.12392356E+03 |  616.330
 BASOPT|        6     |       1     | 0.15226458E-01 | 0.96382331E+03 | 4073.898
 BASOPT| -----------------------------------------------------------------------
 BASOPT| Total residuum value: -.20778004E+04

 BASOPT| Information at iteration number:    6400
 BASOPT| Training set | Combination | Rho difference | Condition num. | Time
 BASOPT| -----------------------------------------------------------------------
 BASOPT|        1     |       1     | 0.76657022E-02 | 0.12908190E+03 |  243.906
 BASOPT|        2     |       1     | 0.96141779E-02 | 0.73046433E+02 |  273.735
 BASOPT|        3     |       1     | 0.59997694E-02 | 0.11823418E+03 |  344.312
 BASOPT|        4     |       1     | 0.74468890E-02 | 0.75230362E+02 |  377.806
 BASOPT|        5     |       1     | 0.17058329E-01 | 0.12351315E+03 |  625.911
 BASOPT|        6     |       1     | 0.15246971E-01 | 0.96368335E+03 | 4138.404
 BASOPT| -----------------------------------------------------------------------
 BASOPT| Total residuum value: -.20778006E+04

 BASOPT| Information at iteration number:    6500
 BASOPT| Training set | Combination | Rho difference | Condition num. | Time
 BASOPT| -----------------------------------------------------------------------
 BASOPT|        1     |       1     | 0.76261220E-02 | 0.12938142E+03 |  247.712
 BASOPT|        2     |       1     | 0.95960084E-02 | 0.73021342E+02 |  278.045
 BASOPT|        3     |       1     | 0.59778026E-02 | 0.11831991E+03 |  349.779
 BASOPT|        4     |       1     | 0.74384105E-02 | 0.75583931E+02 |  383.676
 BASOPT|        5     |       1     | 0.17114218E-01 | 0.12386038E+03 |  635.505
 BASOPT|        6     |       1     | 0.15210032E-01 | 0.96312671E+03 | 4202.875
 BASOPT| -----------------------------------------------------------------------
 BASOPT| Total residuum value: -.20778010E+04

 BASOPT| Information at iteration number:    6600
 BASOPT| Training set | Combination | Rho difference | Condition num. | Time
 BASOPT| -----------------------------------------------------------------------
 BASOPT|        1     |       1     | 0.75865146E-02 | 0.12952588E+03 |  251.521
 BASOPT|        2     |       1     | 0.95717825E-02 | 0.73094878E+02 |  282.353
 BASOPT|        3     |       1     | 0.59585976E-02 | 0.11849369E+03 |  355.250
 BASOPT|        4     |       1     | 0.74292808E-02 | 0.75804965E+02 |  389.540
 BASOPT|        5     |       1     | 0.17150180E-01 | 0.12407464E+03 |  645.102
 BASOPT|        6     |       1     | 0.15198657E-01 | 0.96289167E+03 | 4267.404
 BASOPT| -----------------------------------------------------------------------
 BASOPT| Total residuum value: -.20778010E+04

 BASOPT| Information at iteration number:    6700
 BASOPT| Training set | Combination | Rho difference | Condition num. | Time
 BASOPT| -----------------------------------------------------------------------
 BASOPT|        1     |       1     | 0.76231330E-02 | 0.12918558E+03 |  255.335
 BASOPT|        2     |       1     | 0.95953150E-02 | 0.73014976E+02 |  286.662
 BASOPT|        3     |       1     | 0.59718819E-02 | 0.11821404E+03 |  360.725
 BASOPT|        4     |       1     | 0.74377225E-02 | 0.75610261E+02 |  395.414
 BASOPT|        5     |       1     | 0.17089586E-01 | 0.12373993E+03 |  654.692
 BASOPT|        6     |       1     | 0.15215295E-01 | 0.96308197E+03 | 4331.922
 BASOPT| -----------------------------------------------------------------------
 BASOPT| Total residuum value: -.20778014E+04

 BASOPT| Information at iteration number:    6800
 BASOPT| Training set | Combination | Rho difference | Condition num. | Time
 BASOPT| -----------------------------------------------------------------------
 BASOPT|        1     |       1     | 0.76630890E-02 | 0.12872304E+03 |  259.153
 BASOPT|        2     |       1     | 0.96327234E-02 | 0.72789797E+02 |  290.977
 BASOPT|        3     |       1     | 0.59786543E-02 | 0.11791525E+03 |  366.195
 BASOPT|        4     |       1     | 0.74475985E-02 | 0.75272220E+02 |  401.313
 BASOPT|        5     |       1     | 0.17061992E-01 | 0.12334383E+03 |  664.287
 BASOPT|        6     |       1     | 0.15202888E-01 | 0.96204125E+03 | 4396.440
 BASOPT| -----------------------------------------------------------------------
 BASOPT| Total residuum value: -.20778015E+04

 BASOPT| Information at iteration number:    6900
 BASOPT| Training set | Combination | Rho difference | Condition num. | Time
 BASOPT| -----------------------------------------------------------------------
 BASOPT|        1     |       1     | 0.76059776E-02 | 0.12908522E+03 |  262.983
 BASOPT|        2     |       1     | 0.96031351E-02 | 0.72731326E+02 |  295.284
 BASOPT|        3     |       1     | 0.59437366E-02 | 0.11810176E+03 |  371.662
 BASOPT|        4     |       1     | 0.74395149E-02 | 0.75503904E+02 |  407.183
 BASOPT|        5     |       1     | 0.17146654E-01 | 0.12367821E+03 |  673.879
 BASOPT|        6     |       1     | 0.15192427E-01 | 0.96029095E+03 | 4460.980
 BASOPT| -----------------------------------------------------------------------
 BASOPT| Total residuum value: -.20778019E+04

 BASOPT| Information at iteration number:    7000
 BASOPT| Training set | Combination | Rho difference | Condition num. | Time
 BASOPT| -----------------------------------------------------------------------
 BASOPT|        1     |       1     | 0.76368629E-02 | 0.12877997E+03 |  266.799
 BASOPT|        2     |       1     | 0.96288809E-02 | 0.72595142E+02 |  299.591
 BASOPT|        3     |       1     | 0.59563309E-02 | 0.11780654E+03 |  377.127
 BASOPT|        4     |       1     | 0.74569885E-02 | 0.75326832E+02 |  413.056
 BASOPT|        5     |       1     | 0.17115678E-01 | 0.12340704E+03 |  683.466
 BASOPT|        6     |       1     | 0.15192124E-01 | 0.95896929E+03 | 4525.495
 BASOPT| -----------------------------------------------------------------------
 BASOPT| Total residuum value: -.20778018E+04

 BASOPT| Information at iteration number:    7100
 BASOPT| Training set | Combination | Rho difference | Condition num. | Time
 BASOPT| -----------------------------------------------------------------------
 BASOPT|        1     |       1     | 0.76537431E-02 | 0.12849867E+03 |  270.610
 BASOPT|        2     |       1     | 0.96459615E-02 | 0.72419293E+02 |  303.898
 BASOPT|        3     |       1     | 0.59567292E-02 | 0.11740695E+03 |  382.591
 BASOPT|        4     |       1     | 0.74665482E-02 | 0.75153494E+02 |  418.927
 BASOPT|        5     |       1     | 0.17107379E-01 | 0.12315563E+03 |  693.058
 BASOPT|        6     |       1     | 0.15196741E-01 | 0.95814757E+03 | 4590.263
 BASOPT| -----------------------------------------------------------------------
 BASOPT| Total residuum value: -.20778026E+04

 BASOPT| Information at iteration number:    7200
 BASOPT| Training set | Combination | Rho difference | Condition num. | Time
 BASOPT| -----------------------------------------------------------------------
 BASOPT|        1     |       1     | 0.76172581E-02 | 0.12891994E+03 |  274.417
 BASOPT|        2     |       1     | 0.96195171E-02 | 0.72564554E+02 |  308.205
 BASOPT|        3     |       1     | 0.59483886E-02 | 0.11773466E+03 |  388.055
 BASOPT|        4     |       1     | 0.74611150E-02 | 0.75273943E+02 |  424.806
 BASOPT|        5     |       1     | 0.17148933E-01 | 0.12348159E+03 |  702.655
 BASOPT|        6     |       1     | 0.15182311E-01 | 0.95773220E+03 | 4654.844
 BASOPT| -----------------------------------------------------------------------
 BASOPT| Total residuum value: -.20778025E+04

 BASOPT| Information at iteration number:    7300
 BASOPT| Training set | Combination | Rho difference | Condition num. | Time
 BASOPT| -----------------------------------------------------------------------
 BASOPT|        1     |       1     | 0.76684210E-02 | 0.12832605E+03 |  278.221
 BASOPT|        2     |       1     | 0.96568481E-02 | 0.72345529E+02 |  312.510
 BASOPT|        3     |       1     | 0.59600325E-02 | 0.11725288E+03 |  393.516
 BASOPT|        4     |       1     | 0.74710156E-02 | 0.74889570E+02 |  430.680
 BASOPT|        5     |       1     | 0.17084035E-01 | 0.12295058E+03 |  712.247
 BASOPT|        6     |       1     | 0.15201873E-01 | 0.95702898E+03 | 4719.385
 BASOPT| -----------------------------------------------------------------------
 BASOPT| Total residuum value: -.20778030E+04

 BASOPT| Information at iteration number:    7400
 BASOPT| Training set | Combination | Rho difference | Condition num. | Time
 BASOPT| -----------------------------------------------------------------------
 BASOPT|        1     |       1     | 0.76753104E-02 | 0.12825072E+03 |  282.026
 BASOPT|        2     |       1     | 0.96635439E-02 | 0.72357579E+02 |  316.821
 BASOPT|        3     |       1     | 0.59602690E-02 | 0.11724455E+03 |  398.980
 BASOPT|        4     |       1     | 0.74708704E-02 | 0.74769908E+02 |  436.571
 BASOPT|        5     |       1     | 0.17072532E-01 | 0.12292832E+03 |  721.842
 BASOPT|        6     |       1     | 0.15198736E-01 | 0.95644310E+03 | 4784.070
 BASOPT| -----------------------------------------------------------------------
 BASOPT| Total residuum value: -.20778031E+04

 BASOPT| Information at iteration number:    7500
 BASOPT| Training set | Combination | Rho difference | Condition num. | Time
 BASOPT| -----------------------------------------------------------------------
 BASOPT|        1     |       1     | 0.76804123E-02 | 0.12817947E+03 |  285.829
 BASOPT|        2     |       1     | 0.96656939E-02 | 0.72304796E+02 |  321.132
 BASOPT|        3     |       1     | 0.59643027E-02 | 0.11716578E+03 |  404.444
 BASOPT|        4     |       1     | 0.74790228E-02 | 0.74692768E+02 |  442.468
 BASOPT|        5     |       1     | 0.17062903E-01 | 0.12284199E+03 |  731.434
 BASOPT|        6     |       1     | 0.15210399E-01 | 0.95603646E+03 | 4848.626
 BASOPT| -----------------------------------------------------------------------
 BASOPT| Total residuum value: -.20778032E+04

 BASOPT| Information at iteration number:    7600
 BASOPT| Training set | Combination | Rho difference | Condition num. | Time
 BASOPT| -----------------------------------------------------------------------
 BASOPT|        1     |       1     | 0.77530454E-02 | 0.12746985E+03 |  289.637
 BASOPT|        2     |       1     | 0.97046472E-02 | 0.72202703E+02 |  325.440
 BASOPT|        3     |       1     | 0.59986801E-02 | 0.11664093E+03 |  409.907
 BASOPT|        4     |       1     | 0.74944021E-02 | 0.74177048E+02 |  448.349
 BASOPT|        5     |       1     | 0.16962354E-01 | 0.12221493E+03 |  741.025
 BASOPT|        6     |       1     | 0.15246446E-01 | 0.95650388E+03 | 4913.218
 BASOPT| -----------------------------------------------------------------------
 BASOPT| Total residuum value: -.20778026E+04

 BASOPT| Information at iteration number:    7700
 BASOPT| Training set | Combination | Rho difference | Condition num. | Time
 BASOPT| -----------------------------------------------------------------------
 BASOPT|        1     |       1     | 0.76019831E-02 | 0.12921369E+03 |  293.448
 BASOPT|        2     |       1     | 0.96049439E-02 | 0.72734096E+02 |  329.747
 BASOPT|        3     |       1     | 0.59404326E-02 | 0.11787997E+03 |  415.374
 BASOPT|        4     |       1     | 0.74516045E-02 | 0.75087328E+02 |  454.227
 BASOPT|        5     |       1     | 0.17138490E-01 | 0.12353806E+03 |  750.620
 BASOPT|        6     |       1     | 0.15187587E-01 | 0.95491953E+03 | 4977.851
 BASOPT| -----------------------------------------------------------------------
 BASOPT| Total residuum value: -.20778034E+04

 BASOPT| Information at iteration number:    7800
 BASOPT| Training set | Combination | Rho difference | Condition num. | Time
 BASOPT| -----------------------------------------------------------------------
 BASOPT|        1     |       1     | 0.77007876E-02 | 0.12808515E+03 |  297.255
 BASOPT|        2     |       1     | 0.96589908E-02 | 0.72444913E+02 |  334.064
 BASOPT|        3     |       1     | 0.59815550E-02 | 0.11691035E+03 |  420.845
 BASOPT|        4     |       1     | 0.74742299E-02 | 0.74428352E+02 |  460.098
 BASOPT|        5     |       1     | 0.17012844E-01 | 0.12251467E+03 |  760.215
 BASOPT|        6     |       1     | 0.15245836E-01 | 0.95438117E+03 | 5042.446
 BASOPT| -----------------------------------------------------------------------
 BASOPT| Total residuum value: -.20778035E+04

 BASOPT| Information at iteration number:    7900
 BASOPT| Training set | Combination | Rho difference | Condition num. | Time
 BASOPT| -----------------------------------------------------------------------
 BASOPT|        1     |       1     | 0.76480801E-02 | 0.12863041E+03 |  301.054
 BASOPT|        2     |       1     | 0.96268237E-02 | 0.72651193E+02 |  338.377
 BASOPT|        3     |       1     | 0.59596180E-02 | 0.11739891E+03 |  426.313
 BASOPT|        4     |       1     | 0.74586074E-02 | 0.74655847E+02 |  465.961
 BASOPT|        5     |       1     | 0.17069789E-01 | 0.12300686E+03 |  769.815
 BASOPT|        6     |       1     | 0.15218894E-01 | 0.95334215E+03 | 5106.955
 BASOPT| -----------------------------------------------------------------------
 BASOPT| Total residuum value: -.20778038E+04

 BASOPT| Information at iteration number:    8000
 BASOPT| Training set | Combination | Rho difference | Condition num. | Time
 BASOPT| -----------------------------------------------------------------------
 BASOPT|        1     |       1     | 0.76322290E-02 | 0.12904190E+03 |  304.856
 BASOPT|        2     |       1     | 0.96157750E-02 | 0.72875411E+02 |  342.688
 BASOPT|        3     |       1     | 0.59617612E-02 | 0.11791150E+03 |  431.780
 BASOPT|        4     |       1     | 0.74593648E-02 | 0.74780738E+02 |  471.826
 BASOPT|        5     |       1     | 0.17079507E-01 | 0.12346172E+03 |  779.415
 BASOPT|        6     |       1     | 0.15208705E-01 | 0.95287995E+03 | 5171.460
 BASOPT| -----------------------------------------------------------------------
 BASOPT| Total residuum value: -.20778040E+04

 BASOPT| Information at iteration number:    8100
 BASOPT| Training set | Combination | Rho difference | Condition num. | Time
 BASOPT| -----------------------------------------------------------------------
 BASOPT|        1     |       1     | 0.76385134E-02 | 0.12892794E+03 |  308.650
 BASOPT|        2     |       1     | 0.96347194E-02 | 0.72668035E+02 |  346.997
 BASOPT|        3     |       1     | 0.59555162E-02 | 0.11790549E+03 |  437.247
 BASOPT|        4     |       1     | 0.74667531E-02 | 0.74755855E+02 |  477.687
 BASOPT|        5     |       1     | 0.17103024E-01 | 0.12341600E+03 |  789.015
 BASOPT|        6     |       1     | 0.15196351E-01 | 0.95187059E+03 | 5235.981
 BASOPT| -----------------------------------------------------------------------
 BASOPT| Total residuum value: -.20778042E+04

 BASOPT| Information at iteration number:    8200
 BASOPT| Training set | Combination | Rho difference | Condition num. | Time
 BASOPT| -----------------------------------------------------------------------
 BASOPT|        1     |       1     | 0.76432491E-02 | 0.12875791E+03 |  312.443
 BASOPT|        2     |       1     | 0.96483018E-02 | 0.72487677E+02 |  351.311
 BASOPT|        3     |       1     | 0.59468138E-02 | 0.11774418E+03 |  442.713
 BASOPT|        4     |       1     | 0.74680568E-02 | 0.74650107E+02 |  483.547
 BASOPT|        5     |       1     | 0.17109372E-01 | 0.12320327E+03 |  798.616
 BASOPT|        6     |       1     | 0.15193354E-01 | 0.95057517E+03 | 5300.483
 BASOPT| -----------------------------------------------------------------------
 BASOPT| Total residuum value: -.20778043E+04

 BASOPT| Information at iteration number:    8300
 BASOPT| Training set | Combination | Rho difference | Condition num. | Time
 BASOPT| -----------------------------------------------------------------------
 BASOPT|        1     |       1     | 0.76137515E-02 | 0.12925782E+03 |  316.238
 BASOPT|        2     |       1     | 0.96289807E-02 | 0.72669288E+02 |  355.625
 BASOPT|        3     |       1     | 0.59401744E-02 | 0.11814614E+03 |  448.181
 BASOPT|        4     |       1     | 0.74609969E-02 | 0.74851094E+02 |  489.410
 BASOPT|        5     |       1     | 0.17133160E-01 | 0.12360574E+03 |  808.219
 BASOPT|        6     |       1     | 0.15175742E-01 | 0.95073507E+03 | 5365.017
 BASOPT| -----------------------------------------------------------------------
 BASOPT| Total residuum value: -.20778044E+04

 BASOPT| Information at iteration number:    8400
 BASOPT| Training set | Combination | Rho difference | Condition num. | Time
 BASOPT| -----------------------------------------------------------------------
 BASOPT|        1     |       1     | 0.75872356E-02 | 0.12968356E+03 |  320.032
 BASOPT|        2     |       1     | 0.96148524E-02 | 0.72839223E+02 |  359.934
 BASOPT|        3     |       1     | 0.59384313E-02 | 0.11868612E+03 |  453.647
 BASOPT|        4     |       1     | 0.74623223E-02 | 0.75010789E+02 |  495.240
 BASOPT|        5     |       1     | 0.17183025E-01 | 0.12409263E+03 |  817.820
 BASOPT|        6     |       1     | 0.15160779E-01 | 0.95036473E+03 | 5429.859
 BASOPT| -----------------------------------------------------------------------
 BASOPT| Total residuum value: -.20778041E+04

 BASOPT| Information at iteration number:    8500
 BASOPT| Training set | Combination | Rho difference | Condition num. | Time
 BASOPT| -----------------------------------------------------------------------
 BASOPT|        1     |       1     | 0.76411969E-02 | 0.12895634E+03 |  323.834
 BASOPT|        2     |       1     | 0.96515511E-02 | 0.72555409E+02 |  364.256
 BASOPT|        3     |       1     | 0.59493725E-02 | 0.11800976E+03 |  459.121
 BASOPT|        4     |       1     | 0.74686629E-02 | 0.74585200E+02 |  501.064
 BASOPT|        5     |       1     | 0.17115146E-01 | 0.12338521E+03 |  827.437
 BASOPT|        6     |       1     | 0.15180630E-01 | 0.95020450E+03 | 5494.813
 BASOPT| -----------------------------------------------------------------------
 BASOPT| Total residuum value: -.20778045E+04

 BASOPT| Information at iteration number:    8600
 BASOPT| Training set | Combination | Rho difference | Condition num. | Time
 BASOPT| -----------------------------------------------------------------------
 BASOPT|        1     |       1     | 0.76333298E-02 | 0.12896931E+03 |  327.629
 BASOPT|        2     |       1     | 0.96442796E-02 | 0.72523316E+02 |  368.574
 BASOPT|        3     |       1     | 0.59464288E-02 | 0.11794825E+03 |  464.587
 BASOPT|        4     |       1     | 0.74692847E-02 | 0.74624860E+02 |  506.910
 BASOPT|        5     |       1     | 0.17118334E-01 | 0.12334490E+03 |  837.026
 BASOPT|        6     |       1     | 0.15185695E-01 | 0.95013545E+03 | 5559.871
 BASOPT| -----------------------------------------------------------------------
 BASOPT| Total residuum value: -.20778046E+04

 BASOPT| Information at iteration number:    8700
 BASOPT| Training set | Combination | Rho difference | Condition num. | Time
 BASOPT| -----------------------------------------------------------------------
 BASOPT|        1     |       1     | 0.76586306E-02 | 0.12844149E+03 |  331.423
 BASOPT|        2     |       1     | 0.96669651E-02 | 0.72207889E+02 |  372.890
 BASOPT|        3     |       1     | 0.59485701E-02 | 0.11739001E+03 |  470.052
 BASOPT|        4     |       1     | 0.74787889E-02 | 0.74449419E+02 |  512.741
[...]
 BASOPT| -----------------------------------------------------------------------
 BASOPT|        1     |       1     | 0.76542844E-02 | 0.12758202E+03 |  437.714
 BASOPT|        2     |       1     | 0.96791697E-02 | 0.71495087E+02 |  493.886
 BASOPT|        3     |       1     | 0.59511500E-02 | 0.11726040E+03 |  623.199
 BASOPT|        4     |       1     | 0.74825471E-02 | 0.73773643E+02 |  675.998
 BASOPT|        5     |       1     | 0.17096176E-01 | 0.12145546E+03 | 1115.392
 BASOPT|        6     |       1     | 0.15145677E-01 | 0.94784841E+03 | 7440.931
 BASOPT| -----------------------------------------------------------------------
 BASOPT| Total residuum value: -.20778064E+04

 BASOPT| Information at iteration number:   11600
 BASOPT| Training set | Combination | Rho difference | Condition num. | Time
 BASOPT| -----------------------------------------------------------------------
 BASOPT|        1     |       1     | 0.76541005E-02 | 0.12758430E+03 |  441.530
 BASOPT|        2     |       1     | 0.96790243E-02 | 0.71495934E+02 |  498.201
 BASOPT|        3     |       1     | 0.59510706E-02 | 0.11726159E+03 |  628.664
 BASOPT|        4     |       1     | 0.74824542E-02 | 0.73774772E+02 |  681.839
 BASOPT|        5     |       1     | 0.17096288E-01 | 0.12145798E+03 | 1124.984
 BASOPT|        6     |       1     | 0.15145583E-01 | 0.94784868E+03 | 7505.529
 BASOPT| -----------------------------------------------------------------------
 BASOPT| Total residuum value: -.20778064E+04

 BASOPT| Information at iteration number:   11700
 BASOPT| Training set | Combination | Rho difference | Condition num. | Time
 BASOPT| -----------------------------------------------------------------------
 BASOPT|        1     |       1     | 0.76541132E-02 | 0.12758432E+03 |  445.345
 BASOPT|        2     |       1     | 0.96790332E-02 | 0.71495927E+02 |  502.524
 BASOPT|        3     |       1     | 0.59510786E-02 | 0.11726156E+03 |  634.128
 BASOPT|        4     |       1     | 0.74824621E-02 | 0.73774734E+02 |  687.664
 BASOPT|        5     |       1     | 0.17096280E-01 | 0.12145798E+03 | 1134.578
 BASOPT|        6     |       1     | 0.15145594E-01 | 0.94784865E+03 | 7570.080
 BASOPT| -----------------------------------------------------------------------
 BASOPT| Total residuum value: -.20778064E+04

 BASOPT| Information at iteration number:   11800
 BASOPT| Training set | Combination | Rho difference | Condition num. | Time
 BASOPT| -----------------------------------------------------------------------
 BASOPT|        1     |       1     | 0.76541117E-02 | 0.12758434E+03 |  449.150
 BASOPT|        2     |       1     | 0.96790324E-02 | 0.71495931E+02 |  506.844
 BASOPT|        3     |       1     | 0.59510782E-02 | 0.11726157E+03 |  639.592
 BASOPT|        4     |       1     | 0.74824620E-02 | 0.73774751E+02 |  693.498
 BASOPT|        5     |       1     | 0.17096282E-01 | 0.12145801E+03 | 1144.170
 BASOPT|        6     |       1     | 0.15145593E-01 | 0.94784863E+03 | 7634.694
 BASOPT| -----------------------------------------------------------------------
 BASOPT| Total residuum value: -.20778064E+04

 BASOPT| Information at iteration number:   11900
 BASOPT| Training set | Combination | Rho difference | Condition num. | Time
 BASOPT| -----------------------------------------------------------------------
 BASOPT|        1     |       1     | 0.76541119E-02 | 0.12758434E+03 |  452.952
 BASOPT|        2     |       1     | 0.96790325E-02 | 0.71495931E+02 |  511.161
 BASOPT|        3     |       1     | 0.59510782E-02 | 0.11726157E+03 |  645.059
 BASOPT|        4     |       1     | 0.74824620E-02 | 0.73774749E+02 |  699.353
 BASOPT|        5     |       1     | 0.17096282E-01 | 0.12145801E+03 | 1153.764
 BASOPT|        6     |       1     | 0.15145593E-01 | 0.94784863E+03 | 7699.265
 BASOPT| -----------------------------------------------------------------------
 BASOPT| Total residuum value: -.20778064E+04

 BASOPT| Information at iteration number:   12000
 BASOPT| Training set | Combination | Rho difference | Condition num. | Time
 BASOPT| -----------------------------------------------------------------------
 BASOPT|        1     |       1     | 0.76541119E-02 | 0.12758434E+03 |  456.755
 BASOPT|        2     |       1     | 0.96790325E-02 | 0.71495931E+02 |  515.477
 BASOPT|        3     |       1     | 0.59510783E-02 | 0.11726157E+03 |  650.525
 BASOPT|        4     |       1     | 0.74824620E-02 | 0.73774749E+02 |  705.174
 BASOPT|        5     |       1     | 0.17096282E-01 | 0.12145801E+03 | 1163.360
 BASOPT|        6     |       1     | 0.15145593E-01 | 0.94784863E+03 | 7763.732
 BASOPT| -----------------------------------------------------------------------
 BASOPT| Total residuum value: -.20778064E+04


 -------------------------------------------------------------------------------
 -                                                                             -
 -                                DBCSR STATISTICS                             -
 -                                                                             -
 -------------------------------------------------------------------------------
 COUNTER                                    TOTAL       BLAS       SMM       ACC
 flops   112 x   112 x    18               451584       0.0%    100.0%      0.0%
 flops   112 x   116 x    18               467712       0.0%    100.0%      0.0%
 flops   112 x   112 x    22               551936       0.0%    100.0%      0.0%
 flops   112 x   112 x    11               551936       0.0%    100.0%      0.0%
 flops   112 x   116 x    22               571648       0.0%    100.0%      0.0%
 flops   116 x   112 x    11               571648       0.0%    100.0%      0.0%
 flops   116 x   116 x    11               592064       0.0%    100.0%      0.0%
 flops   112 x   112 x    13               652288       0.0%    100.0%      0.0%
 flops   116 x   112 x    13               675584       0.0%    100.0%      0.0%
 flops   116 x   116 x    13               699712       0.0%    100.0%      0.0%
 flops   112 x   112 x    28               702464       0.0%    100.0%      0.0%
 flops   112 x   112 x    30               752640       0.0%    100.0%      0.0%
 flops   112 x   112 x    15               752640       0.0%    100.0%      0.0%
 flops   112 x   116 x    15               779520       0.0%    100.0%      0.0%
 flops   116 x   112 x    15               779520       0.0%    100.0%      0.0%
 flops   112 x   112 x    17               852992       0.0%    100.0%      0.0%
 flops   112 x   116 x    17               883456       0.0%    100.0%      0.0%
 flops   116 x   112 x    17               883456       0.0%    100.0%      0.0%
 flops   116 x   112 x    18               935424       0.0%    100.0%      0.0%
 flops   116 x   112 x    22              1143296       0.0%    100.0%      0.0%
 flops   116 x   116 x    15              2422080       0.0%    100.0%      0.0%
 flops   116 x   116 x    17              2745024       0.0%    100.0%      0.0%
 flops   116 x   116 x    18              2906496       0.0%    100.0%      0.0%
 flops   112 x   116 x    28              2910208       0.0%    100.0%      0.0%
 flops   116 x   112 x    28              2910208       0.0%    100.0%      0.0%
 flops   112 x   116 x    30              3118080       0.0%    100.0%      0.0%
 flops   116 x   112 x    30              3118080       0.0%    100.0%      0.0%
 flops   116 x   116 x    22              3552384       0.0%    100.0%      0.0%
 flops   116 x   116 x    28             27127296       0.0%    100.0%      0.0%
 flops   116 x   116 x    30             29064960       0.0%    100.0%      0.0%
 flops inhomo. stacks                           0       0.0%      0.0%      0.0%
 flops total                        94.126336E+06       0.0%    100.0%      0.0%
 flops max/rank                     13.780800E+06       0.0%    100.0%      0.0%
 matmuls inhomo. stacks                         0       0.0%      0.0%      0.0%
 matmuls total                                146       0.0%    100.0%      0.0%
 number of processed stacks                    78       0.0%    100.0%      0.0%
 average stack size                                     0.0       1.9       0.0
 marketing flops                   162.531072E+06
 -------------------------------------------------------------------------------
 # multiplications                              2
 max memory usage/rank             155.557888E+06
 # max total images/rank                        2
 # max 3D layers                                1
 # MPI messages exchanged                     480
 MPI messages size (bytes):
  total size                         3.573760E+06
  min size                           0.000000E+00
  max size                         138.240000E+03
  average size                       7.445333E+03
 MPI breakdown and total messages size (bytes):
             size <=      128                 384                        0
       128 < size <=     8192                   0                        0
      8192 < size <=    32768                  64                  1201920
     32768 < size <=   131072                  29                  1957120
    131072 < size <=  4194304                   3                   414720
   4194304 < size <= 16777216                   0                        0
  16777216 < size                               0                        0
 -------------------------------------------------------------------------------

 *** WARNING in dbcsr_mm.F:294 :: Using a non-square number of MPI ranks ***
 *** might lead to poor performance. Used ranks: 8 Suggested: 9 16       ***

 -------------------------------------------------------------------------------
 -                                                                             -
 -                      DBCSR MESSAGE PASSING PERFORMANCE                      -
 -                                                                             -
 -------------------------------------------------------------------------------
 ROUTINE             CALLS      AVE VOLUME [Bytes]
 MP_Bcast               31                     12.
 MP_Allreduce           93                     22.
 MP_Alltoall        871230                  30591.
 MP_ISend               32                   2786.
 MP_IRecv               28                     53.
 -------------------------------------------------------------------------------

 -------------------------------------------------------------------------------
 -                                                                             -
 -                                GRID STATISTICS                              -
 -                                                                             -
 -------------------------------------------------------------------------------
 LP    KERNEL             BACKEND                              COUNT     PERCENT
 2     collocate ortho    REF                                  14990      18.17%
 2     integrate ortho    REF                                  14990      18.17%
 5     collocate ortho    REF                                  14656      17.77%
 5     integrate ortho    REF                                  14656      17.77%
 4     collocate ortho    REF                                   5198       6.30%
 4     integrate ortho    REF                                   5198       6.30%
 8     collocate ortho    REF                                   3578       4.34%
 8     integrate ortho    REF                                   3578       4.34%
 7     collocate ortho    REF                                   1878       2.28%
 7     integrate ortho    REF                                   1878       2.28%
 6     collocate ortho    REF                                    936       1.13%
 6     integrate ortho    REF                                    936       1.13%
 0     collocate general  REF                                     23       0.03%
 -------------------------------------------------------------------------------

 MEMORY| Estimated peak process memory [MiB]                                 196

 -------------------------------------------------------------------------------
 -                                                                             -
 -                         MESSAGE PASSING PERFORMANCE                         -
 -                                                                             -
 -------------------------------------------------------------------------------

 ROUTINE             CALLS      AVE VOLUME [Bytes]
 MP_Bcast            48449                    767.
 MP_Allreduce       218172                     42.
 MP_Sync             48400
 MP_Alltoall            34                1418692.
 MP_ISendRecv          119                  93094.
 MP_Wait               119
 MP_comm_split       36301
 -------------------------------------------------------------------------------


 -------------------------------------------------------------------------------
 -                                                                             -
 -                           R E F E R E N C E S                               -
 -                                                                             -
 -------------------------------------------------------------------------------
 
 CP2K version 9.0 (Development Version), the CP2K developers group (2020).
 CP2K is freely available from https://www.cp2k.org/ .

 Kuehne,Thomas D.; Iannuzzi,Marcella; Del Ben,Mauro;
 Rybkin,Vladimir V.; Seewald,Patrick; Stein,Frederick; Laino,Teodoro;
 Khaliullin,Rustam Z.; Schuett,Ole; Schiffmann,Florian; Golze,Dorothea;
 Wilhelm,Jan; Chulkov,Sergey; Bani-Hashemian,Mohammad Hossein;
 Weber,Valery; Borstnik,Urban; Taillefumier,Mathieu;
 Jakobovits,Alice Shoshana; Lazzaro,Alfio; Pabst,Hans; Mueller,Tiziano;
 Schade,Robert; Guidon,Manuel; Andermatt,Samuel; Holmberg,Nico;
 Schenter,Gregory K.; Hehn,Anna; Bussy,Augustin; Belleflamme,Fabian;
 Tabacchi,Gloria; Gloess,Andreas; Lass,Michael; Bethune,Iain;
 Mundy,Christopher J.; Plessl,Christian; Watkins,Matt;
 VandeVondele,Joost; Krack,Matthias; Hutter,Juerg. 
 The Journal of Chemical Physics, 152 (19), (2020). 
 CP2K: An electronic structure and molecular dynamics software package -
 Quickstep: Efficient and accurate electronic structure calculations.
 https://doi.org/10.1063/5.0007045

 Schuett, Ole; Messmer, Peter; Hutter, Juerg; VandeVondele, Joost. 
 Electronic Structure Calculations on Graphics Processing Units, John
 Wiley & Sons, Ltd, 173-190 (2016). 
 GPU-Accelerated Sparse Matrix-Matrix Multiplication for
 Linear Scaling Density Functional Theory.
 https://doi.org/10.1002/9781118670712.ch8

 Borstnik, U; VandeVondele, J; Weber, V; Hutter, J. 
 PARALLEL COMPUTING, 40 (5-6), 47-58 (2014). 
 Sparse matrix multiplication: The distributed block-compressed sparse
 row library.
 https://doi.org/10.1016/j.parco.2014.03.012

 Hutter, J; Iannuzzi, M; Schiffmann, F; VandeVondele, J. 
 WIREs Comput Mol Sci., 4 (1), 15-25 (2014). 
 CP2K: atomistic simulations of condensed matter systems.
 https://doi.org/10.1002/wcms.1159

 Marek, A; Blum, V; Johanni, R; Havu, V; Lang, B; Auckenthaler, T;
 Heinecke, A; Bungartz, H; Lederer, H. 
 Journal of Physics: Condensed Matter, 26 (21), (2014). 
 The ELPA library: scalable parallel eigenvalue solutions for
 electronic structure
 theory and computational science.
 https://doi.org/10.1088/0953-8984/26/21/213201

 Guidon, M; Hutter, J; VandeVondele, J. 
 JOURNAL OF CHEMICAL THEORY AND COMPUTATION, 6 (8), 2348-2364 (2010). 
 Auxiliary Density Matrix Methods for Hartree-Fock Exchange Calculations.
 https://doi.org/10.1021/ct1002225

 VandeVondele, J; Hutter, J. 
 JOURNAL OF CHEMICAL PHYSICS, 127 (11), 114105 (2007). 
 Gaussian basis sets for accurate calculations on molecular systems in
 gas and condensed phases.
 https://doi.org/10.1063/1.2770708

 Krack, M. 
 THEORETICAL CHEMISTRY ACCOUNTS, 114 (1-3), 145-152 (2005). 
 Pseudopotentials for H to Kr optimized for gradient-corrected
 exchange-correlation functionals.
 https://doi.org/10.1007/s00214-005-0655-y

 VandeVondele, J; Krack, M; Mohamed, F; Parrinello, M; Chassaing, T;
 Hutter, J. COMPUTER PHYSICS COMMUNICATIONS, 167 (2), 103-128 (2005). 
 QUICKSTEP: Fast and accurate density functional calculations using a
 mixed Gaussian and plane waves approach.
 https://doi.org/10.1016/j.cpc.2004.12.014

 Frigo, M; Johnson, SG. 
 PROCEEDINGS OF THE IEEE, 93 (2), 216-231 (2005). 
 The design and implementation of FFTW3.
 https://doi.org/10.1109/JPROC.2004.840301

 Hartwigsen, C; Goedecker, S; Hutter, J. 
 PHYSICAL REVIEW B, 58 (7), 3641-3662 (1998). 
 Relativistic separable dual-space Gaussian pseudopotentials from H to Rn.
 https://doi.org/10.1103/PhysRevB.58.3641

 Lippert, G; Hutter, J; Parrinello, M. 
 MOLECULAR PHYSICS, 92 (3), 477-487 (1997). 
 A hybrid Gaussian and plane wave density functional scheme.
 https://doi.org/10.1080/002689797170220

 Perdew, JP; Burke, K; Ernzerhof, M. 
 PHYSICAL REVIEW LETTERS, 77 (18), 3865-3868 (1996). 
 Generalized gradient approximation made simple.
 https://doi.org/10.1103/PhysRevLett.77.3865

 Goedecker, S; Teter, M; Hutter, J. 
 PHYSICAL REVIEW B, 54 (3), 1703-1710 (1996). 
 Separable dual-space Gaussian pseudopotentials.
 https://doi.org/10.1103/PhysRevB.54.1703


 -------------------------------------------------------------------------------
 -                                                                             -
 -                                T I M I N G                                  -
 -                                                                             -
 -------------------------------------------------------------------------------
 SUBROUTINE                       CALLS  ASD         SELF TIME        TOTAL TIME
                                MAXIMUM       AVERAGE  MAXIMUM  AVERAGE  MAXIMUM
 CP2K                                 1  1.0    0.002    0.005 7841.590 7841.687
 run_optimize_basis                   1  2.0    0.003    0.004 7841.579 7841.677
 driver_para_opt_basis                1  3.0    0.000    0.000 7841.568 7841.666
 driver_optimization_para_low         1  4.0    0.082    0.199 7841.567 7841.665
 compute_residuum_vectors         12100  5.0    0.791    1.210 7836.749 7837.186
 mp_sum_dv                        60501  5.8 5945.035 7376.497 5945.035 7376.497
 cp_gemm                         254100  7.1    0.347    0.626 1460.201 6940.841
 cp_gemm_fm_gemm                 254100  8.1    0.214    0.380 1459.854 6940.215
 cp_fm_gemm                      254100  9.1 1459.640 6939.836 1459.640 6939.836
 admm_fit_mo_coeffs               12100  6.0    0.028    0.054  711.595 2780.921
 fit_mo_coeffs                    12100  7.0    0.109    0.176  483.848 1928.256
 purify_mo_diag                   12100  7.0    0.261    0.485  227.719  867.692
 copy_dbcsr_to_fm                 72601  6.7    0.754    1.449  219.002  538.394
 build_overlap_matrix_low         24204  6.0  101.513  498.119  101.994  498.886
 dbcsr_desymmetrize_deep          72601  7.7    2.300    8.685  176.819  427.702
 mp_alltoall_i22                 145204  8.7  162.265  386.046  162.265  386.046
 -------------------------------------------------------------------------------

 The number of warnings for this run is : 1
 
 -------------------------------------------------------------------------------
  **** **** ******  **  PROGRAM ENDED AT                 2021-01-28 20:18:11.567
 ***** ** ***  *** **   PROGRAM RAN ON                                   tcopt10
 **    ****   ******    PROGRAM RAN BY                                    hutter
 ***** **    ** ** **   PROGRAM PROCESS ID                                 94241
  **** **  *******  **  PROGRAM STOPPED IN /data/hutter/GITHUB/BASIS/MOLOPT/PBE/
                                           Ni
