 DBCSR| CPU Multiplication driver                                           XSMM
 DBCSR| Multrec recursion limit                                              512
 DBCSR| Multiplication stack size                                           1000
 DBCSR| Maximum elements for images                                    UNLIMITED
 DBCSR| Multiplicative factor virtual images                                   1
 DBCSR| Use multiplication densification                                       T
 DBCSR| Multiplication size stacks                                             3
 DBCSR| Use memory pool for CPU allocation                                     F
 DBCSR| Number of 3D layers                                               SINGLE
 DBCSR| Use MPI memory allocation                                              F
 DBCSR| Use RMA algorithm                                                      F
 DBCSR| Use Communication thread                                               T
 DBCSR| Communication thread load                                             87
 DBCSR| Split modifier for TAS multiplication algorithm                  1.0E+00


  **** **** ******  **  PROGRAM STARTED AT               2020-12-04 21:04:30.181
 ***** ** ***  *** **   PROGRAM STARTED ON                               tcopt10
 **    ****   ******    PROGRAM STARTED BY                                hutter
 ***** **    ** ** **   PROGRAM PROCESS ID                                 57401
  **** **  *******  **  PROGRAM STARTED IN /data/hutter/GITHUB/BASIS/MOLOPT/PBE0
                                           /Be

 CP2K| version string:                    CP2K version 8.0 (Development Version)
 CP2K| source code revision number:                                  git:afc71fa
 CP2K| cp2kflags: omp libint fftw3 libxc elpa parallel mpi3 scalapack xsmm spgli
 CP2K|            b sirius
 CP2K| is freely available from                            https://www.cp2k.org/
 CP2K| Program compiled at                          Tue Nov 17 10:27:14 CET 2020
 CP2K| Program compiled on                                               tcopt10
 CP2K| Program compiled for                                                local
 CP2K| Data directory path                 /data/hutter/GITHUB/CURRENT/cp2k/data
 CP2K| Input file name                                             Be2F4-ref.inp

 GLOBAL| Force Environment number                                              1
 GLOBAL| Basis set file name                                  ../PBE0_UCSEGBASIS
 GLOBAL| Potential file name                                        ../POTENTIAL
 GLOBAL| MM Potential file name                                     MM_POTENTIAL
 GLOBAL| Coordinate file name                                      __STD_INPUT__
 GLOBAL| Method name                                                        CP2K
 GLOBAL| Project name                                                 refBe2F4q4
 GLOBAL| Preferred FFT library                                             FFTW3
 GLOBAL| Preferred diagonalization lib.                                     ELPA
 GLOBAL| Run type                                                         ENERGY
 GLOBAL| All-to-all communication in single precision                          F
 GLOBAL| FFTs using library dependent lengths                                  F
 GLOBAL| Global print level                                                  LOW
 GLOBAL| MPI I/O enabled                                                       T
 GLOBAL| Total number of message passing processes                            16
 GLOBAL| Number of threads for this process                                    1
 GLOBAL| This output is from process                                           0
 GLOBAL| CPU model name                          AMD EPYC 7401 24-Core Processor
 GLOBAL| CPUID                                                              1002

 MEMORY| system memory details [Kb]
 MEMORY|                        rank 0           min           max       average
 MEMORY| MemTotal            263987256     263987256     263987256     263987256
 MEMORY| MemFree             244257380     244257380     244257380     244257380
 MEMORY| Buffers                    32            32            32            32
 MEMORY| Cached               16292248      16292248      16292248      16292248
 MEMORY| Slab                  1370800       1370800       1370800       1370800
 MEMORY| SReclaimable           705672        705672        705672        705672
 MEMORY| MemLikelyFree       261255332     261255332     261255332     261255332


 GENERATE|  Preliminary Number of Bonds generated:                             0
 GENERATE|  Achieved consistency in connectivity generation.

 *******************************************************************************
 *******************************************************************************
 **                                                                           **
 **     #####                         ##              ##                      **
 **    ##   ##            ##          ##              ##                      **
 **   ##     ##                       ##            ######                    **
 **   ##     ##  ##   ##  ##   #####  ##  ##   ####   ##    #####    #####    **
 **   ##     ##  ##   ##  ##  ##      ## ##   ##      ##   ##   ##  ##   ##   **
 **   ##  ## ##  ##   ##  ##  ##      ####     ###    ##   ######   ######    **
 **    ##  ###   ##   ##  ##  ##      ## ##      ##   ##   ##       ##        **
 **     #######   #####   ##   #####  ##  ##  ####    ##    #####   ##        **
 **           ##                                                    ##        **
 **                                                                           **
 **                                                ... make the atoms dance   **
 **                                                                           **
 **            Copyright (C) by CP2K developers group (2000 - 2020)           **
 **                      J. Chem. Phys. 152, 194103 (2020)                    **
 **                                                                           **
 *******************************************************************************


 TOTAL NUMBERS AND MAXIMUM NUMBERS

  Total number of            - Atomic kinds:                                   2
                             - Atoms:                                          6
                             - Shell sets:                                    80
                             - Shells:                                       136
                             - Primitive Cartesian functions:                 80
                             - Cartesian basis functions:                    472
                             - Spherical basis functions:                    408

  Maximum angular momentum of- Orbital basis functions:                        3
                             - Local part of the GTH pseudopotential:          6
                             - Non-local part of the GTH pseudopotential:      0


 SCF PARAMETERS         Density guess:                                    ATOMIC
                        --------------------------------------------------------
                        max_scf:                                              10
                        max_scf_history:                                       0
                        max_diis:                                              4
                        --------------------------------------------------------
                        eps_scf:                                        1.00E-07
                        eps_scf_history:                                0.00E+00
                        eps_diis:                                       1.00E-01
                        eps_eigval:                                     1.00E-05
                        --------------------------------------------------------
                        level_shift [a.u.]:                                 0.00
                        --------------------------------------------------------
                        Outer loop SCF in use 
                        No variables optimised in outer loop
                        eps_scf                                         1.00E-07
                        max_scf                                               10
                        No outer loop optimization
                        step_size                                       5.00E-01

 Number of electrons:                                                         36
 Number of occupied orbitals:                                                 18
 Number of molecular orbitals:                                                18

 Number of orbital functions:                                                408
 Number of independent orbital functions:                                    408

 Extrapolation method: initial_guess


 SCF WAVEFUNCTION OPTIMIZATION

  ----------------------------------- OT ---------------------------------------
  Minimizer      : DIIS                : direct inversion
                                         in the iterative subspace
                                         using   7 DIIS vectors
                                         safer DIIS on
  Preconditioner : FULL_ALL            : diagonalization, state selective
  Precond_solver : DEFAULT
  stepsize       :    0.15000000                  energy_gap     :    0.08000000
  eps_taylor     :   0.10000E-15                  max_taylor     :             4
  ----------------------------------- OT ---------------------------------------

  Step     Update method      Time    Convergence         Total energy    Change
  ------------------------------------------------------------------------------
     1 OT DIIS     0.15E+00   21.0     0.07338576      -122.0552822516 -1.22E+02
     2 OT DIIS     0.15E+00    9.9     0.04013990      -124.5863150876 -2.53E+00
     3 OT DIIS     0.15E+00    9.9     0.02468897      -125.2571256072 -6.71E-01
     4 OT DIIS     0.15E+00    9.9     0.01844843      -125.5555182746 -2.98E-01
     5 OT DIIS     0.15E+00    9.9     0.01684058      -125.8480478730 -2.93E-01
     6 OT DIIS     0.15E+00    9.9     0.01634177      -126.1003541080 -2.52E-01
     7 OT DIIS     0.15E+00    9.9     0.01455216      -126.1961374537 -9.58E-02
     8 OT DIIS     0.15E+00    9.9     0.01675924      -126.3230174584 -1.27E-01
     9 OT DIIS     0.15E+00    9.8     0.01002842      -126.4737874808 -1.51E-01
    10 OT DIIS     0.15E+00    9.9     0.00292991      -126.5060932628 -3.23E-02

  Leaving inner SCF loop after reaching    10 steps.


  Electronic density on regular grids:        -36.0000001448       -0.0000001448
  Core density on regular grids:               36.0000000000       -0.0000000000
  Total charge density on r-space grids:       -0.0000001448
  Total charge density g-space grids:          -0.0000001448

  Overlap energy of the core charge distribution:               0.00000000015057
  Self energy of the core charge distribution:               -290.14655034105328
  Core Hamiltonian energy:                                     74.21830991293456
  Hartree energy:                                             113.93595184499534
  Exchange-correlation energy:                                -18.71810113279102
  Hartree-Fock Exchange energy:                                -5.79570354705425

  Total energy:                                              -126.50609326281807

  outer SCF iter =    1 RMS gradient =   0.29E-02 energy =       -126.5060932628

  ----------------------------------- OT ---------------------------------------
  Minimizer      : DIIS                : direct inversion
                                         in the iterative subspace
                                         using   7 DIIS vectors
                                         safer DIIS on
  Preconditioner : FULL_ALL            : diagonalization, state selective
  Precond_solver : DEFAULT
  stepsize       :    0.15000000                  energy_gap     :    0.08000000
  eps_taylor     :   0.10000E-15                  max_taylor     :             4
  ----------------------------------- OT ---------------------------------------

  Step     Update method      Time    Convergence         Total energy    Change
  ------------------------------------------------------------------------------
     1 OT DIIS     0.15E+00   19.8     0.00283064      -126.5134801636 -7.39E-03
     2 OT DIIS     0.15E+00    9.8     0.00128583      -126.5196654304 -6.19E-03
     3 OT DIIS     0.15E+00    9.8     0.00045808      -126.5211500864 -1.48E-03
     4 OT DIIS     0.15E+00    9.8     0.00004928      -126.5212648728 -1.15E-04
     5 OT DIIS     0.15E+00    9.8     0.00001587      -126.5212667476 -1.87E-06
     6 OT DIIS     0.15E+00    9.8     0.00000470      -126.5212669389 -1.91E-07
     7 OT DIIS     0.15E+00    9.8     0.00000113      -126.5212669546 -1.57E-08
     8 OT DIIS     0.15E+00    9.8     0.00000029      -126.5212669557 -1.07E-09
     9 OT DIIS     0.15E+00    9.8     0.00000010      -126.5212669557 -4.78E-11

  *** SCF run converged in     9 steps ***


  Electronic density on regular grids:        -36.0000001439       -0.0000001439
  Core density on regular grids:               36.0000000000       -0.0000000000
  Total charge density on r-space grids:       -0.0000001439
  Total charge density g-space grids:          -0.0000001439

  Overlap energy of the core charge distribution:               0.00000000015057
  Self energy of the core charge distribution:               -290.14655034105328
  Core Hamiltonian energy:                                     73.90075801303256
  Hartree energy:                                             114.18489882312657
  Exchange-correlation energy:                                -18.67801021698246
  Hartree-Fock Exchange energy:                                -5.78236323400080

  Total energy:                                              -126.52126695572684

  outer SCF iter =    2 RMS gradient =   0.10E-06 energy =       -126.5212669557
  outer SCF loop converged in   2 iterations or   19 steps


 ENERGY| Total FORCE_EVAL ( QS ) energy [a.u.]:             -126.521266955726844

 -------------------------------------------------------------------------------
 -                                                                             -
 -                                DBCSR STATISTICS                             -
 -                                                                             -
 -------------------------------------------------------------------------------
 COUNTER                                    TOTAL       BLAS       SMM       ACC
 flops    18 x    18 x    18              2461104       0.0%    100.0%      0.0%
 flops    18 x    18 x   100             10108800       0.0%    100.0%      0.0%
 flops    18 x    18 x   104             10513152       0.0%    100.0%      0.0%
 flops   100 x    18 x    18             12571200       0.0%    100.0%      0.0%
 flops   104 x    18 x    18             13074048       0.0%    100.0%      0.0%
 flops    52 x   100 x    18             14976000       0.0%    100.0%      0.0%
 flops   100 x    52 x    18             14976000       0.0%    100.0%      0.0%
 flops    52 x    52 x    18             19468800       0.0%    100.0%      0.0%
 flops   100 x   100 x    18             21600000       0.0%    100.0%      0.0%
 flops   100 x    18 x   104             62899200       0.0%    100.0%      0.0%
 flops   104 x    18 x   100             62899200       0.0%    100.0%      0.0%
 flops   104 x    18 x   104             65415168       0.0%    100.0%      0.0%
 flops   100 x    18 x    52             77875200       0.0%    100.0%      0.0%
 flops    52 x    18 x   100             77875200       0.0%    100.0%      0.0%
 flops    52 x    18 x    52             80990208       0.0%    100.0%      0.0%
 flops   100 x    18 x   100            135360000       0.0%    100.0%      0.0%
 flops inhomo. stacks                           0       0.0%      0.0%      0.0%
 flops total                       683.063280E+06       0.0%    100.0%      0.0%
 flops max/rank                    174.635856E+06       0.0%    100.0%      0.0%
 matmuls inhomo. stacks                         0       0.0%      0.0%      0.0%
 matmuls total                               3875       0.0%    100.0%      0.0%
 number of processed stacks                  2715       0.0%    100.0%      0.0%
 average stack size                                     0.0       1.4       0.0
 marketing flops                   732.422848E+06
 -------------------------------------------------------------------------------
 # multiplications                            502
 max memory usage/rank               1.186705E+09
 # max total images/rank                        1
 # max 3D layers                                1
 # MPI messages exchanged                   48192
 MPI messages size (bytes):
  total size                       447.789600E+06
  min size                           0.000000E+00
  max size                          86.528000E+03
  average size                       9.291783E+03
 MPI breakdown and total messages size (bytes):
             size <=      128               37479                        0
       128 < size <=     8192                1557                  4035744
      8192 < size <=    32768                4644                 68211072
     32768 < size <=   131072                4512                375542784
    131072 < size <=  4194304                   0                        0
   4194304 < size <= 16777216                   0                        0
  16777216 < size                               0                        0
 -------------------------------------------------------------------------------
 -                                                                             -
 -                      DBCSR MESSAGE PASSING PERFORMANCE                      -
 -                                                                             -
 -------------------------------------------------------------------------------
 ROUTINE             CALLS      AVE VOLUME [Bytes]
 MP_Bcast               17                     12.
 MP_Allreduce         2680                      8.
 MP_Alltoall          1842                   2897.
 MP_ISend             8024                   4681.
 MP_IRecv             8024                   4322.
 -------------------------------------------------------------------------------

 -------------------------------------------------------------------------------
 -                                                                             -
 -                                GRID STATISTICS                              -
 -                                                                             -
 -------------------------------------------------------------------------------
 LP    KERNEL    OPERATION                                     COUNT     PERCENT
 0     general   collocate                                        96       0.07%
 0     ortho     integrate                                      5377       4.12%
 0     ortho     collocate                                      5660       4.33%
 1     ortho     integrate                                     10070       7.71%
 1     ortho     collocate                                     10600       8.11%
 2     ortho     integrate                                     15276      11.69%
 2     ortho     collocate                                     16080      12.31%
 3     ortho     integrate                                     17290      13.24%
 3     ortho     collocate                                     18200      13.93%
 4     ortho     integrate                                      9918       7.59%
 4     ortho     collocate                                     10440       7.99%
 5     ortho     integrate                                      3610       2.76%
 5     ortho     collocate                                      3800       2.91%
 6     ortho     integrate                                      2052       1.57%
 6     ortho     collocate                                      2160       1.65%
 -------------------------------------------------------------------------------

 MEMORY| Estimated peak process memory [MiB]                                1132

 -------------------------------------------------------------------------------
 -                                                                             -
 -                         MESSAGE PASSING PERFORMANCE                         -
 -                                                                             -
 -------------------------------------------------------------------------------

 ROUTINE             CALLS      AVE VOLUME [Bytes]
 MP_Group                5
 MP_Bcast              400                 416709.
 MP_Allreduce         1104                   1308.
 MP_Sync               102
 MP_Alltoall           381               13688159.
 MP_ISendRecv         2355                 217975.
 MP_Wait              3275
 MP_ISend              800                 732933.
 MP_IRecv              800                 732771.
 MP_Recv                 3                  16320.
 -------------------------------------------------------------------------------


 -------------------------------------------------------------------------------
 -                                                                             -
 -                           R E F E R E N C E S                               -
 -                                                                             -
 -------------------------------------------------------------------------------
 
 CP2K version 8.0 (Development Version), the CP2K developers group (2020).
 CP2K is freely available from https://www.cp2k.org/ .

 Kuehne,Thomas D.; Iannuzzi,Marcella; Del Ben,Mauro;
 Rybkin,Vladimir V.; Seewald,Patrick; Stein,Frederick; Laino,Teodoro;
 Khaliullin,Rustam Z.; Schuett,Ole; Schiffmann,Florian; Golze,Dorothea;
 Wilhelm,Jan; Chulkov,Sergey; Bani-Hashemian,Mohammad Hossein;
 Weber,Valery; Borstnik,Urban; Taillefumier,Mathieu;
 Jakobovits,Alice Shoshana; Lazzaro,Alfio; Pabst,Hans; Mueller,Tiziano;
 Schade,Robert; Guidon,Manuel; Andermatt,Samuel; Holmberg,Nico;
 Schenter,Gregory K.; Hehn,Anna; Bussy,Augustin; Belleflamme,Fabian;
 Tabacchi,Gloria; Gloess,Andreas; Lass,Michael; Bethune,Iain;
 Mundy,Christopher J.; Plessl,Christian; Watkins,Matt;
 VandeVondele,Joost; Krack,Matthias; Hutter,Juerg. 
 The Journal of Chemical Physics, 152 (19), (2020). 
 CP2K: An electronic structure and molecular dynamics software package -
 Quickstep: Efficient and accurate electronic structure calculations.
 https://doi.org/10.1063/5.0007045

 Schuett, Ole; Messmer, Peter; Hutter, Juerg; VandeVondele, Joost. 
 Electronic Structure Calculations on Graphics Processing Units, John
 Wiley & Sons, Ltd, 173-190 (2016). 
 GPU-Accelerated Sparse Matrix-Matrix Multiplication for
 Linear Scaling Density Functional Theory.
 https://doi.org/10.1002/9781118670712.ch8

 Borstnik, U; VandeVondele, J; Weber, V; Hutter, J. 
 PARALLEL COMPUTING, 40 (5-6), 47-58 (2014). 
 Sparse matrix multiplication: The distributed block-compressed sparse
 row library.
 https://doi.org/10.1016/j.parco.2014.03.012

 Hutter, J; Iannuzzi, M; Schiffmann, F; VandeVondele, J. 
 WIREs Comput Mol Sci., 4 (1), 15-25 (2014). 
 CP2K: atomistic simulations of condensed matter systems.
 https://doi.org/10.1002/wcms.1159

 Marek, A; Blum, V; Johanni, R; Havu, V; Lang, B; Auckenthaler, T;
 Heinecke, A; Bungartz, H; Lederer, H. 
 Journal of Physics: Condensed Matter, 26 (21), (2014). 
 The ELPA library: scalable parallel eigenvalue solutions for
 electronic structure
 theory and computational science.
 https://doi.org/10.1088/0953-8984/26/21/213201

 Guidon, M; Hutter, J; VandeVondele, J. 
 JOURNAL OF CHEMICAL THEORY AND COMPUTATION, 5 (11), 3010-3021 (2009). 
 Robust Periodic Hartree-Fock Exchange for Large-Scale Simulations Using
 Gaussian Basis Sets.
 https://doi.org/10.1021/ct900494g

 Guidon, M; Schiffmann, F; Hutter, J; VandeVondele, J. 
 JOURNAL OF CHEMICAL PHYSICS, 128 (21), 214104 (2008). 
 Ab initio molecular dynamics using hybrid density functionals.
 https://doi.org/10.1063/1.2931945

 Krack, M. 
 THEORETICAL CHEMISTRY ACCOUNTS, 114 (1-3), 145-152 (2005). 
 Pseudopotentials for H to Kr optimized for gradient-corrected
 exchange-correlation functionals.
 https://doi.org/10.1007/s00214-005-0655-y

 VandeVondele, J; Krack, M; Mohamed, F; Parrinello, M; Chassaing, T;
 Hutter, J. COMPUTER PHYSICS COMMUNICATIONS, 167 (2), 103-128 (2005). 
 QUICKSTEP: Fast and accurate density functional calculations using a
 mixed Gaussian and plane waves approach.
 https://doi.org/10.1016/j.cpc.2004.12.014

 Frigo, M; Johnson, SG. 
 PROCEEDINGS OF THE IEEE, 93 (2), 216-231 (2005). 
 The design and implementation of FFTW3.
 https://doi.org/10.1109/JPROC.2004.840301

 VandeVondele, J; Hutter, J. 
 JOURNAL OF CHEMICAL PHYSICS, 118 (10), 4365-4369 (2003). 
 An efficient orbital transformation method for electronic structure
 calculations.
 https://doi.org/10.1063/1.1543154

 Martyna, GJ; Tuckerman, ME. 
 JOURNAL OF CHEMICAL PHYSICS, 110 (6), 2810-2821 (1999). 
 A reciprocal space based method for treating long range interactions in
 ab initio and force-field-based calculations in clusters.
 https://doi.org/10.1063/1.477923

 Hartwigsen, C; Goedecker, S; Hutter, J. 
 PHYSICAL REVIEW B, 58 (7), 3641-3662 (1998). 
 Relativistic separable dual-space Gaussian pseudopotentials from H to Rn.
 https://doi.org/10.1103/PhysRevB.58.3641

 Lippert, G; Hutter, J; Parrinello, M. 
 MOLECULAR PHYSICS, 92 (3), 477-487 (1997). 
 A hybrid Gaussian and plane wave density functional scheme.
 https://doi.org/10.1080/002689797170220

 Perdew, JP; Burke, K; Ernzerhof, M. 
 PHYSICAL REVIEW LETTERS, 77 (18), 3865-3868 (1996). 
 Generalized gradient approximation made simple.
 https://doi.org/10.1103/PhysRevLett.77.3865

 Goedecker, S; Teter, M; Hutter, J. 
 PHYSICAL REVIEW B, 54 (3), 1703-1710 (1996). 
 Separable dual-space Gaussian pseudopotentials.
 https://doi.org/10.1103/PhysRevB.54.1703


 -------------------------------------------------------------------------------
 -                                                                             -
 -                                T I M I N G                                  -
 -                                                                             -
 -------------------------------------------------------------------------------
 SUBROUTINE                       CALLS  ASD         SELF TIME        TOTAL TIME
                                MAXIMUM       AVERAGE  MAXIMUM  AVERAGE  MAXIMUM
 CP2K                                 1  1.0    0.052    0.068  199.168  199.170
 qs_energies                          1  2.0    0.000    0.000  198.760  198.762
 scf_env_do_scf                       1  3.0    0.000    0.000  198.545  198.546
 qs_ks_update_qs_env                 21  5.0    0.000    0.000  195.142  195.145
 rebuild_ks_matrix                   19  6.0    0.000    0.000  195.140  195.143
 qs_ks_build_kohn_sham_matrix        19  7.0    0.003    0.004  195.140  195.143
 hfx_ks_matrix                       19  8.0    0.001    0.001  184.314  184.315
 integrate_four_center               19  9.0    0.011    0.011  184.312  184.313
 integrate_four_center_main          19 10.0    0.003    0.004  116.669  179.336
 integrate_four_center_bin         2185 11.0  116.666  179.332  116.666  179.332
 scf_env_do_scf_inner_loop           19  4.0    0.001    0.002  167.883  167.884
 mp_sync                            102 10.7   62.672  115.393   62.672  115.393
 init_scf_loop                        2  4.0    0.000    0.000   30.661   30.662
 qs_vxc_create                       19  8.0    0.000    0.001    7.556    7.566
 xc_vxc_pw_create                    19  9.0    0.067    0.077    7.555    7.566
 pw_transfer                        368  9.6    0.034    0.039    6.812    7.557
 fft_wrap_pw1pw2                    330 10.7    0.004    0.005    6.735    7.478
 fft_wrap_pw1pw2_300                212 11.8    0.317    0.332    6.234    6.976
 fft3d_ps                           330 12.7    3.191    3.320    5.155    5.900
 xc_rho_set_and_dset_create          19 10.0    0.025    0.027    4.841    5.253
 -------------------------------------------------------------------------------

 The number of warnings for this run is : 0
 
 -------------------------------------------------------------------------------
  **** **** ******  **  PROGRAM ENDED AT                 2020-12-04 21:07:49.965
 ***** ** ***  *** **   PROGRAM RAN ON                                   tcopt10
 **    ****   ******    PROGRAM RAN BY                                    hutter
 ***** **    ** ** **   PROGRAM PROCESS ID                                 57401
  **** **  *******  **  PROGRAM STOPPED IN /data/hutter/GITHUB/BASIS/MOLOPT/PBE0
                                           /Be
