 DBCSR| CPU Multiplication driver                                           XSMM
 DBCSR| Multrec recursion limit                                              512
 DBCSR| Multiplication stack size                                           1000
 DBCSR| Maximum elements for images                                    UNLIMITED
 DBCSR| Multiplicative factor virtual images                                   1
 DBCSR| Use multiplication densification                                       T
 DBCSR| Multiplication size stacks                                             3
 DBCSR| Use memory pool for CPU allocation                                     F
 DBCSR| Number of 3D layers                                               SINGLE
 DBCSR| Use MPI memory allocation                                              F
 DBCSR| Use RMA algorithm                                                      F
 DBCSR| Use Communication thread                                               T
 DBCSR| Communication thread load                                             87
 DBCSR| Split modifier for TAS multiplication algorithm                  1.0E+00


  **** **** ******  **  PROGRAM STARTED AT               2020-12-04 21:07:50.187
 ***** ** ***  *** **   PROGRAM STARTED ON                               tcopt10
 **    ****   ******    PROGRAM STARTED BY                                hutter
 ***** **    ** ** **   PROGRAM PROCESS ID                                 57721
  **** **  *******  **  PROGRAM STARTED IN /data/hutter/GITHUB/BASIS/MOLOPT/PBE0
                                           /Be

 CP2K| version string:                    CP2K version 8.0 (Development Version)
 CP2K| source code revision number:                                  git:afc71fa
 CP2K| cp2kflags: omp libint fftw3 libxc elpa parallel mpi3 scalapack xsmm spgli
 CP2K|            b sirius
 CP2K| is freely available from                            https://www.cp2k.org/
 CP2K| Program compiled at                          Tue Nov 17 10:27:14 CET 2020
 CP2K| Program compiled on                                               tcopt10
 CP2K| Program compiled for                                                local
 CP2K| Data directory path                 /data/hutter/GITHUB/CURRENT/cp2k/data
 CP2K| Input file name                                             Be2H4-ref.inp

 GLOBAL| Force Environment number                                              1
 GLOBAL| Basis set file name                                  ../PBE0_UCSEGBASIS
 GLOBAL| Potential file name                                        ../POTENTIAL
 GLOBAL| MM Potential file name                                     MM_POTENTIAL
 GLOBAL| Coordinate file name                                      __STD_INPUT__
 GLOBAL| Method name                                                        CP2K
 GLOBAL| Project name                                                 refBe2H4q4
 GLOBAL| Preferred FFT library                                             FFTW3
 GLOBAL| Preferred diagonalization lib.                                     ELPA
 GLOBAL| Run type                                                         ENERGY
 GLOBAL| All-to-all communication in single precision                          F
 GLOBAL| FFTs using library dependent lengths                                  F
 GLOBAL| Global print level                                                  LOW
 GLOBAL| MPI I/O enabled                                                       T
 GLOBAL| Total number of message passing processes                            16
 GLOBAL| Number of threads for this process                                    1
 GLOBAL| This output is from process                                           0
 GLOBAL| CPU model name                          AMD EPYC 7401 24-Core Processor
 GLOBAL| CPUID                                                              1002

 MEMORY| system memory details [Kb]
 MEMORY|                        rank 0           min           max       average
 MEMORY| MemTotal            263987256     263987256     263987256     263987256
 MEMORY| MemFree             244252224     244252224     244252224     244252224
 MEMORY| Buffers                    32            32            32            32
 MEMORY| Cached               16292064      16292064      16292064      16292064
 MEMORY| Slab                  1370160       1370160       1370160       1370160
 MEMORY| SReclaimable           705520        705520        705520        705520
 MEMORY| MemLikelyFree       261249840     261249840     261249840     261249840


 GENERATE|  Preliminary Number of Bonds generated:                             0
 GENERATE|  Achieved consistency in connectivity generation.

 *******************************************************************************
 *******************************************************************************
 **                                                                           **
 **     #####                         ##              ##                      **
 **    ##   ##            ##          ##              ##                      **
 **   ##     ##                       ##            ######                    **
 **   ##     ##  ##   ##  ##   #####  ##  ##   ####   ##    #####    #####    **
 **   ##     ##  ##   ##  ##  ##      ## ##   ##      ##   ##   ##  ##   ##   **
 **   ##  ## ##  ##   ##  ##  ##      ####     ###    ##   ######   ######    **
 **    ##  ###   ##   ##  ##  ##      ## ##      ##   ##   ##       ##        **
 **     #######   #####   ##   #####  ##  ##  ####    ##    #####   ##        **
 **           ##                                                    ##        **
 **                                                                           **
 **                                                ... make the atoms dance   **
 **                                                                           **
 **            Copyright (C) by CP2K developers group (2000 - 2020)           **
 **                      J. Chem. Phys. 152, 194103 (2020)                    **
 **                                                                           **
 *******************************************************************************


 TOTAL NUMBERS AND MAXIMUM NUMBERS

  Total number of            - Atomic kinds:                                   2
                             - Atoms:                                          6
                             - Shell sets:                                    80
                             - Shells:                                       136
                             - Primitive Cartesian functions:                 80
                             - Cartesian basis functions:                    584
                             - Spherical basis functions:                    472

  Maximum angular momentum of- Orbital basis functions:                        3
                             - Local part of the GTH pseudopotential:          6


 SCF PARAMETERS         Density guess:                                    ATOMIC
                        --------------------------------------------------------
                        max_scf:                                              10
                        max_scf_history:                                       0
                        max_diis:                                              4
                        --------------------------------------------------------
                        eps_scf:                                        1.00E-07
                        eps_scf_history:                                0.00E+00
                        eps_diis:                                       1.00E-01
                        eps_eigval:                                     1.00E-05
                        --------------------------------------------------------
                        level_shift [a.u.]:                                 0.00
                        --------------------------------------------------------
                        Outer loop SCF in use 
                        No variables optimised in outer loop
                        eps_scf                                         1.00E-07
                        max_scf                                               10
                        No outer loop optimization
                        step_size                                       5.00E-01

 Number of electrons:                                                         12
 Number of occupied orbitals:                                                  6
 Number of molecular orbitals:                                                 6

 Number of orbital functions:                                                472
 Number of independent orbital functions:                                    472

 Extrapolation method: initial_guess


 SCF WAVEFUNCTION OPTIMIZATION

  ----------------------------------- OT ---------------------------------------
  Minimizer      : DIIS                : direct inversion
                                         in the iterative subspace
                                         using   7 DIIS vectors
                                         safer DIIS on
  Preconditioner : FULL_ALL            : diagonalization, state selective
  Precond_solver : DEFAULT
  stepsize       :    0.15000000                  energy_gap     :    0.08000000
  eps_taylor     :   0.10000E-15                  max_taylor     :             4
  ----------------------------------- OT ---------------------------------------

  Step     Update method      Time    Convergence         Total energy    Change
  ------------------------------------------------------------------------------
     1 OT DIIS     0.15E+00   39.8     0.05540469       -30.8256945913 -3.08E+01
     2 OT DIIS     0.15E+00    3.9     0.01838385       -31.5561329152 -7.30E-01
     3 OT DIIS     0.15E+00    3.4     0.00826351       -31.6232099232 -6.71E-02
     4 OT DIIS     0.15E+00    3.5     0.00180827       -31.6383877251 -1.52E-02
     5 OT DIIS     0.15E+00    3.5     0.00048834       -31.6393197936 -9.32E-04
     6 OT DIIS     0.15E+00    3.5     0.00012689       -31.6393808939 -6.11E-05
     7 OT DIIS     0.15E+00    3.5     0.00004422       -31.6393860263 -5.13E-06
     8 OT DIIS     0.15E+00    3.5     0.00001238       -31.6393867595 -7.33E-07
     9 OT DIIS     0.15E+00    3.5     0.00000308       -31.6393868221 -6.26E-08
    10 OT DIIS     0.15E+00    3.5     0.00000097       -31.6393868258 -3.70E-09

  Leaving inner SCF loop after reaching    10 steps.


  Electronic density on regular grids:        -12.0000000093       -0.0000000093
  Core density on regular grids:               12.0000000000        0.0000000000
  Total charge density on r-space grids:       -0.0000000093
  Total charge density g-space grids:          -0.0000000093

  Overlap energy of the core charge distribution:               0.00000000009831
  Self energy of the core charge distribution:                -33.39532121741997
  Core Hamiltonian energy:                                      2.69645081526606
  Hartree energy:                                               6.06616416024334
  Exchange-correlation energy:                                 -5.30749032808107
  Hartree-Fock Exchange energy:                                -1.69919025587674

  Total energy:                                               -31.63938682577008

  outer SCF iter =    1 RMS gradient =   0.97E-06 energy =        -31.6393868258

  ----------------------------------- OT ---------------------------------------
  Minimizer      : DIIS                : direct inversion
                                         in the iterative subspace
                                         using   7 DIIS vectors
                                         safer DIIS on
  Preconditioner : FULL_ALL            : diagonalization, state selective
  Precond_solver : DEFAULT
  stepsize       :    0.15000000                  energy_gap     :    0.08000000
  eps_taylor     :   0.10000E-15                  max_taylor     :             4
  ----------------------------------- OT ---------------------------------------

  Step     Update method      Time    Convergence         Total energy    Change
  ------------------------------------------------------------------------------
     1 OT DIIS     0.15E+00    7.0     0.00000033       -31.6393868261 -3.79E-10
     2 OT DIIS     0.15E+00    3.5     0.00000015       -31.6393868262 -3.30E-11
     3 OT DIIS     0.15E+00    3.4     8.0009E-09       -31.6393868262 -7.23E-12

  *** SCF run converged in     3 steps ***


  Electronic density on regular grids:        -12.0000000093       -0.0000000093
  Core density on regular grids:               12.0000000000        0.0000000000
  Total charge density on r-space grids:       -0.0000000093
  Total charge density g-space grids:          -0.0000000093

  Overlap energy of the core charge distribution:               0.00000000009831
  Self energy of the core charge distribution:                -33.39532121741997
  Core Hamiltonian energy:                                      2.69645032664874
  Hartree energy:                                               6.06616455336950
  Exchange-correlation energy:                                 -5.30749024052972
  Hartree-Fock Exchange energy:                                -1.69919024835580

  Total energy:                                               -31.63938682618894

  outer SCF iter =    2 RMS gradient =   0.80E-08 energy =        -31.6393868262
  outer SCF loop converged in   2 iterations or   13 steps


 ENERGY| Total FORCE_EVAL ( QS ) energy [a.u.]:              -31.639386826188936

 -------------------------------------------------------------------------------
 -                                                                             -
 -                                DBCSR STATISTICS                             -
 -                                                                             -
 -------------------------------------------------------------------------------
 COUNTER                                    TOTAL       BLAS       SMM       ACC
 flops     6 x     6 x     6                37584       0.0%    100.0%      0.0%
 flops     6 x     6 x   100               777600       0.0%    100.0%      0.0%
 flops   100 x     6 x     6               964800       0.0%    100.0%      0.0%
 flops     6 x     6 x   136              1057536       0.0%    100.0%      0.0%
 flops   136 x     6 x     6              1312128       0.0%    100.0%      0.0%
 flops    68 x   100 x     6              4569600       0.0%    100.0%      0.0%
 flops   100 x    68 x     6              4569600       0.0%    100.0%      0.0%
 flops   100 x   100 x     6              5040000       0.0%    100.0%      0.0%
 flops    68 x    68 x     6              7768320       0.0%    100.0%      0.0%
 flops   100 x     6 x   136             19584000       0.0%    100.0%      0.0%
 flops   136 x     6 x   100             19584000       0.0%    100.0%      0.0%
 flops   100 x     6 x    68             26112000       0.0%    100.0%      0.0%
 flops    68 x     6 x   100             26112000       0.0%    100.0%      0.0%
 flops   136 x     6 x   136             26634240       0.0%    100.0%      0.0%
 flops   100 x     6 x   100             33600000       0.0%    100.0%      0.0%
 flops    68 x     6 x    68             35512320       0.0%    100.0%      0.0%
 flops inhomo. stacks                           0       0.0%      0.0%      0.0%
 flops total                       213.235728E+06       0.0%    100.0%      0.0%
 flops max/rank                     55.719744E+06       0.0%    100.0%      0.0%
 matmuls inhomo. stacks                         0       0.0%      0.0%      0.0%
 matmuls total                               2785       0.0%    100.0%      0.0%
 number of processed stacks                  1901       0.0%    100.0%      0.0%
 average stack size                                     0.0       1.5       0.0
 marketing flops                   228.783888E+06
 -------------------------------------------------------------------------------
 # multiplications                            294
 max memory usage/rank               3.183161E+09
 # max total images/rank                        1
 # max 3D layers                                1
 # MPI messages exchanged                   28224
 MPI messages size (bytes):
  total size                       393.040608E+06
  min size                           0.000000E+00
  max size                         147.968000E+03
  average size                      13.925759E+03
 MPI breakdown and total messages size (bytes):
             size <=      128               20865                        0
       128 < size <=     8192                3999                 18763488
      8192 < size <=    32768                   0                        0
     32768 < size <=   131072                2520                249984000
    131072 < size <=  4194304                 840                124293120
   4194304 < size <= 16777216                   0                        0
  16777216 < size                               0                        0
 -------------------------------------------------------------------------------
 -                                                                             -
 -                      DBCSR MESSAGE PASSING PERFORMANCE                      -
 -                                                                             -
 -------------------------------------------------------------------------------
 ROUTINE             CALLS      AVE VOLUME [Bytes]
 MP_Bcast               17                     12.
 MP_Allreduce         1586                      9.
 MP_Alltoall          1342                   2867.
 MP_ISend             4696                   4785.
 MP_IRecv             4696                   5167.
 -------------------------------------------------------------------------------

 -------------------------------------------------------------------------------
 -                                                                             -
 -                                GRID STATISTICS                              -
 -                                                                             -
 -------------------------------------------------------------------------------
 LP    KERNEL    OPERATION                                     COUNT     PERCENT
 0     general   collocate                                        96       0.10%
 0     ortho     integrate                                     18863      19.43%
 0     ortho     collocate                                     20314      20.93%
 3     ortho     integrate                                     21866      22.52%
 3     ortho     collocate                                     23548      24.26%
 6     ortho     integrate                                      5967       6.15%
 6     ortho     collocate                                      6426       6.62%
 -------------------------------------------------------------------------------

 MEMORY| Estimated peak process memory [MiB]                                3036

 -------------------------------------------------------------------------------
 -                                                                             -
 -                         MESSAGE PASSING PERFORMANCE                         -
 -                                                                             -
 -------------------------------------------------------------------------------

 ROUTINE             CALLS      AVE VOLUME [Bytes]
 MP_Group                5
 MP_Bcast              218                 764283.
 MP_Allreduce          656                   2121.
 MP_Sync                86
 MP_Alltoall           267               13525396.
 MP_ISendRecv         1635                 224528.
 MP_Wait              2279
 MP_comm_split          14
 MP_ISend              560                 732968.
 MP_IRecv              560                 732736.
 MP_Recv                 2                   7552.
 -------------------------------------------------------------------------------


 -------------------------------------------------------------------------------
 -                                                                             -
 -                           R E F E R E N C E S                               -
 -                                                                             -
 -------------------------------------------------------------------------------
 
 CP2K version 8.0 (Development Version), the CP2K developers group (2020).
 CP2K is freely available from https://www.cp2k.org/ .

 Kuehne,Thomas D.; Iannuzzi,Marcella; Del Ben,Mauro;
 Rybkin,Vladimir V.; Seewald,Patrick; Stein,Frederick; Laino,Teodoro;
 Khaliullin,Rustam Z.; Schuett,Ole; Schiffmann,Florian; Golze,Dorothea;
 Wilhelm,Jan; Chulkov,Sergey; Bani-Hashemian,Mohammad Hossein;
 Weber,Valery; Borstnik,Urban; Taillefumier,Mathieu;
 Jakobovits,Alice Shoshana; Lazzaro,Alfio; Pabst,Hans; Mueller,Tiziano;
 Schade,Robert; Guidon,Manuel; Andermatt,Samuel; Holmberg,Nico;
 Schenter,Gregory K.; Hehn,Anna; Bussy,Augustin; Belleflamme,Fabian;
 Tabacchi,Gloria; Gloess,Andreas; Lass,Michael; Bethune,Iain;
 Mundy,Christopher J.; Plessl,Christian; Watkins,Matt;
 VandeVondele,Joost; Krack,Matthias; Hutter,Juerg. 
 The Journal of Chemical Physics, 152 (19), (2020). 
 CP2K: An electronic structure and molecular dynamics software package -
 Quickstep: Efficient and accurate electronic structure calculations.
 https://doi.org/10.1063/5.0007045

 Schuett, Ole; Messmer, Peter; Hutter, Juerg; VandeVondele, Joost. 
 Electronic Structure Calculations on Graphics Processing Units, John
 Wiley & Sons, Ltd, 173-190 (2016). 
 GPU-Accelerated Sparse Matrix-Matrix Multiplication for
 Linear Scaling Density Functional Theory.
 https://doi.org/10.1002/9781118670712.ch8

 Borstnik, U; VandeVondele, J; Weber, V; Hutter, J. 
 PARALLEL COMPUTING, 40 (5-6), 47-58 (2014). 
 Sparse matrix multiplication: The distributed block-compressed sparse
 row library.
 https://doi.org/10.1016/j.parco.2014.03.012

 Hutter, J; Iannuzzi, M; Schiffmann, F; VandeVondele, J. 
 WIREs Comput Mol Sci., 4 (1), 15-25 (2014). 
 CP2K: atomistic simulations of condensed matter systems.
 https://doi.org/10.1002/wcms.1159

 Marek, A; Blum, V; Johanni, R; Havu, V; Lang, B; Auckenthaler, T;
 Heinecke, A; Bungartz, H; Lederer, H. 
 Journal of Physics: Condensed Matter, 26 (21), (2014). 
 The ELPA library: scalable parallel eigenvalue solutions for
 electronic structure
 theory and computational science.
 https://doi.org/10.1088/0953-8984/26/21/213201

 Guidon, M; Hutter, J; VandeVondele, J. 
 JOURNAL OF CHEMICAL THEORY AND COMPUTATION, 5 (11), 3010-3021 (2009). 
 Robust Periodic Hartree-Fock Exchange for Large-Scale Simulations Using
 Gaussian Basis Sets.
 https://doi.org/10.1021/ct900494g

 Guidon, M; Schiffmann, F; Hutter, J; VandeVondele, J. 
 JOURNAL OF CHEMICAL PHYSICS, 128 (21), 214104 (2008). 
 Ab initio molecular dynamics using hybrid density functionals.
 https://doi.org/10.1063/1.2931945

 Krack, M. 
 THEORETICAL CHEMISTRY ACCOUNTS, 114 (1-3), 145-152 (2005). 
 Pseudopotentials for H to Kr optimized for gradient-corrected
 exchange-correlation functionals.
 https://doi.org/10.1007/s00214-005-0655-y

 VandeVondele, J; Krack, M; Mohamed, F; Parrinello, M; Chassaing, T;
 Hutter, J. COMPUTER PHYSICS COMMUNICATIONS, 167 (2), 103-128 (2005). 
 QUICKSTEP: Fast and accurate density functional calculations using a
 mixed Gaussian and plane waves approach.
 https://doi.org/10.1016/j.cpc.2004.12.014

 Frigo, M; Johnson, SG. 
 PROCEEDINGS OF THE IEEE, 93 (2), 216-231 (2005). 
 The design and implementation of FFTW3.
 https://doi.org/10.1109/JPROC.2004.840301

 VandeVondele, J; Hutter, J. 
 JOURNAL OF CHEMICAL PHYSICS, 118 (10), 4365-4369 (2003). 
 An efficient orbital transformation method for electronic structure
 calculations.
 https://doi.org/10.1063/1.1543154

 Martyna, GJ; Tuckerman, ME. 
 JOURNAL OF CHEMICAL PHYSICS, 110 (6), 2810-2821 (1999). 
 A reciprocal space based method for treating long range interactions in
 ab initio and force-field-based calculations in clusters.
 https://doi.org/10.1063/1.477923

 Hartwigsen, C; Goedecker, S; Hutter, J. 
 PHYSICAL REVIEW B, 58 (7), 3641-3662 (1998). 
 Relativistic separable dual-space Gaussian pseudopotentials from H to Rn.
 https://doi.org/10.1103/PhysRevB.58.3641

 Lippert, G; Hutter, J; Parrinello, M. 
 MOLECULAR PHYSICS, 92 (3), 477-487 (1997). 
 A hybrid Gaussian and plane wave density functional scheme.
 https://doi.org/10.1080/002689797170220

 Perdew, JP; Burke, K; Ernzerhof, M. 
 PHYSICAL REVIEW LETTERS, 77 (18), 3865-3868 (1996). 
 Generalized gradient approximation made simple.
 https://doi.org/10.1103/PhysRevLett.77.3865

 Goedecker, S; Teter, M; Hutter, J. 
 PHYSICAL REVIEW B, 54 (3), 1703-1710 (1996). 
 Separable dual-space Gaussian pseudopotentials.
 https://doi.org/10.1103/PhysRevB.54.1703


 -------------------------------------------------------------------------------
 -                                                                             -
 -                                T I M I N G                                  -
 -                                                                             -
 -------------------------------------------------------------------------------
 SUBROUTINE                       CALLS  ASD         SELF TIME        TOTAL TIME
                                MAXIMUM       AVERAGE  MAXIMUM  AVERAGE  MAXIMUM
 CP2K                                 1  1.0    0.198    0.213   83.120   83.121
 qs_energies                          1  2.0    0.000    0.000   82.498   82.499
 scf_env_do_scf                       1  3.0    0.000    0.000   82.253   82.254
 qs_ks_update_qs_env                 15  5.0    0.000    0.000   80.033   80.034
 rebuild_ks_matrix                   13  6.0    0.000    0.000   80.032   80.033
 qs_ks_build_kohn_sham_matrix        13  7.0    0.002    0.002   80.032   80.033
 hfx_ks_matrix                       13  8.0    0.000    0.001   72.460   72.461
 integrate_four_center               13  9.0    0.008    0.008   72.458   72.459
 integrate_four_center_main          13 10.0    0.003    0.004   61.893   63.099
 integrate_four_center_bin         1482 11.0   61.890   63.096   61.890   63.096
 init_scf_loop                        2  4.0    0.000    0.000   43.217   43.217
 scf_env_do_scf_inner_loop           13  4.0    0.000    0.001   39.036   39.036
 calc_screening_functions             1 10.0    6.822    6.870    7.516    7.568
 pw_transfer                        254  9.6    0.024    0.026    4.943    5.654
 fft_wrap_pw1pw2                    228 10.7    0.003    0.003    4.891    5.602
 qs_vxc_create                       13  8.0    0.000    0.000    5.407    5.415
 xc_vxc_pw_create                    13  9.0    0.045    0.049    5.407    5.414
 fft_wrap_pw1pw2_300                146 11.8    0.217    0.228    4.507    5.219
 fft3d_ps                           228 12.7    2.220    2.361    3.783    4.506
 xc_rho_set_and_dset_create          13 10.0    0.017    0.018    3.371    3.795
 mp_sync                             86 10.8    1.374    3.293    1.374    3.293
 xc_functional_eval                  13 11.0    0.000    0.000    2.105    2.529
 pbe_lda_eval                        13 12.0    2.105    2.529    2.105    2.529
 qs_rho_update_rho                   14  5.0    0.000    0.000    2.014    2.014
 calculate_rho_elec                  14  6.0    0.022    0.024    2.014    2.014
 mp_alltoall_z22v                   228 14.7    1.166    1.922    1.166    1.922
 yz_to_x                            110 13.1    0.185    0.215    0.984    1.685
 -------------------------------------------------------------------------------

 The number of warnings for this run is : 0
 
 -------------------------------------------------------------------------------
  **** **** ******  **  PROGRAM ENDED AT                 2020-12-04 21:09:13.952
 ***** ** ***  *** **   PROGRAM RAN ON                                   tcopt10
 **    ****   ******    PROGRAM RAN BY                                    hutter
 ***** **    ** ** **   PROGRAM PROCESS ID                                 57721
  **** **  *******  **  PROGRAM STOPPED IN /data/hutter/GITHUB/BASIS/MOLOPT/PBE0
                                           /Be
