 DBCSR| CPU Multiplication driver                                           XSMM
 DBCSR| Multrec recursion limit                                              512
 DBCSR| Multiplication stack size                                           1000
 DBCSR| Maximum elements for images                                    UNLIMITED
 DBCSR| Multiplicative factor virtual images                                   1
 DBCSR| Use multiplication densification                                       T
 DBCSR| Multiplication size stacks                                             3
 DBCSR| Use memory pool for CPU allocation                                     F
 DBCSR| Number of 3D layers                                               SINGLE
 DBCSR| Use MPI memory allocation                                              F
 DBCSR| Use RMA algorithm                                                      F
 DBCSR| Use Communication thread                                               T
 DBCSR| Communication thread load                                             87
 DBCSR| Split modifier for TAS multiplication algorithm                  1.0E+00


  **** **** ******  **  PROGRAM STARTED AT               2020-12-04 21:09:14.174
 ***** ** ***  *** **   PROGRAM STARTED ON                               tcopt10
 **    ****   ******    PROGRAM STARTED BY                                hutter
 ***** **    ** ** **   PROGRAM PROCESS ID                                 57888
  **** **  *******  **  PROGRAM STARTED IN /data/hutter/GITHUB/BASIS/MOLOPT/PBE0
                                           /Be

 CP2K| version string:                    CP2K version 8.0 (Development Version)
 CP2K| source code revision number:                                  git:afc71fa
 CP2K| cp2kflags: omp libint fftw3 libxc elpa parallel mpi3 scalapack xsmm spgli
 CP2K|            b sirius
 CP2K| is freely available from                            https://www.cp2k.org/
 CP2K| Program compiled at                          Tue Nov 17 10:27:14 CET 2020
 CP2K| Program compiled on                                               tcopt10
 CP2K| Program compiled for                                                local
 CP2K| Data directory path                 /data/hutter/GITHUB/CURRENT/cp2k/data
 CP2K| Input file name                                               Be4-ref.inp

 GLOBAL| Force Environment number                                              1
 GLOBAL| Basis set file name                                  ../PBE0_UCSEGBASIS
 GLOBAL| Potential file name                                        ../POTENTIAL
 GLOBAL| MM Potential file name                                     MM_POTENTIAL
 GLOBAL| Coordinate file name                                      __STD_INPUT__
 GLOBAL| Method name                                                        CP2K
 GLOBAL| Project name                                                   refBe4q4
 GLOBAL| Preferred FFT library                                             FFTW3
 GLOBAL| Preferred diagonalization lib.                                     ELPA
 GLOBAL| Run type                                                         ENERGY
 GLOBAL| All-to-all communication in single precision                          F
 GLOBAL| FFTs using library dependent lengths                                  F
 GLOBAL| Global print level                                                  LOW
 GLOBAL| MPI I/O enabled                                                       T
 GLOBAL| Total number of message passing processes                            16
 GLOBAL| Number of threads for this process                                    1
 GLOBAL| This output is from process                                           0
 GLOBAL| CPU model name                          AMD EPYC 7401 24-Core Processor
 GLOBAL| CPUID                                                              1002

 MEMORY| system memory details [Kb]
 MEMORY|                        rank 0           min           max       average
 MEMORY| MemTotal            263987256     263987256     263987256     263987256
 MEMORY| MemFree             244250092     244250092     244250092     244250092
 MEMORY| Buffers                    32            32            32            32
 MEMORY| Cached               16292588      16292588      16292588      16292588
 MEMORY| Slab                  1370304       1370304       1370304       1370304
 MEMORY| SReclaimable           705488        705488        705488        705488
 MEMORY| MemLikelyFree       261248200     261248200     261248200     261248200


 GENERATE|  Preliminary Number of Bonds generated:                             0
 GENERATE|  Achieved consistency in connectivity generation.

 *******************************************************************************
 *******************************************************************************
 **                                                                           **
 **     #####                         ##              ##                      **
 **    ##   ##            ##          ##              ##                      **
 **   ##     ##                       ##            ######                    **
 **   ##     ##  ##   ##  ##   #####  ##  ##   ####   ##    #####    #####    **
 **   ##     ##  ##   ##  ##  ##      ## ##   ##      ##   ##   ##  ##   ##   **
 **   ##  ## ##  ##   ##  ##  ##      ####     ###    ##   ######   ######    **
 **    ##  ###   ##   ##  ##  ##      ## ##      ##   ##   ##       ##        **
 **     #######   #####   ##   #####  ##  ##  ####    ##    #####   ##        **
 **           ##                                                    ##        **
 **                                                                           **
 **                                                ... make the atoms dance   **
 **                                                                           **
 **            Copyright (C) by CP2K developers group (2000 - 2020)           **
 **                      J. Chem. Phys. 152, 194103 (2020)                    **
 **                                                                           **
 *******************************************************************************


 TOTAL NUMBERS AND MAXIMUM NUMBERS

  Total number of            - Atomic kinds:                                   1
                             - Atoms:                                          4
                             - Shell sets:                                    64
                             - Shells:                                       112
                             - Primitive Cartesian functions:                 64
                             - Cartesian basis functions:                    496
                             - Spherical basis functions:                    400

  Maximum angular momentum of- Orbital basis functions:                        3
                             - Local part of the GTH pseudopotential:          6


 SCF PARAMETERS         Density guess:                                    ATOMIC
                        --------------------------------------------------------
                        max_scf:                                              10
                        max_scf_history:                                       0
                        max_diis:                                              4
                        --------------------------------------------------------
                        eps_scf:                                        1.00E-07
                        eps_scf_history:                                0.00E+00
                        eps_diis:                                       1.00E-01
                        eps_eigval:                                     1.00E-05
                        --------------------------------------------------------
                        level_shift [a.u.]:                                 0.00
                        --------------------------------------------------------
                        Outer loop SCF in use 
                        No variables optimised in outer loop
                        eps_scf                                         1.00E-07
                        max_scf                                               10
                        No outer loop optimization
                        step_size                                       5.00E-01

 Number of electrons:                                                         16
 Number of occupied orbitals:                                                  8
 Number of molecular orbitals:                                                 8

 Number of orbital functions:                                                400
 Number of independent orbital functions:                                    400

 Extrapolation method: initial_guess


 SCF WAVEFUNCTION OPTIMIZATION

  ----------------------------------- OT ---------------------------------------
  Minimizer      : DIIS                : direct inversion
                                         in the iterative subspace
                                         using   7 DIIS vectors
                                         safer DIIS on
  Preconditioner : FULL_ALL            : diagonalization, state selective
  Precond_solver : DEFAULT
  stepsize       :    0.15000000                  energy_gap     :    0.08000000
  eps_taylor     :   0.10000E-15                  max_taylor     :             4
  ----------------------------------- OT ---------------------------------------

  Step     Update method      Time    Convergence         Total energy    Change
  ------------------------------------------------------------------------------
     1 OT DIIS     0.15E+00   26.2     0.05059526       -57.9099154131 -5.79E+01
     2 OT DIIS     0.15E+00    2.9     0.04643942       -58.0713928322 -1.61E-01
     3 OT DIIS     0.15E+00    2.6     0.00651203       -58.3736862737 -3.02E-01
     4 OT DIIS     0.15E+00    2.6     0.00182334       -58.3887715176 -1.51E-02
     5 OT DIIS     0.15E+00    2.6     0.00049087       -58.3896241789 -8.53E-04
     6 OT DIIS     0.15E+00    2.6     0.00030001       -58.3896985374 -7.44E-05
     7 OT DIIS     0.15E+00    2.6     0.00007910       -58.3897133059 -1.48E-05
     8 OT DIIS     0.15E+00    2.6     0.00007161       -58.3897141489 -8.43E-07
     9 OT DIIS     0.15E+00    2.6     0.00001062       -58.3897146717 -5.23E-07
    10 OT DIIS     0.15E+00    2.6     0.00000164       -58.3897147162 -4.45E-08

  Leaving inner SCF loop after reaching    10 steps.


  Electronic density on regular grids:        -16.0000000190       -0.0000000190
  Core density on regular grids:               16.0000000000       -0.0000000000
  Total charge density on r-space grids:       -0.0000000190
  Total charge density g-space grids:          -0.0000000190

  Overlap energy of the core charge distribution:               0.00000000000000
  Self energy of the core charge distribution:                -55.53473151964206
  Core Hamiltonian energy:                                      1.10039499671267
  Hartree energy:                                               7.01418543125332
  Exchange-correlation energy:                                 -8.31139477353752
  Hartree-Fock Exchange energy:                                -2.65816885095868

  Total energy:                                               -58.38971471617226

  outer SCF iter =    1 RMS gradient =   0.16E-05 energy =        -58.3897147162

  ----------------------------------- OT ---------------------------------------
  Minimizer      : DIIS                : direct inversion
                                         in the iterative subspace
                                         using   7 DIIS vectors
                                         safer DIIS on
  Preconditioner : FULL_ALL            : diagonalization, state selective
  Precond_solver : DEFAULT
  stepsize       :    0.15000000                  energy_gap     :    0.08000000
  eps_taylor     :   0.10000E-15                  max_taylor     :             4
  ----------------------------------- OT ---------------------------------------

  Step     Update method      Time    Convergence         Total energy    Change
  ------------------------------------------------------------------------------
     1 OT DIIS     0.15E+00    5.3     0.00000078       -58.3897147173 -1.13E-09
     2 OT DIIS     0.15E+00    2.6     0.00000039       -58.3897147175 -2.06E-10
     3 OT DIIS     0.15E+00    2.6     0.00000023       -58.3897147176 -5.60E-11
     4 OT DIIS     0.15E+00    2.6     0.00000005       -58.3897147176 -1.01E-11

  *** SCF run converged in     4 steps ***


  Electronic density on regular grids:        -16.0000000190       -0.0000000190
  Core density on regular grids:               16.0000000000       -0.0000000000
  Total charge density on r-space grids:       -0.0000000190
  Total charge density g-space grids:          -0.0000000190

  Overlap energy of the core charge distribution:               0.00000000000000
  Self energy of the core charge distribution:                -55.53473151964206
  Core Hamiltonian energy:                                      1.10042049645711
  Hartree energy:                                               7.01416988105497
  Exchange-correlation energy:                                 -8.31140235616043
  Hartree-Fock Exchange energy:                                -2.65817121928370

  Total energy:                                               -58.38971471757412

  outer SCF iter =    2 RMS gradient =   0.47E-07 energy =        -58.3897147176
  outer SCF loop converged in   2 iterations or   14 steps


 ENERGY| Total FORCE_EVAL ( QS ) energy [a.u.]:              -58.389714717574115

 -------------------------------------------------------------------------------
 -                                                                             -
 -                                DBCSR STATISTICS                             -
 -                                                                             -
 -------------------------------------------------------------------------------
 COUNTER                                    TOTAL       BLAS       SMM       ACC
 flops     8 x     8 x     8                90112       0.0%    100.0%      0.0%
 flops     8 x     8 x   100              2969600       0.0%    100.0%      0.0%
 flops   100 x     8 x     8              3686400       0.0%    100.0%      0.0%
 flops   100 x   100 x     8             24000000       0.0%    100.0%      0.0%
 flops   100 x     8 x   100            189440000       0.0%    100.0%      0.0%
 flops inhomo. stacks                           0       0.0%      0.0%      0.0%
 flops total                       220.186112E+06       0.0%    100.0%      0.0%
 flops max/rank                     53.741312E+06       0.0%    100.0%      0.0%
 matmuls inhomo. stacks                         0       0.0%      0.0%      0.0%
 matmuls total                               1942       0.0%    100.0%      0.0%
 number of processed stacks                  1942       0.0%    100.0%      0.0%
 average stack size                                     0.0       1.0       0.0
 marketing flops                   234.688512E+06
 -------------------------------------------------------------------------------
 # multiplications                            309
 max memory usage/rank               2.394161E+09
 # max total images/rank                        1
 # max 3D layers                                1
 # MPI messages exchanged                   29664
 MPI messages size (bytes):
  total size                       306.966528E+06
  min size                           0.000000E+00
  max size                          80.000000E+03
  average size                      10.348116E+03
 MPI breakdown and total messages size (bytes):
             size <=      128               21864                        0
       128 < size <=     8192                4248                 22806528
      8192 < size <=    32768                   0                        0
     32768 < size <=   131072                3552                284160000
    131072 < size <=  4194304                   0                        0
   4194304 < size <= 16777216                   0                        0
  16777216 < size                               0                        0
 -------------------------------------------------------------------------------
 -                                                                             -
 -                      DBCSR MESSAGE PASSING PERFORMANCE                      -
 -                                                                             -
 -------------------------------------------------------------------------------
 ROUTINE             CALLS      AVE VOLUME [Bytes]
 MP_Bcast                6                     12.
 MP_Allreduce         1646                      8.
 MP_Alltoall          1386                   2714.
 MP_ISend             4936                   4549.
 MP_IRecv             4936                   4391.
 -------------------------------------------------------------------------------

 -------------------------------------------------------------------------------
 -                                                                             -
 -                                GRID STATISTICS                              -
 -                                                                             -
 -------------------------------------------------------------------------------
 LP    KERNEL    OPERATION                                     COUNT     PERCENT
 0     general   collocate                                        64       0.09%
 0     ortho     integrate                                     12740      17.77%
 0     ortho     collocate                                     13650      19.04%
 3     ortho     integrate                                     16800      23.43%
 3     ortho     collocate                                     18000      25.11%
 6     ortho     integrate                                      5040       7.03%
 6     ortho     collocate                                      5400       7.53%
 -------------------------------------------------------------------------------

 MEMORY| Estimated peak process memory [MiB]                                2284

 -------------------------------------------------------------------------------
 -                                                                             -
 -                         MESSAGE PASSING PERFORMANCE                         -
 -                                                                             -
 -------------------------------------------------------------------------------

 ROUTINE             CALLS      AVE VOLUME [Bytes]
 MP_Group                5
 MP_Bcast              140                 595569.
 MP_Allreduce          489                   2837.
 MP_Sync                77
 MP_Alltoall           286               13559693.
 MP_ISendRecv         1755                 217326.
 MP_Wait              2445
 MP_ISend              600                 675936.
 MP_IRecv              600                 675720.
 MP_Recv                 3                   6400.
 -------------------------------------------------------------------------------


 -------------------------------------------------------------------------------
 -                                                                             -
 -                           R E F E R E N C E S                               -
 -                                                                             -
 -------------------------------------------------------------------------------
 
 CP2K version 8.0 (Development Version), the CP2K developers group (2020).
 CP2K is freely available from https://www.cp2k.org/ .

 Kuehne,Thomas D.; Iannuzzi,Marcella; Del Ben,Mauro;
 Rybkin,Vladimir V.; Seewald,Patrick; Stein,Frederick; Laino,Teodoro;
 Khaliullin,Rustam Z.; Schuett,Ole; Schiffmann,Florian; Golze,Dorothea;
 Wilhelm,Jan; Chulkov,Sergey; Bani-Hashemian,Mohammad Hossein;
 Weber,Valery; Borstnik,Urban; Taillefumier,Mathieu;
 Jakobovits,Alice Shoshana; Lazzaro,Alfio; Pabst,Hans; Mueller,Tiziano;
 Schade,Robert; Guidon,Manuel; Andermatt,Samuel; Holmberg,Nico;
 Schenter,Gregory K.; Hehn,Anna; Bussy,Augustin; Belleflamme,Fabian;
 Tabacchi,Gloria; Gloess,Andreas; Lass,Michael; Bethune,Iain;
 Mundy,Christopher J.; Plessl,Christian; Watkins,Matt;
 VandeVondele,Joost; Krack,Matthias; Hutter,Juerg. 
 The Journal of Chemical Physics, 152 (19), (2020). 
 CP2K: An electronic structure and molecular dynamics software package -
 Quickstep: Efficient and accurate electronic structure calculations.
 https://doi.org/10.1063/5.0007045

 Schuett, Ole; Messmer, Peter; Hutter, Juerg; VandeVondele, Joost. 
 Electronic Structure Calculations on Graphics Processing Units, John
 Wiley & Sons, Ltd, 173-190 (2016). 
 GPU-Accelerated Sparse Matrix-Matrix Multiplication for
 Linear Scaling Density Functional Theory.
 https://doi.org/10.1002/9781118670712.ch8

 Borstnik, U; VandeVondele, J; Weber, V; Hutter, J. 
 PARALLEL COMPUTING, 40 (5-6), 47-58 (2014). 
 Sparse matrix multiplication: The distributed block-compressed sparse
 row library.
 https://doi.org/10.1016/j.parco.2014.03.012

 Hutter, J; Iannuzzi, M; Schiffmann, F; VandeVondele, J. 
 WIREs Comput Mol Sci., 4 (1), 15-25 (2014). 
 CP2K: atomistic simulations of condensed matter systems.
 https://doi.org/10.1002/wcms.1159

 Marek, A; Blum, V; Johanni, R; Havu, V; Lang, B; Auckenthaler, T;
 Heinecke, A; Bungartz, H; Lederer, H. 
 Journal of Physics: Condensed Matter, 26 (21), (2014). 
 The ELPA library: scalable parallel eigenvalue solutions for
 electronic structure
 theory and computational science.
 https://doi.org/10.1088/0953-8984/26/21/213201

 Guidon, M; Hutter, J; VandeVondele, J. 
 JOURNAL OF CHEMICAL THEORY AND COMPUTATION, 5 (11), 3010-3021 (2009). 
 Robust Periodic Hartree-Fock Exchange for Large-Scale Simulations Using
 Gaussian Basis Sets.
 https://doi.org/10.1021/ct900494g

 Guidon, M; Schiffmann, F; Hutter, J; VandeVondele, J. 
 JOURNAL OF CHEMICAL PHYSICS, 128 (21), 214104 (2008). 
 Ab initio molecular dynamics using hybrid density functionals.
 https://doi.org/10.1063/1.2931945

 Krack, M. 
 THEORETICAL CHEMISTRY ACCOUNTS, 114 (1-3), 145-152 (2005). 
 Pseudopotentials for H to Kr optimized for gradient-corrected
 exchange-correlation functionals.
 https://doi.org/10.1007/s00214-005-0655-y

 VandeVondele, J; Krack, M; Mohamed, F; Parrinello, M; Chassaing, T;
 Hutter, J. COMPUTER PHYSICS COMMUNICATIONS, 167 (2), 103-128 (2005). 
 QUICKSTEP: Fast and accurate density functional calculations using a
 mixed Gaussian and plane waves approach.
 https://doi.org/10.1016/j.cpc.2004.12.014

 Frigo, M; Johnson, SG. 
 PROCEEDINGS OF THE IEEE, 93 (2), 216-231 (2005). 
 The design and implementation of FFTW3.
 https://doi.org/10.1109/JPROC.2004.840301

 VandeVondele, J; Hutter, J. 
 JOURNAL OF CHEMICAL PHYSICS, 118 (10), 4365-4369 (2003). 
 An efficient orbital transformation method for electronic structure
 calculations.
 https://doi.org/10.1063/1.1543154

 Martyna, GJ; Tuckerman, ME. 
 JOURNAL OF CHEMICAL PHYSICS, 110 (6), 2810-2821 (1999). 
 A reciprocal space based method for treating long range interactions in
 ab initio and force-field-based calculations in clusters.
 https://doi.org/10.1063/1.477923

 Hartwigsen, C; Goedecker, S; Hutter, J. 
 PHYSICAL REVIEW B, 58 (7), 3641-3662 (1998). 
 Relativistic separable dual-space Gaussian pseudopotentials from H to Rn.
 https://doi.org/10.1103/PhysRevB.58.3641

 Lippert, G; Hutter, J; Parrinello, M. 
 MOLECULAR PHYSICS, 92 (3), 477-487 (1997). 
 A hybrid Gaussian and plane wave density functional scheme.
 https://doi.org/10.1080/002689797170220

 Perdew, JP; Burke, K; Ernzerhof, M. 
 PHYSICAL REVIEW LETTERS, 77 (18), 3865-3868 (1996). 
 Generalized gradient approximation made simple.
 https://doi.org/10.1103/PhysRevLett.77.3865

 Goedecker, S; Teter, M; Hutter, J. 
 PHYSICAL REVIEW B, 54 (3), 1703-1710 (1996). 
 Separable dual-space Gaussian pseudopotentials.
 https://doi.org/10.1103/PhysRevB.54.1703


 -------------------------------------------------------------------------------
 -                                                                             -
 -                                T I M I N G                                  -
 -                                                                             -
 -------------------------------------------------------------------------------
 SUBROUTINE                       CALLS  ASD         SELF TIME        TOTAL TIME
                                MAXIMUM       AVERAGE  MAXIMUM  AVERAGE  MAXIMUM
 CP2K                                 1  1.0    0.124    0.159   61.381   61.383
 qs_energies                          1  2.0    0.000    0.000   60.822   60.823
 scf_env_do_scf                       1  3.0    0.000    0.000   60.601   60.602
 qs_ks_update_qs_env                 16  5.0    0.000    0.000   58.353   58.354
 rebuild_ks_matrix                   14  6.0    0.000    0.000   58.352   58.353
 qs_ks_build_kohn_sham_matrix        14  7.0    0.002    0.003   58.352   58.353
 hfx_ks_matrix                       14  8.0    0.001    0.001   50.276   50.277
 integrate_four_center               14  9.0    0.008    0.008   50.275   50.275
 integrate_four_center_main          14 10.0    0.002    0.003   39.538   46.515
 integrate_four_center_bin         1750 11.0   39.535   46.513   39.535   46.513
 scf_env_do_scf_inner_loop           14  4.0    0.001    0.001   31.958   31.959
 init_scf_loop                        2  4.0    0.000    0.000   28.642   28.643
 mp_sync                             77 10.7    7.259   13.157    7.259   13.157
 qs_vxc_create                       14  8.0    0.000    0.000    5.848    5.854
 xc_vxc_pw_create                    14  9.0    0.049    0.053    5.847    5.854
 pw_transfer                        273  9.6    0.025    0.027    5.250    5.839
 fft_wrap_pw1pw2                    245 10.7    0.003    0.004    5.193    5.780
 fft_wrap_pw1pw2_300                157 11.8    0.233    0.246    4.783    5.368
 fft3d_ps                           245 12.7    2.386    2.528    4.011    4.612
 xc_rho_set_and_dset_create          14 10.0    0.018    0.019    3.753    4.108
 xc_functional_eval                  14 11.0    0.000    0.000    2.395    2.750
 pbe_lda_eval                        14 12.0    2.395    2.750    2.395    2.750
 calc_screening_functions             1 10.0    2.448    2.469    2.683    2.704
 qs_rho_update_rho                   15  5.0    0.000    0.000    2.051    2.051
 calculate_rho_elec                  15  6.0    0.024    0.026    2.051    2.051
 mp_alltoall_z22v                   245 14.7    1.199    1.891    1.199    1.891
 yz_to_x                            118 13.1    0.197    0.239    0.996    1.631
 density_rs2pw                       15  7.0    0.001    0.001    1.439    1.488
 sum_up_and_integrate                14  8.0    0.007    0.009    1.374    1.376
 integrate_v_rspace_low              14  9.0    0.215    0.331    1.367    1.370
 -------------------------------------------------------------------------------

 The number of warnings for this run is : 0
 
 -------------------------------------------------------------------------------
  **** **** ******  **  PROGRAM ENDED AT                 2020-12-04 21:10:16.189
 ***** ** ***  *** **   PROGRAM RAN ON                                   tcopt10
 **    ****   ******    PROGRAM RAN BY                                    hutter
 ***** **    ** ** **   PROGRAM PROCESS ID                                 57888
  **** **  *******  **  PROGRAM STOPPED IN /data/hutter/GITHUB/BASIS/MOLOPT/PBE0
                                           /Be
