 DBCSR| CPU Multiplication driver                                           XSMM
 DBCSR| Multrec recursion limit                                              512
 DBCSR| Multiplication stack size                                           1000
 DBCSR| Maximum elements for images                                    UNLIMITED
 DBCSR| Multiplicative factor virtual images                                   1
 DBCSR| Use multiplication densification                                       T
 DBCSR| Multiplication size stacks                                             3
 DBCSR| Use memory pool for CPU allocation                                     F
 DBCSR| Number of 3D layers                                               SINGLE
 DBCSR| Use MPI memory allocation                                              F
 DBCSR| Use RMA algorithm                                                      F
 DBCSR| Use Communication thread                                               T
 DBCSR| Communication thread load                                             87
 DBCSR| Split modifier for TAS multiplication algorithm                  1.0E+00


  **** **** ******  **  PROGRAM STARTED AT               2020-12-04 21:10:16.405
 ***** ** ***  *** **   PROGRAM STARTED ON                               tcopt10
 **    ****   ******    PROGRAM STARTED BY                                hutter
 ***** **    ** ** **   PROGRAM PROCESS ID                                 58041
  **** **  *******  **  PROGRAM STARTED IN /data/hutter/GITHUB/BASIS/MOLOPT/PBE0
                                           /Be

 CP2K| version string:                    CP2K version 8.0 (Development Version)
 CP2K| source code revision number:                                  git:afc71fa
 CP2K| cp2kflags: omp libint fftw3 libxc elpa parallel mpi3 scalapack xsmm spgli
 CP2K|            b sirius
 CP2K| is freely available from                            https://www.cp2k.org/
 CP2K| Program compiled at                          Tue Nov 17 10:27:14 CET 2020
 CP2K| Program compiled on                                               tcopt10
 CP2K| Program compiled for                                                local
 CP2K| Data directory path                 /data/hutter/GITHUB/CURRENT/cp2k/data
 CP2K| Input file name                                            BeC2H6-ref.inp

 GLOBAL| Force Environment number                                              1
 GLOBAL| Basis set file name                                  ../PBE0_UCSEGBASIS
 GLOBAL| Potential file name                                        ../POTENTIAL
 GLOBAL| MM Potential file name                                     MM_POTENTIAL
 GLOBAL| Coordinate file name                                      __STD_INPUT__
 GLOBAL| Method name                                                        CP2K
 GLOBAL| Project name                                                refBeC2H6q4
 GLOBAL| Preferred FFT library                                             FFTW3
 GLOBAL| Preferred diagonalization lib.                                     ELPA
 GLOBAL| Run type                                                         ENERGY
 GLOBAL| All-to-all communication in single precision                          F
 GLOBAL| FFTs using library dependent lengths                                  F
 GLOBAL| Global print level                                                  LOW
 GLOBAL| MPI I/O enabled                                                       T
 GLOBAL| Total number of message passing processes                            16
 GLOBAL| Number of threads for this process                                    1
 GLOBAL| This output is from process                                           0
 GLOBAL| CPU model name                          AMD EPYC 7401 24-Core Processor
 GLOBAL| CPUID                                                              1002

 MEMORY| system memory details [Kb]
 MEMORY|                        rank 0           min           max       average
 MEMORY| MemTotal            263987256     263987256     263987256     263987256
 MEMORY| MemFree             244254484     244254484     244254484     244254484
 MEMORY| Buffers                    32            32            32            32
 MEMORY| Cached               16292776      16292776      16292776      16292776
 MEMORY| Slab                  1370492       1370492       1370492       1370492
 MEMORY| SReclaimable           705456        705456        705456        705456
 MEMORY| MemLikelyFree       261252748     261252748     261252748     261252748


 GENERATE|  Preliminary Number of Bonds generated:                             0
 GENERATE|  Achieved consistency in connectivity generation.

 *******************************************************************************
 *******************************************************************************
 **                                                                           **
 **     #####                         ##              ##                      **
 **    ##   ##            ##          ##              ##                      **
 **   ##     ##                       ##            ######                    **
 **   ##     ##  ##   ##  ##   #####  ##  ##   ####   ##    #####    #####    **
 **   ##     ##  ##   ##  ##  ##      ## ##   ##      ##   ##   ##  ##   ##   **
 **   ##  ## ##  ##   ##  ##  ##      ####     ###    ##   ######   ######    **
 **    ##  ###   ##   ##  ##  ##      ## ##      ##   ##   ##       ##        **
 **     #######   #####   ##   #####  ##  ##  ####    ##    #####   ##        **
 **           ##                                                    ##        **
 **                                                                           **
 **                                                ... make the atoms dance   **
 **                                                                           **
 **            Copyright (C) by CP2K developers group (2000 - 2020)           **
 **                      J. Chem. Phys. 152, 194103 (2020)                    **
 **                                                                           **
 *******************************************************************************


 TOTAL NUMBERS AND MAXIMUM NUMBERS

  Total number of            - Atomic kinds:                                   3
                             - Atoms:                                          9
                             - Shell sets:                                   112
                             - Shells:                                       204
                             - Primitive Cartesian functions:                112
                             - Cartesian basis functions:                    940
                             - Spherical basis functions:                    740

  Maximum angular momentum of- Orbital basis functions:                        4
                             - Local part of the GTH pseudopotential:          6
                             - Non-local part of the GTH pseudopotential:      0


 SCF PARAMETERS         Density guess:                                    ATOMIC
                        --------------------------------------------------------
                        max_scf:                                              10
                        max_scf_history:                                       0
                        max_diis:                                              4
                        --------------------------------------------------------
                        eps_scf:                                        1.00E-07
                        eps_scf_history:                                0.00E+00
                        eps_diis:                                       1.00E-01
                        eps_eigval:                                     1.00E-05
                        --------------------------------------------------------
                        level_shift [a.u.]:                                 0.00
                        --------------------------------------------------------
                        Outer loop SCF in use 
                        No variables optimised in outer loop
                        eps_scf                                         1.00E-07
                        max_scf                                               10
                        No outer loop optimization
                        step_size                                       5.00E-01

 Number of electrons:                                                         18
 Number of occupied orbitals:                                                  9
 Number of molecular orbitals:                                                 9

 Number of orbital functions:                                                740
 Number of independent orbital functions:                                    740

 Extrapolation method: initial_guess


 SCF WAVEFUNCTION OPTIMIZATION

  ----------------------------------- OT ---------------------------------------
  Minimizer      : DIIS                : direct inversion
                                         in the iterative subspace
                                         using   7 DIIS vectors
                                         safer DIIS on
  Preconditioner : FULL_ALL            : diagonalization, state selective
  Precond_solver : DEFAULT
  stepsize       :    0.15000000                  energy_gap     :    0.08000000
  eps_taylor     :   0.10000E-15                  max_taylor     :             4
  ----------------------------------- OT ---------------------------------------

  Step     Update method      Time    Convergence         Total energy    Change
  ------------------------------------------------------------------------------
     1 OT DIIS     0.15E+00  213.1     0.05213674       -27.9832544119 -2.80E+01
     2 OT DIIS     0.15E+00   98.8     0.02239954       -29.4161184271 -1.43E+00
     3 OT DIIS     0.15E+00   98.8     0.00978773       -29.5747184906 -1.59E-01
     4 OT DIIS     0.15E+00   98.8     0.00247511       -29.6108851233 -3.62E-02
     5 OT DIIS     0.15E+00   98.7     0.00111412       -29.6135429144 -2.66E-03
     6 OT DIIS     0.15E+00   98.7     0.00043252       -29.6141891834 -6.46E-04
     7 OT DIIS     0.15E+00   98.6     0.00013626       -29.6142814248 -9.22E-05
     8 OT DIIS     0.15E+00  100.3     0.00005989       -29.6142912353 -9.81E-06
     9 OT DIIS     0.15E+00  100.1     0.00001831       -29.6142934938 -2.26E-06
    10 OT DIIS     0.15E+00   98.5     0.00000727       -29.6142938065 -3.13E-07

  Leaving inner SCF loop after reaching    10 steps.


  Electronic density on regular grids:        -17.9999999914        0.0000000086
  Core density on regular grids:               18.0000000000        0.0000000000
  Total charge density on r-space grids:        0.0000000086
  Total charge density g-space grids:           0.0000000086

  Overlap energy of the core charge distribution:               0.00000112315542
  Self energy of the core charge distribution:                -48.86382605578373
  Core Hamiltonian energy:                                     11.60945911652478
  Hartree energy:                                              16.07955710625907
  Exchange-correlation energy:                                 -6.45885958331798
  Hartree-Fock Exchange energy:                                -1.98062551333825

  Total energy:                                               -29.61429380650068

  outer SCF iter =    1 RMS gradient =   0.73E-05 energy =        -29.6142938065

  ----------------------------------- OT ---------------------------------------
  Minimizer      : DIIS                : direct inversion
                                         in the iterative subspace
                                         using   7 DIIS vectors
                                         safer DIIS on
  Preconditioner : FULL_ALL            : diagonalization, state selective
  Precond_solver : DEFAULT
  stepsize       :    0.15000000                  energy_gap     :    0.08000000
  eps_taylor     :   0.10000E-15                  max_taylor     :             4
  ----------------------------------- OT ---------------------------------------

  Step     Update method      Time    Convergence         Total energy    Change
  ------------------------------------------------------------------------------
     1 OT DIIS     0.15E+00  197.1     0.00000283       -29.6142938619 -5.54E-08
     2 OT DIIS     0.15E+00   98.4     0.00000119       -29.6142938670 -5.09E-09
     3 OT DIIS     0.15E+00   98.4     0.00000046       -29.6142938680 -1.03E-09
     4 OT DIIS     0.15E+00   98.3     0.00000003       -29.6142938682 -1.75E-10

  *** SCF run converged in     4 steps ***


  Electronic density on regular grids:        -17.9999999914        0.0000000086
  Core density on regular grids:               18.0000000000        0.0000000000
  Total charge density on r-space grids:        0.0000000086
  Total charge density g-space grids:           0.0000000086

  Overlap energy of the core charge distribution:               0.00000112315542
  Self energy of the core charge distribution:                -48.86382605578373
  Core Hamiltonian energy:                                     11.60948892038305
  Hartree energy:                                              16.07953268472524
  Exchange-correlation energy:                                 -6.45886400332880
  Hartree-Fock Exchange energy:                                -1.98062653733205

  Total energy:                                               -29.61429386818086

  outer SCF iter =    2 RMS gradient =   0.30E-07 energy =        -29.6142938682
  outer SCF loop converged in   2 iterations or   14 steps


 ENERGY| Total FORCE_EVAL ( QS ) energy [a.u.]:              -29.614293868180859

 -------------------------------------------------------------------------------
 -                                                                             -
 -                                DBCSR STATISTICS                             -
 -                                                                             -
 -------------------------------------------------------------------------------
 COUNTER                                    TOTAL       BLAS       SMM       ACC
 flops     9 x     9 x     9               128304       0.0%    100.0%      0.0%
 flops     9 x     9 x   168              1578528       0.0%    100.0%      0.0%
 flops     9 x     9 x   204              1916784       0.0%    100.0%      0.0%
 flops   168 x     9 x     9              1959552       0.0%    100.0%      0.0%
 flops   204 x     9 x     9              2379456       0.0%    100.0%      0.0%
 flops   100 x   100 x     9              2700000       0.0%    100.0%      0.0%
 flops   100 x   116 x     9              3132000       0.0%    100.0%      0.0%
 flops   116 x   100 x     9              3132000       0.0%    100.0%      0.0%
 flops     9 x     9 x   184              3457728       0.0%    100.0%      0.0%
 flops   184 x     9 x     9              4292352       0.0%    100.0%      0.0%
 flops   100 x    68 x     9              5508000       0.0%    100.0%      0.0%
 flops    68 x   100 x     9              5508000       0.0%    100.0%      0.0%
 flops   100 x     9 x   100              7560000       0.0%    100.0%      0.0%
 flops   116 x   116 x     9             10899360       0.0%    100.0%      0.0%
 flops   116 x    68 x     9             12778560       0.0%    100.0%      0.0%
 flops    68 x   116 x     9             12778560       0.0%    100.0%      0.0%
 flops   168 x     9 x   168             16257024       0.0%    100.0%      0.0%
 flops   116 x     9 x   100             17539200       0.0%    100.0%      0.0%
 flops   100 x     9 x   116             17539200       0.0%    100.0%      0.0%
 flops   168 x     9 x   204             19740672       0.0%    100.0%      0.0%
 flops   204 x     9 x   168             19740672       0.0%    100.0%      0.0%
 flops   204 x     9 x   204             23970816       0.0%    100.0%      0.0%
 flops    68 x    68 x     9             26218080       0.0%    100.0%      0.0%
 flops    68 x     9 x   100             30844800       0.0%    100.0%      0.0%
 flops   100 x     9 x    68             30844800       0.0%    100.0%      0.0%
 flops   184 x     9 x   168             35610624       0.0%    100.0%      0.0%
 flops   168 x     9 x   184             35610624       0.0%    100.0%      0.0%
 flops   116 x     9 x   116             40690944       0.0%    100.0%      0.0%
 flops   184 x     9 x   204             43241472       0.0%    100.0%      0.0%
 flops   204 x     9 x   184             43241472       0.0%    100.0%      0.0%
 flops   116 x     9 x    68             71559936       0.0%    100.0%      0.0%
 flops    68 x     9 x   116             71559936       0.0%    100.0%      0.0%
 flops   184 x     9 x   184             78004224       0.0%    100.0%      0.0%
 flops    68 x     9 x    68            125846784       0.0%    100.0%      0.0%
 flops inhomo. stacks                           0       0.0%      0.0%      0.0%
 flops total                       827.770464E+06       0.0%    100.0%      0.0%
 flops max/rank                    208.966176E+06       0.0%    100.0%      0.0%
 matmuls inhomo. stacks                         0       0.0%      0.0%      0.0%
 matmuls total                               5197       0.0%    100.0%      0.0%
 number of processed stacks                  3688       0.0%    100.0%      0.0%
 average stack size                                     0.0       1.4       0.0
 marketing flops                   893.207296E+06
 -------------------------------------------------------------------------------
 # multiplications                            309
 max memory usage/rank               7.358140E+09
 # max total images/rank                        1
 # max 3D layers                                1
 # MPI messages exchanged                   29664
 MPI messages size (bytes):
  total size                         1.019693E+09
  min size                           0.000000E+00
  max size                         332.928000E+03
  average size                      34.374762E+03
 MPI breakdown and total messages size (bytes):
             size <=      128               21864                        0
       128 < size <=     8192                 744                   482112
      8192 < size <=    32768                3504                 46673280
     32768 < size <=   131072                   0                        0
    131072 < size <=  4194304                3552                972537600
   4194304 < size <= 16777216                   0                        0
  16777216 < size                               0                        0
 -------------------------------------------------------------------------------
 -                                                                             -
 -                      DBCSR MESSAGE PASSING PERFORMANCE                      -
 -                                                                             -
 -------------------------------------------------------------------------------
 ROUTINE             CALLS      AVE VOLUME [Bytes]
 MP_Bcast               35                     12.
 MP_Allreduce         1704                      9.
 MP_Alltoall          1386                   7263.
 MP_ISend             4936                  14575.
 MP_IRecv             4936                  13870.
 -------------------------------------------------------------------------------

 -------------------------------------------------------------------------------
 -                                                                             -
 -                                GRID STATISTICS                              -
 -                                                                             -
 -------------------------------------------------------------------------------
 LP    KERNEL    OPERATION                                     COUNT     PERCENT
 0     general   collocate                                       144       0.08%
 0     ortho     integrate                                     23156      12.36%
 0     ortho     collocate                                     24810      13.24%
 1     ortho     integrate                                     11424       6.10%
 1     ortho     collocate                                     12240       6.53%
 2     ortho     integrate                                      2506       1.34%
 2     ortho     collocate                                      2685       1.43%
 3     ortho     integrate                                     26712      14.26%
 3     ortho     collocate                                     28620      15.27%
 4     ortho     integrate                                     12712       6.78%
 4     ortho     collocate                                     13620       7.27%
 5     ortho     integrate                                      2660       1.42%
 5     ortho     collocate                                      2850       1.52%
 6     ortho     integrate                                      7182       3.83%
 6     ortho     collocate                                      7695       4.11%
 7     ortho     integrate                                      3360       1.79%
 7     ortho     collocate                                      3600       1.92%
 8     ortho     integrate                                       672       0.36%
 8     ortho     collocate                                       720       0.38%
 -------------------------------------------------------------------------------

 MEMORY| Estimated peak process memory [MiB]                                7018

 -------------------------------------------------------------------------------
 -                                                                             -
 -                         MESSAGE PASSING PERFORMANCE                         -
 -                                                                             -
 -------------------------------------------------------------------------------

 ROUTINE             CALLS      AVE VOLUME [Bytes]
 MP_Group                5
 MP_Bcast              280                 892381.
 MP_Allreduce          776                   1805.
 MP_Sync                91
 MP_Alltoall           286               13623344.
 MP_ISendRecv         1755                 251298.
 MP_Wait              2445
 MP_comm_split          14
 MP_ISend              600                 762336.
 MP_IRecv              600                 762120.
 MP_Recv                 2                  17760.
 -------------------------------------------------------------------------------


 -------------------------------------------------------------------------------
 -                                                                             -
 -                           R E F E R E N C E S                               -
 -                                                                             -
 -------------------------------------------------------------------------------
 
 CP2K version 8.0 (Development Version), the CP2K developers group (2020).
 CP2K is freely available from https://www.cp2k.org/ .

 Kuehne,Thomas D.; Iannuzzi,Marcella; Del Ben,Mauro;
 Rybkin,Vladimir V.; Seewald,Patrick; Stein,Frederick; Laino,Teodoro;
 Khaliullin,Rustam Z.; Schuett,Ole; Schiffmann,Florian; Golze,Dorothea;
 Wilhelm,Jan; Chulkov,Sergey; Bani-Hashemian,Mohammad Hossein;
 Weber,Valery; Borstnik,Urban; Taillefumier,Mathieu;
 Jakobovits,Alice Shoshana; Lazzaro,Alfio; Pabst,Hans; Mueller,Tiziano;
 Schade,Robert; Guidon,Manuel; Andermatt,Samuel; Holmberg,Nico;
 Schenter,Gregory K.; Hehn,Anna; Bussy,Augustin; Belleflamme,Fabian;
 Tabacchi,Gloria; Gloess,Andreas; Lass,Michael; Bethune,Iain;
 Mundy,Christopher J.; Plessl,Christian; Watkins,Matt;
 VandeVondele,Joost; Krack,Matthias; Hutter,Juerg. 
 The Journal of Chemical Physics, 152 (19), (2020). 
 CP2K: An electronic structure and molecular dynamics software package -
 Quickstep: Efficient and accurate electronic structure calculations.
 https://doi.org/10.1063/5.0007045

 Schuett, Ole; Messmer, Peter; Hutter, Juerg; VandeVondele, Joost. 
 Electronic Structure Calculations on Graphics Processing Units, John
 Wiley & Sons, Ltd, 173-190 (2016). 
 GPU-Accelerated Sparse Matrix-Matrix Multiplication for
 Linear Scaling Density Functional Theory.
 https://doi.org/10.1002/9781118670712.ch8

 Borstnik, U; VandeVondele, J; Weber, V; Hutter, J. 
 PARALLEL COMPUTING, 40 (5-6), 47-58 (2014). 
 Sparse matrix multiplication: The distributed block-compressed sparse
 row library.
 https://doi.org/10.1016/j.parco.2014.03.012

 Hutter, J; Iannuzzi, M; Schiffmann, F; VandeVondele, J. 
 WIREs Comput Mol Sci., 4 (1), 15-25 (2014). 
 CP2K: atomistic simulations of condensed matter systems.
 https://doi.org/10.1002/wcms.1159

 Marek, A; Blum, V; Johanni, R; Havu, V; Lang, B; Auckenthaler, T;
 Heinecke, A; Bungartz, H; Lederer, H. 
 Journal of Physics: Condensed Matter, 26 (21), (2014). 
 The ELPA library: scalable parallel eigenvalue solutions for
 electronic structure
 theory and computational science.
 https://doi.org/10.1088/0953-8984/26/21/213201

 Guidon, M; Hutter, J; VandeVondele, J. 
 JOURNAL OF CHEMICAL THEORY AND COMPUTATION, 5 (11), 3010-3021 (2009). 
 Robust Periodic Hartree-Fock Exchange for Large-Scale Simulations Using
 Gaussian Basis Sets.
 https://doi.org/10.1021/ct900494g

 Guidon, M; Schiffmann, F; Hutter, J; VandeVondele, J. 
 JOURNAL OF CHEMICAL PHYSICS, 128 (21), 214104 (2008). 
 Ab initio molecular dynamics using hybrid density functionals.
 https://doi.org/10.1063/1.2931945

 Krack, M. 
 THEORETICAL CHEMISTRY ACCOUNTS, 114 (1-3), 145-152 (2005). 
 Pseudopotentials for H to Kr optimized for gradient-corrected
 exchange-correlation functionals.
 https://doi.org/10.1007/s00214-005-0655-y

 VandeVondele, J; Krack, M; Mohamed, F; Parrinello, M; Chassaing, T;
 Hutter, J. COMPUTER PHYSICS COMMUNICATIONS, 167 (2), 103-128 (2005). 
 QUICKSTEP: Fast and accurate density functional calculations using a
 mixed Gaussian and plane waves approach.
 https://doi.org/10.1016/j.cpc.2004.12.014

 Frigo, M; Johnson, SG. 
 PROCEEDINGS OF THE IEEE, 93 (2), 216-231 (2005). 
 The design and implementation of FFTW3.
 https://doi.org/10.1109/JPROC.2004.840301

 VandeVondele, J; Hutter, J. 
 JOURNAL OF CHEMICAL PHYSICS, 118 (10), 4365-4369 (2003). 
 An efficient orbital transformation method for electronic structure
 calculations.
 https://doi.org/10.1063/1.1543154

 Martyna, GJ; Tuckerman, ME. 
 JOURNAL OF CHEMICAL PHYSICS, 110 (6), 2810-2821 (1999). 
 A reciprocal space based method for treating long range interactions in
 ab initio and force-field-based calculations in clusters.
 https://doi.org/10.1063/1.477923

 Hartwigsen, C; Goedecker, S; Hutter, J. 
 PHYSICAL REVIEW B, 58 (7), 3641-3662 (1998). 
 Relativistic separable dual-space Gaussian pseudopotentials from H to Rn.
 https://doi.org/10.1103/PhysRevB.58.3641

 Lippert, G; Hutter, J; Parrinello, M. 
 MOLECULAR PHYSICS, 92 (3), 477-487 (1997). 
 A hybrid Gaussian and plane wave density functional scheme.
 https://doi.org/10.1080/002689797170220

 Perdew, JP; Burke, K; Ernzerhof, M. 
 PHYSICAL REVIEW LETTERS, 77 (18), 3865-3868 (1996). 
 Generalized gradient approximation made simple.
 https://doi.org/10.1103/PhysRevLett.77.3865

 Goedecker, S; Teter, M; Hutter, J. 
 PHYSICAL REVIEW B, 54 (3), 1703-1710 (1996). 
 Separable dual-space Gaussian pseudopotentials.
 https://doi.org/10.1103/PhysRevB.54.1703


 -------------------------------------------------------------------------------
 -                                                                             -
 -                                T I M I N G                                  -
 -                                                                             -
 -------------------------------------------------------------------------------
 SUBROUTINE                       CALLS  ASD         SELF TIME        TOTAL TIME
                                MAXIMUM       AVERAGE  MAXIMUM  AVERAGE  MAXIMUM
 CP2K                                 1  1.0    0.824    0.879 1499.887 1500.208
 qs_energies                          1  2.0    0.000    0.000 1498.585 1498.906
 scf_env_do_scf                       1  3.0    0.000    0.000 1498.271 1498.593
 qs_ks_update_qs_env                 16  5.0    0.000    0.000 1495.194 1495.514
 rebuild_ks_matrix                   14  6.0    0.000    0.000 1495.191 1495.511
 qs_ks_build_kohn_sham_matrix        14  7.0    0.003    0.003 1495.191 1495.511
 hfx_ks_matrix                       14  8.0    0.001    0.001 1486.557 1486.876
 integrate_four_center               14  9.0    0.016    0.019 1486.555 1486.873
 integrate_four_center_main          14 10.0    0.005    0.006 1400.253 1446.999
 integrate_four_center_bin         1246 11.0 1400.248 1446.995 1400.248 1446.995
 scf_env_do_scf_inner_loop           14  4.0    0.001    0.001 1186.802 1187.057
 init_scf_loop                        2  4.0    0.000    0.000  311.468  311.535
 mp_sync                             91 10.8   46.790  117.261   46.790  117.261
 calc_screening_functions             1 10.0   33.790   33.902   35.408   35.519
 -------------------------------------------------------------------------------

 The number of warnings for this run is : 0
 
 -------------------------------------------------------------------------------
  **** **** ******  **  PROGRAM ENDED AT                 2020-12-04 21:35:16.899
 ***** ** ***  *** **   PROGRAM RAN ON                                   tcopt10
 **    ****   ******    PROGRAM RAN BY                                    hutter
 ***** **    ** ** **   PROGRAM PROCESS ID                                 58041
  **** **  *******  **  PROGRAM STOPPED IN /data/hutter/GITHUB/BASIS/MOLOPT/PBE0
                                           /Be
