 DBCSR| CPU Multiplication driver                                           XSMM
 DBCSR| Multrec recursion limit                                              512
 DBCSR| Multiplication stack size                                           1000
 DBCSR| Maximum elements for images                                    UNLIMITED
 DBCSR| Multiplicative factor virtual images                                   1
 DBCSR| Use multiplication densification                                       T
 DBCSR| Multiplication size stacks                                             3
 DBCSR| Use memory pool for CPU allocation                                     F
 DBCSR| Number of 3D layers                                               SINGLE
 DBCSR| Use MPI memory allocation                                              F
 DBCSR| Use RMA algorithm                                                      F
 DBCSR| Use Communication thread                                               T
 DBCSR| Communication thread load                                             87
 DBCSR| Split modifier for TAS multiplication algorithm                  1.0E+00


  **** **** ******  **  PROGRAM STARTED AT               2020-12-05 12:11:28.875
 ***** ** ***  *** **   PROGRAM STARTED ON                               tcopt10
 **    ****   ******    PROGRAM STARTED BY                                hutter
 ***** **    ** ** **   PROGRAM PROCESS ID                                 64384
  **** **  *******  **  PROGRAM STARTED IN /data/hutter/GITHUB/BASIS/MOLOPT/PBE0
                                           /Be

 CP2K| version string:                    CP2K version 8.0 (Development Version)
 CP2K| source code revision number:                                  git:afc71fa
 CP2K| cp2kflags: omp libint fftw3 libxc elpa parallel mpi3 scalapack xsmm spgli
 CP2K|            b sirius
 CP2K| is freely available from                            https://www.cp2k.org/
 CP2K| Program compiled at                          Tue Nov 17 10:27:14 CET 2020
 CP2K| Program compiled on                                               tcopt10
 CP2K| Program compiled for                                                local
 CP2K| Data directory path                 /data/hutter/GITHUB/CURRENT/cp2k/data
 CP2K| Input file name                                              BeH2-ref.inp

 GLOBAL| Force Environment number                                              1
 GLOBAL| Basis set file name                                  ../PBE0_UCSEGBASIS
 GLOBAL| Potential file name                                        ../POTENTIAL
 GLOBAL| MM Potential file name                                     MM_POTENTIAL
 GLOBAL| Coordinate file name                                      __STD_INPUT__
 GLOBAL| Method name                                                        CP2K
 GLOBAL| Project name                                                  refBeH2q4
 GLOBAL| Preferred FFT library                                             FFTW3
 GLOBAL| Preferred diagonalization lib.                                     ELPA
 GLOBAL| Run type                                                         ENERGY
 GLOBAL| All-to-all communication in single precision                          F
 GLOBAL| FFTs using library dependent lengths                                  F
 GLOBAL| Global print level                                                  LOW
 GLOBAL| MPI I/O enabled                                                       T
 GLOBAL| Total number of message passing processes                            16
 GLOBAL| Number of threads for this process                                    1
 GLOBAL| This output is from process                                           0
 GLOBAL| CPU model name                          AMD EPYC 7401 24-Core Processor
 GLOBAL| CPUID                                                              1002

 MEMORY| system memory details [Kb]
 MEMORY|                        rank 0           min           max       average
 MEMORY| MemTotal            263987256     263987256     263987256     263987256
 MEMORY| MemFree             244192516     244192516     244192516     244192516
 MEMORY| Buffers                    32            32            32            32
 MEMORY| Cached               16362436      16362436      16362436      16362436
 MEMORY| Slab                  1366968       1366968       1366968       1366968
 MEMORY| SReclaimable           704640        704640        704640        704640
 MEMORY| MemLikelyFree       261259624     261259624     261259624     261259624


 GENERATE|  Preliminary Number of Bonds generated:                             1
 GENERATE|  Achieved consistency in connectivity generation.
 GENERATE|  Number of Bonds generated:                                         1
 GENERATE|  Preliminary Number of Bends generated:                             0
 GENERATE|  Preliminary Number of Torsions generated:                          0

 *******************************************************************************
 *******************************************************************************
 **                                                                           **
 **     #####                         ##              ##                      **
 **    ##   ##            ##          ##              ##                      **
 **   ##     ##                       ##            ######                    **
 **   ##     ##  ##   ##  ##   #####  ##  ##   ####   ##    #####    #####    **
 **   ##     ##  ##   ##  ##  ##      ## ##   ##      ##   ##   ##  ##   ##   **
 **   ##  ## ##  ##   ##  ##  ##      ####     ###    ##   ######   ######    **
 **    ##  ###   ##   ##  ##  ##      ## ##      ##   ##   ##       ##        **
 **     #######   #####   ##   #####  ##  ##  ####    ##    #####   ##        **
 **           ##                                                    ##        **
 **                                                                           **
 **                                                ... make the atoms dance   **
 **                                                                           **
 **            Copyright (C) by CP2K developers group (2000 - 2020)           **
 **                      J. Chem. Phys. 152, 194103 (2020)                    **
 **                                                                           **
 *******************************************************************************


 TOTAL NUMBERS AND MAXIMUM NUMBERS

  Total number of            - Atomic kinds:                                   2
                             - Atoms:                                          3
                             - Shell sets:                                    40
                             - Shells:                                        68
                             - Primitive Cartesian functions:                 40
                             - Cartesian basis functions:                    292
                             - Spherical basis functions:                    236

  Maximum angular momentum of- Orbital basis functions:                        3
                             - Local part of the GTH pseudopotential:          6


 SCF PARAMETERS         Density guess:                                    ATOMIC
                        --------------------------------------------------------
                        max_scf:                                              10
                        max_scf_history:                                       0
                        max_diis:                                              4
                        --------------------------------------------------------
                        eps_scf:                                        1.00E-07
                        eps_scf_history:                                0.00E+00
                        eps_diis:                                       1.00E-01
                        eps_eigval:                                     1.00E-05
                        --------------------------------------------------------
                        level_shift [a.u.]:                                 0.00
                        --------------------------------------------------------
                        Outer loop SCF in use 
                        No variables optimised in outer loop
                        eps_scf                                         1.00E-07
                        max_scf                                               10
                        No outer loop optimization
                        step_size                                       5.00E-01

 Number of electrons:                                                          6
 Number of occupied orbitals:                                                  3
 Number of molecular orbitals:                                                 3

 Number of orbital functions:                                                236
 Number of independent orbital functions:                                    236

 Extrapolation method: initial_guess


 SCF WAVEFUNCTION OPTIMIZATION

  ----------------------------------- OT ---------------------------------------
  Minimizer      : DIIS                : direct inversion
                                         in the iterative subspace
                                         using   7 DIIS vectors
                                         safer DIIS on
  Preconditioner : FULL_ALL            : diagonalization, state selective
  Precond_solver : DEFAULT
  stepsize       :    0.15000000                  energy_gap     :    0.08000000
  eps_taylor     :   0.10000E-15                  max_taylor     :             4
  ----------------------------------- OT ---------------------------------------

  Step     Update method      Time    Convergence         Total energy    Change
  ------------------------------------------------------------------------------
     1 OT DIIS     0.15E+00   12.2     0.17098534       -13.8864966196 -1.39E+01
     2 OT DIIS     0.15E+00    1.2     0.03621173       -15.6914891780 -1.80E+00
     3 OT DIIS     0.15E+00    1.1     0.00962411       -15.7800625424 -8.86E-02
     4 OT DIIS     0.15E+00    1.2     0.00487615       -15.7879960972 -7.93E-03
     5 OT DIIS     0.15E+00    1.1     0.00163784       -15.7908418782 -2.85E-03
     6 OT DIIS     0.15E+00    1.2     0.00053960       -15.7911909934 -3.49E-04
     7 OT DIIS     0.15E+00    1.2     0.00017543       -15.7912236862 -3.27E-05
     8 OT DIIS     0.15E+00    1.2     0.00004682       -15.7912263515 -2.67E-06
     9 OT DIIS     0.15E+00    1.2     0.00001020       -15.7912266158 -2.64E-07
    10 OT DIIS     0.15E+00    1.1     0.00000396       -15.7912266272 -1.14E-08

  Leaving inner SCF loop after reaching    10 steps.


  Electronic density on regular grids:         -6.0000000088       -0.0000000088
  Core density on regular grids:                6.0000000000        0.0000000000
  Total charge density on r-space grids:       -0.0000000088
  Total charge density g-space grids:          -0.0000000088

  Overlap energy of the core charge distribution:               0.00000000009130
  Self energy of the core charge distribution:                -16.69766060870998
  Core Hamiltonian energy:                                      1.29830273532730
  Hartree energy:                                               3.07962593305681
  Exchange-correlation energy:                                 -2.62737996698065
  Hartree-Fock Exchange energy:                                -0.84411471995350

  Total energy:                                               -15.79122662716872

  outer SCF iter =    1 RMS gradient =   0.40E-05 energy =        -15.7912266272

  ----------------------------------- OT ---------------------------------------
  Minimizer      : DIIS                : direct inversion
                                         in the iterative subspace
                                         using   7 DIIS vectors
                                         safer DIIS on
  Preconditioner : FULL_ALL            : diagonalization, state selective
  Precond_solver : DEFAULT
  stepsize       :    0.15000000                  energy_gap     :    0.08000000
  eps_taylor     :   0.10000E-15                  max_taylor     :             4
  ----------------------------------- OT ---------------------------------------

  Step     Update method      Time    Convergence         Total energy    Change
  ------------------------------------------------------------------------------
     1 OT DIIS     0.15E+00    2.4     0.00000132       -15.7912266290 -1.84E-09
     2 OT DIIS     0.15E+00    1.1     0.00000059       -15.7912266291 -1.33E-10
     3 OT DIIS     0.15E+00    1.1     0.00000003       -15.7912266292 -3.35E-11

  *** SCF run converged in     3 steps ***


  Electronic density on regular grids:         -6.0000000088       -0.0000000088
  Core density on regular grids:                6.0000000000        0.0000000000
  Total charge density on r-space grids:       -0.0000000088
  Total charge density g-space grids:          -0.0000000088

  Overlap energy of the core charge distribution:               0.00000000009130
  Self energy of the core charge distribution:                -16.69766060870998
  Core Hamiltonian energy:                                      1.29830565113357
  Hartree energy:                                               3.07962678086550
  Exchange-correlation energy:                                 -2.62738259570262
  Hartree-Fock Exchange energy:                                -0.84411585684951

  Total energy:                                               -15.79122662917174

  outer SCF iter =    2 RMS gradient =   0.32E-07 energy =        -15.7912266292
  outer SCF loop converged in   2 iterations or   13 steps


 ENERGY| Total FORCE_EVAL ( QS ) energy [a.u.]:              -15.791226629171742

 -------------------------------------------------------------------------------
 -                                                                             -
 -                                DBCSR STATISTICS                             -
 -                                                                             -
 -------------------------------------------------------------------------------
 COUNTER                                    TOTAL       BLAS       SMM       ACC
 flops     3 x     3 x     3                 4698       0.0%    100.0%      0.0%
 flops     3 x     3 x   100                97200       0.0%    100.0%      0.0%
 flops   100 x     3 x     3               120600       0.0%    100.0%      0.0%
 flops     3 x     3 x    68               132192       0.0%    100.0%      0.0%
 flops    68 x     3 x     3               164016       0.0%    100.0%      0.0%
 flops    68 x   100 x     3               571200       0.0%    100.0%      0.0%
 flops   100 x    68 x     3               571200       0.0%    100.0%      0.0%
 flops   100 x   100 x     3               840000       0.0%    100.0%      0.0%
 flops    68 x    68 x     3              1165248       0.0%    100.0%      0.0%
 flops   100 x     3 x   100              4200000       0.0%    100.0%      0.0%
 flops   100 x     3 x    68              5712000       0.0%    100.0%      0.0%
 flops    68 x     3 x   100              5712000       0.0%    100.0%      0.0%
 flops    68 x     3 x    68              7768320       0.0%    100.0%      0.0%
 flops inhomo. stacks                           0       0.0%      0.0%      0.0%
 flops total                        27.058674E+06       0.0%    100.0%      0.0%
 flops max/rank                     11.106690E+06       0.0%    100.0%      0.0%
 matmuls inhomo. stacks                         0       0.0%      0.0%      0.0%
 matmuls total                               1164       0.0%    100.0%      0.0%
 number of processed stacks                  1164       0.0%    100.0%      0.0%
 average stack size                                     0.0       1.0       0.0
 marketing flops                    28.597986E+06
 -------------------------------------------------------------------------------
 # multiplications                            294
 max memory usage/rank             952.905728E+06
 # max total images/rank                        1
 # max 3D layers                                1
 # MPI messages exchanged                   28224
 MPI messages size (bytes):
  total size                        98.260152E+06
  min size                           0.000000E+00
  max size                          80.000000E+03
  average size                       3.481440E+03
 MPI breakdown and total messages size (bytes):
             size <=      128               23877                    52056
       128 < size <=     8192                2457                  4638816
      8192 < size <=    32768                   0                        0
     32768 < size <=   131072                1890                 93569280
    131072 < size <=  4194304                   0                        0
   4194304 < size <= 16777216                   0                        0
  16777216 < size                               0                        0
 -------------------------------------------------------------------------------
 -                                                                             -
 -                      DBCSR MESSAGE PASSING PERFORMANCE                      -
 -                                                                             -
 -------------------------------------------------------------------------------
 ROUTINE             CALLS      AVE VOLUME [Bytes]
 MP_Bcast               14                     12.
 MP_Allreduce         1580                      8.
 MP_Alltoall          1342                   2204.
 MP_ISend             4696                   2262.
 MP_IRecv             4696                   1798.
 -------------------------------------------------------------------------------

 -------------------------------------------------------------------------------
 -                                                                             -
 -                                GRID STATISTICS                              -
 -                                                                             -
 -------------------------------------------------------------------------------
 LP    KERNEL    OPERATION                                     COUNT     PERCENT
 0     general   collocate                                        48       0.17%
 0     ortho     integrate                                      5694      19.90%
 0     ortho     collocate                                      6132      21.43%
 3     ortho     integrate                                      6344      22.17%
 3     ortho     collocate                                      6832      23.88%
 6     ortho     integrate                                      1716       6.00%
 6     ortho     collocate                                      1848       6.46%
 -------------------------------------------------------------------------------

 MEMORY| Estimated peak process memory [MiB]                                 909

 -------------------------------------------------------------------------------
 -                                                                             -
 -                         MESSAGE PASSING PERFORMANCE                         -
 -                                                                             -
 -------------------------------------------------------------------------------

 ROUTINE             CALLS      AVE VOLUME [Bytes]
 MP_Group                5
 MP_Bcast              158                 985942.
 MP_Allreduce          506                   2736.
 MP_Sync                86
 MP_Alltoall           267               13541523.
 MP_ISendRecv         1635                 217140.
 MP_Wait              2279
 MP_comm_split          14
 MP_ISend              560                 732968.
 MP_IRecv              560                 732736.
 MP_Recv                 2                   1888.
 -------------------------------------------------------------------------------


 -------------------------------------------------------------------------------
 -                                                                             -
 -                           R E F E R E N C E S                               -
 -                                                                             -
 -------------------------------------------------------------------------------
 
 CP2K version 8.0 (Development Version), the CP2K developers group (2020).
 CP2K is freely available from https://www.cp2k.org/ .

 Kuehne,Thomas D.; Iannuzzi,Marcella; Del Ben,Mauro;
 Rybkin,Vladimir V.; Seewald,Patrick; Stein,Frederick; Laino,Teodoro;
 Khaliullin,Rustam Z.; Schuett,Ole; Schiffmann,Florian; Golze,Dorothea;
 Wilhelm,Jan; Chulkov,Sergey; Bani-Hashemian,Mohammad Hossein;
 Weber,Valery; Borstnik,Urban; Taillefumier,Mathieu;
 Jakobovits,Alice Shoshana; Lazzaro,Alfio; Pabst,Hans; Mueller,Tiziano;
 Schade,Robert; Guidon,Manuel; Andermatt,Samuel; Holmberg,Nico;
 Schenter,Gregory K.; Hehn,Anna; Bussy,Augustin; Belleflamme,Fabian;
 Tabacchi,Gloria; Gloess,Andreas; Lass,Michael; Bethune,Iain;
 Mundy,Christopher J.; Plessl,Christian; Watkins,Matt;
 VandeVondele,Joost; Krack,Matthias; Hutter,Juerg. 
 The Journal of Chemical Physics, 152 (19), (2020). 
 CP2K: An electronic structure and molecular dynamics software package -
 Quickstep: Efficient and accurate electronic structure calculations.
 https://doi.org/10.1063/5.0007045

 Schuett, Ole; Messmer, Peter; Hutter, Juerg; VandeVondele, Joost. 
 Electronic Structure Calculations on Graphics Processing Units, John
 Wiley & Sons, Ltd, 173-190 (2016). 
 GPU-Accelerated Sparse Matrix-Matrix Multiplication for
 Linear Scaling Density Functional Theory.
 https://doi.org/10.1002/9781118670712.ch8

 Borstnik, U; VandeVondele, J; Weber, V; Hutter, J. 
 PARALLEL COMPUTING, 40 (5-6), 47-58 (2014). 
 Sparse matrix multiplication: The distributed block-compressed sparse
 row library.
 https://doi.org/10.1016/j.parco.2014.03.012

 Hutter, J; Iannuzzi, M; Schiffmann, F; VandeVondele, J. 
 WIREs Comput Mol Sci., 4 (1), 15-25 (2014). 
 CP2K: atomistic simulations of condensed matter systems.
 https://doi.org/10.1002/wcms.1159

 Marek, A; Blum, V; Johanni, R; Havu, V; Lang, B; Auckenthaler, T;
 Heinecke, A; Bungartz, H; Lederer, H. 
 Journal of Physics: Condensed Matter, 26 (21), (2014). 
 The ELPA library: scalable parallel eigenvalue solutions for
 electronic structure
 theory and computational science.
 https://doi.org/10.1088/0953-8984/26/21/213201

 Guidon, M; Hutter, J; VandeVondele, J. 
 JOURNAL OF CHEMICAL THEORY AND COMPUTATION, 5 (11), 3010-3021 (2009). 
 Robust Periodic Hartree-Fock Exchange for Large-Scale Simulations Using
 Gaussian Basis Sets.
 https://doi.org/10.1021/ct900494g

 Guidon, M; Schiffmann, F; Hutter, J; VandeVondele, J. 
 JOURNAL OF CHEMICAL PHYSICS, 128 (21), 214104 (2008). 
 Ab initio molecular dynamics using hybrid density functionals.
 https://doi.org/10.1063/1.2931945

 Krack, M. 
 THEORETICAL CHEMISTRY ACCOUNTS, 114 (1-3), 145-152 (2005). 
 Pseudopotentials for H to Kr optimized for gradient-corrected
 exchange-correlation functionals.
 https://doi.org/10.1007/s00214-005-0655-y

 VandeVondele, J; Krack, M; Mohamed, F; Parrinello, M; Chassaing, T;
 Hutter, J. COMPUTER PHYSICS COMMUNICATIONS, 167 (2), 103-128 (2005). 
 QUICKSTEP: Fast and accurate density functional calculations using a
 mixed Gaussian and plane waves approach.
 https://doi.org/10.1016/j.cpc.2004.12.014

 Frigo, M; Johnson, SG. 
 PROCEEDINGS OF THE IEEE, 93 (2), 216-231 (2005). 
 The design and implementation of FFTW3.
 https://doi.org/10.1109/JPROC.2004.840301

 VandeVondele, J; Hutter, J. 
 JOURNAL OF CHEMICAL PHYSICS, 118 (10), 4365-4369 (2003). 
 An efficient orbital transformation method for electronic structure
 calculations.
 https://doi.org/10.1063/1.1543154

 Martyna, GJ; Tuckerman, ME. 
 JOURNAL OF CHEMICAL PHYSICS, 110 (6), 2810-2821 (1999). 
 A reciprocal space based method for treating long range interactions in
 ab initio and force-field-based calculations in clusters.
 https://doi.org/10.1063/1.477923

 Hartwigsen, C; Goedecker, S; Hutter, J. 
 PHYSICAL REVIEW B, 58 (7), 3641-3662 (1998). 
 Relativistic separable dual-space Gaussian pseudopotentials from H to Rn.
 https://doi.org/10.1103/PhysRevB.58.3641

 Lippert, G; Hutter, J; Parrinello, M. 
 MOLECULAR PHYSICS, 92 (3), 477-487 (1997). 
 A hybrid Gaussian and plane wave density functional scheme.
 https://doi.org/10.1080/002689797170220

 Perdew, JP; Burke, K; Ernzerhof, M. 
 PHYSICAL REVIEW LETTERS, 77 (18), 3865-3868 (1996). 
 Generalized gradient approximation made simple.
 https://doi.org/10.1103/PhysRevLett.77.3865

 Goedecker, S; Teter, M; Hutter, J. 
 PHYSICAL REVIEW B, 54 (3), 1703-1710 (1996). 
 Separable dual-space Gaussian pseudopotentials.
 https://doi.org/10.1103/PhysRevB.54.1703


 -------------------------------------------------------------------------------
 -                                                                             -
 -                                T I M I N G                                  -
 -                                                                             -
 -------------------------------------------------------------------------------
 SUBROUTINE                       CALLS  ASD         SELF TIME        TOTAL TIME
                                MAXIMUM       AVERAGE  MAXIMUM  AVERAGE  MAXIMUM
 CP2K                                 1  1.0    0.025    0.047   26.951   26.952
 qs_energies                          1  2.0    0.000    0.000   26.502   26.503
 scf_env_do_scf                       1  3.0    0.000    0.000   26.317   26.318
 qs_ks_update_qs_env                 15  5.0    0.000    0.000   24.432   24.433
 rebuild_ks_matrix                   13  6.0    0.000    0.000   24.430   24.431
 qs_ks_build_kohn_sham_matrix        13  7.0    0.002    0.003   24.430   24.431
 hfx_ks_matrix                       13  8.0    0.000    0.001   17.193   17.194
 integrate_four_center               13  9.0    0.006    0.006   17.192   17.193
 init_scf_loop                        2  4.0    0.000    0.000   13.282   13.282
 scf_env_do_scf_inner_loop           13  4.0    0.000    0.001   13.035   13.035
 integrate_four_center_main          13 10.0    0.002    0.003    5.379    9.675
 integrate_four_center_bin         1651 11.0    5.377    9.674    5.377    9.674
 mp_sync                             86 10.8    4.300    6.408    4.300    6.408
 calc_screening_functions             1 10.0    5.835    5.862    6.347    6.378
 pw_transfer                        254  9.6    0.024    0.026    5.077    6.104
 fft_wrap_pw1pw2                    228 10.7    0.003    0.004    5.024    6.049
 fft_wrap_pw1pw2_300                146 11.8    0.218    0.229    4.601    5.635
 qs_vxc_create                       13  8.0    0.000    0.000    5.258    5.265
 xc_vxc_pw_create                    13  9.0    0.045    0.048    5.258    5.264
 fft3d_ps                           228 12.7    2.265    2.348    3.921    4.914
 xc_rho_set_and_dset_create          13 10.0    0.017    0.018    3.121    3.664
 xc_functional_eval                  13 11.0    0.000    0.000    1.866    2.409
 pbe_lda_eval                        13 12.0    1.866    2.409    1.866    2.409
 mp_alltoall_z22v                   228 14.7    1.267    2.304    1.267    2.304
 yz_to_x                            110 13.1    0.177    0.203    1.081    2.110
 qs_rho_update_rho                   14  5.0    0.000    0.000    1.740    1.740
 calculate_rho_elec                  14  6.0    0.022    0.024    1.740    1.740
 density_rs2pw                       14  7.0    0.001    0.001    1.286    1.319
 sum_up_and_integrate                13  8.0    0.006    0.007    1.155    1.155
 integrate_v_rspace_low              13  9.0    0.100    0.152    1.149    1.150
 calc_pair_dist_radii                 1 10.0    0.860    0.867    1.045    1.056
 potential_pw2rs                     13 10.0    0.001    0.001    0.989    0.990
 rs_pw_transfer                     109  9.4    0.002    0.002    0.902    0.940
 powell_optimize                 362003 11.0    0.697    0.704    0.697    0.704
 x_to_yz                            118 14.2    0.204    0.230    0.567    0.599
 -------------------------------------------------------------------------------

 The number of warnings for this run is : 0
 
 -------------------------------------------------------------------------------
  **** **** ******  **  PROGRAM ENDED AT                 2020-12-05 12:11:56.434
 ***** ** ***  *** **   PROGRAM RAN ON                                   tcopt10
 **    ****   ******    PROGRAM RAN BY                                    hutter
 ***** **    ** ** **   PROGRAM PROCESS ID                                 64384
  **** **  *******  **  PROGRAM STOPPED IN /data/hutter/GITHUB/BASIS/MOLOPT/PBE0
                                           /Be
