 DBCSR| CPU Multiplication driver                                           XSMM
 DBCSR| Multrec recursion limit                                              512
 DBCSR| Multiplication stack size                                           1000
 DBCSR| Maximum elements for images                                    UNLIMITED
 DBCSR| Multiplicative factor virtual images                                   1
 DBCSR| Use multiplication densification                                       T
 DBCSR| Multiplication size stacks                                             3
 DBCSR| Use memory pool for CPU allocation                                     F
 DBCSR| Number of 3D layers                                               SINGLE
 DBCSR| Use MPI memory allocation                                              F
 DBCSR| Use RMA algorithm                                                      F
 DBCSR| Use Communication thread                                               T
 DBCSR| Communication thread load                                             87
 DBCSR| Split modifier for TAS multiplication algorithm                  1.0E+00


  **** **** ******  **  PROGRAM STARTED AT               2020-12-05 12:11:56.653
 ***** ** ***  *** **   PROGRAM STARTED ON                               tcopt10
 **    ****   ******    PROGRAM STARTED BY                                hutter
 ***** **    ** ** **   PROGRAM PROCESS ID                                 64496
  **** **  *******  **  PROGRAM STARTED IN /data/hutter/GITHUB/BASIS/MOLOPT/PBE0
                                           /Be

 CP2K| version string:                    CP2K version 8.0 (Development Version)
 CP2K| source code revision number:                                  git:afc71fa
 CP2K| cp2kflags: omp libint fftw3 libxc elpa parallel mpi3 scalapack xsmm spgli
 CP2K|            b sirius
 CP2K| is freely available from                            https://www.cp2k.org/
 CP2K| Program compiled at                          Tue Nov 17 10:27:14 CET 2020
 CP2K| Program compiled on                                               tcopt10
 CP2K| Program compiled for                                                local
 CP2K| Data directory path                 /data/hutter/GITHUB/CURRENT/cp2k/data
 CP2K| Input file name                                               BeS-ref.inp

 GLOBAL| Force Environment number                                              1
 GLOBAL| Basis set file name                                  ../PBE0_UCSEGBASIS
 GLOBAL| Potential file name                                        ../POTENTIAL
 GLOBAL| MM Potential file name                                     MM_POTENTIAL
 GLOBAL| Coordinate file name                                      __STD_INPUT__
 GLOBAL| Method name                                                        CP2K
 GLOBAL| Project name                                                   refBeSq4
 GLOBAL| Preferred FFT library                                             FFTW3
 GLOBAL| Preferred diagonalization lib.                                     ELPA
 GLOBAL| Run type                                                         ENERGY
 GLOBAL| All-to-all communication in single precision                          F
 GLOBAL| FFTs using library dependent lengths                                  F
 GLOBAL| Global print level                                                  LOW
 GLOBAL| MPI I/O enabled                                                       T
 GLOBAL| Total number of message passing processes                            16
 GLOBAL| Number of threads for this process                                    1
 GLOBAL| This output is from process                                           0
 GLOBAL| CPU model name                          AMD EPYC 7401 24-Core Processor
 GLOBAL| CPUID                                                              1002

 MEMORY| system memory details [Kb]
 MEMORY|                        rank 0           min           max       average
 MEMORY| MemTotal            263987256     263987256     263987256     263987256
 MEMORY| MemFree             244181788     244181788     244181788     244181788
 MEMORY| Buffers                    32            32            32            32
 MEMORY| Cached               16362664      16362664      16362664      16362664
 MEMORY| Slab                  1367472       1367472       1367472       1367472
 MEMORY| SReclaimable           704864        704864        704864        704864
 MEMORY| MemLikelyFree       261249348     261249348     261249348     261249348


 GENERATE|  Preliminary Number of Bonds generated:                             0
 GENERATE|  Achieved consistency in connectivity generation.

 *******************************************************************************
 *******************************************************************************
 **                                                                           **
 **     #####                         ##              ##                      **
 **    ##   ##            ##          ##              ##                      **
 **   ##     ##                       ##            ######                    **
 **   ##     ##  ##   ##  ##   #####  ##  ##   ####   ##    #####    #####    **
 **   ##     ##  ##   ##  ##  ##      ## ##   ##      ##   ##   ##  ##   ##   **
 **   ##  ## ##  ##   ##  ##  ##      ####     ###    ##   ######   ######    **
 **    ##  ###   ##   ##  ##  ##      ## ##      ##   ##   ##       ##        **
 **     #######   #####   ##   #####  ##  ##  ####    ##    #####   ##        **
 **           ##                                                    ##        **
 **                                                                           **
 **                                                ... make the atoms dance   **
 **                                                                           **
 **            Copyright (C) by CP2K developers group (2000 - 2020)           **
 **                      J. Chem. Phys. 152, 194103 (2020)                    **
 **                                                                           **
 *******************************************************************************


 TOTAL NUMBERS AND MAXIMUM NUMBERS

  Total number of            - Atomic kinds:                                   2
                             - Atoms:                                          2
                             - Shell sets:                                    28
                             - Shells:                                        56
                             - Primitive Cartesian functions:                 28
                             - Cartesian basis functions:                    280
                             - Spherical basis functions:                    216

  Maximum angular momentum of- Orbital basis functions:                        4
                             - Local part of the GTH pseudopotential:          6
                             - Non-local part of the GTH pseudopotential:      2


 SCF PARAMETERS         Density guess:                                    ATOMIC
                        --------------------------------------------------------
                        max_scf:                                              10
                        max_scf_history:                                       0
                        max_diis:                                              4
                        --------------------------------------------------------
                        eps_scf:                                        1.00E-07
                        eps_scf_history:                                0.00E+00
                        eps_diis:                                       1.00E-01
                        eps_eigval:                                     1.00E-05
                        --------------------------------------------------------
                        level_shift [a.u.]:                                 0.00
                        --------------------------------------------------------
                        Outer loop SCF in use 
                        No variables optimised in outer loop
                        eps_scf                                         1.00E-07
                        max_scf                                               10
                        No outer loop optimization
                        step_size                                       5.00E-01

 Number of electrons:                                                         10
 Number of occupied orbitals:                                                  5
 Number of molecular orbitals:                                                 5

 Number of orbital functions:                                                216
 Number of independent orbital functions:                                    216

 Extrapolation method: initial_guess


 SCF WAVEFUNCTION OPTIMIZATION

  ----------------------------------- OT ---------------------------------------
  Minimizer      : DIIS                : direct inversion
                                         in the iterative subspace
                                         using   7 DIIS vectors
                                         safer DIIS on
  Preconditioner : FULL_ALL            : diagonalization, state selective
  Precond_solver : DEFAULT
  stepsize       :    0.15000000                  energy_gap     :    0.08000000
  eps_taylor     :   0.10000E-15                  max_taylor     :             4
  ----------------------------------- OT ---------------------------------------

  Step     Update method      Time    Convergence         Total energy    Change
  ------------------------------------------------------------------------------
     1 OT DIIS     0.15E+00   37.8     0.10153024       -23.6750642999 -2.37E+01
     2 OT DIIS     0.15E+00    1.5     0.06488933       -24.4785076772 -8.03E-01
     3 OT DIIS     0.15E+00    1.5     0.03202993       -24.6698533175 -1.91E-01
     4 OT DIIS     0.15E+00    1.4     0.01472973       -24.7526495948 -8.28E-02
     5 OT DIIS     0.15E+00    1.4     0.00873175       -24.7673999706 -1.48E-02
     6 OT DIIS     0.15E+00    1.5     0.00638313       -24.7822828254 -1.49E-02
     7 OT DIIS     0.15E+00    1.4     0.00417976       -24.7928813680 -1.06E-02
     8 OT DIIS     0.15E+00    1.4     0.00253744       -24.7974108357 -4.53E-03
     9 OT DIIS     0.15E+00    1.4     0.00289614       -24.7995020024 -2.09E-03
    10 OT DIIS     0.15E+00    1.4     0.00258593       -24.7993665124  1.35E-04

  Leaving inner SCF loop after reaching    10 steps.


  Electronic density on regular grids:        -10.0000000054       -0.0000000054
  Core density on regular grids:               10.0000000000       -0.0000000000
  Total charge density on r-space grids:       -0.0000000054
  Total charge density g-space grids:          -0.0000000054

  Overlap energy of the core charge distribution:               0.00000000279022
  Self energy of the core charge distribution:                -37.82277546612413
  Core Hamiltonian energy:                                      5.61130787053671
  Hartree energy:                                              12.38670466856294
  Exchange-correlation energy:                                 -3.80119008298157
  Hartree-Fock Exchange energy:                                -1.17341350516275

  Total energy:                                               -24.79936651237857

  outer SCF iter =    1 RMS gradient =   0.26E-02 energy =        -24.7993665124

  ----------------------------------- OT ---------------------------------------
  Minimizer      : DIIS                : direct inversion
                                         in the iterative subspace
                                         using   7 DIIS vectors
                                         safer DIIS on
  Preconditioner : FULL_ALL            : diagonalization, state selective
  Precond_solver : DEFAULT
  stepsize       :    0.15000000                  energy_gap     :    0.08000000
  eps_taylor     :   0.10000E-15                  max_taylor     :             4
  ----------------------------------- OT ---------------------------------------

  Step     Update method      Time    Convergence         Total energy    Change
  ------------------------------------------------------------------------------
     1 OT DIIS     0.15E+00    2.9     0.00201391       -24.8003595198 -9.93E-04
     2 OT DIIS     0.15E+00    1.4     0.00145293       -24.8008650405 -5.06E-04
     3 OT DIIS     0.15E+00    1.4     0.00107599       -24.8011200130 -2.55E-04
     4 OT DIIS     0.15E+00    1.5     0.00037538       -24.8013694489 -2.49E-04
     5 OT DIIS     0.15E+00    1.4     0.00017950       -24.8013763833 -6.93E-06
     6 OT DIIS     0.15E+00    1.4     0.00001552       -24.8013791379 -2.75E-06
     7 OT DIIS     0.15E+00    1.5     0.00000604       -24.8013791698 -3.20E-08
     8 OT DIIS     0.15E+00    1.4     0.00000260       -24.8013791743 -4.40E-09
     9 OT DIIS     0.15E+00    1.4     0.00000052       -24.8013791753 -1.01E-09
    10 OT DIIS     0.15E+00    1.4     0.00000019       -24.8013791753 -5.20E-11

  Leaving inner SCF loop after reaching    10 steps.


  Electronic density on regular grids:        -10.0000000054       -0.0000000054
  Core density on regular grids:               10.0000000000       -0.0000000000
  Total charge density on r-space grids:       -0.0000000054
  Total charge density g-space grids:          -0.0000000054

  Overlap energy of the core charge distribution:               0.00000000279022
  Self energy of the core charge distribution:                -37.82277546612413
  Core Hamiltonian energy:                                      5.58590080363042
  Hartree energy:                                              12.40145968290633
  Exchange-correlation energy:                                 -3.79501752824762
  Hartree-Fock Exchange energy:                                -1.17094667027327

  Total energy:                                               -24.80137917531804

  outer SCF iter =    2 RMS gradient =   0.19E-06 energy =        -24.8013791753

  ----------------------------------- OT ---------------------------------------
  Minimizer      : DIIS                : direct inversion
                                         in the iterative subspace
                                         using   7 DIIS vectors
                                         safer DIIS on
  Preconditioner : FULL_ALL            : diagonalization, state selective
  Precond_solver : DEFAULT
  stepsize       :    0.15000000                  energy_gap     :    0.08000000
  eps_taylor     :   0.10000E-15                  max_taylor     :             4
  ----------------------------------- OT ---------------------------------------

  Step     Update method      Time    Convergence         Total energy    Change
  ------------------------------------------------------------------------------
     1 OT DIIS     0.15E+00    2.9     0.00000002       -24.8013791753 -2.61E-12

  *** SCF run converged in     1 steps ***


  Electronic density on regular grids:        -10.0000000054       -0.0000000054
  Core density on regular grids:               10.0000000000       -0.0000000000
  Total charge density on r-space grids:       -0.0000000054
  Total charge density g-space grids:          -0.0000000054

  Overlap energy of the core charge distribution:               0.00000000279022
  Self energy of the core charge distribution:                -37.82277546612413
  Core Hamiltonian energy:                                      5.58589815882502
  Hartree energy:                                              12.40146160940927
  Exchange-correlation energy:                                 -3.79501700370799
  Hartree-Fock Exchange energy:                                -1.17094647651304

  Total energy:                                               -24.80137917532065

  outer SCF iter =    3 RMS gradient =   0.19E-07 energy =        -24.8013791753
  outer SCF loop converged in   3 iterations or   21 steps


 ENERGY| Total FORCE_EVAL ( QS ) energy [a.u.]:              -24.801379175320655

 -------------------------------------------------------------------------------
 -                                                                             -
 -                                DBCSR STATISTICS                             -
 -                                                                             -
 -------------------------------------------------------------------------------
 COUNTER                                    TOTAL       BLAS       SMM       ACC
 flops     5 x     5 x     5                55750       0.0%    100.0%      0.0%
 flops     5 x     5 x   100               435000       0.0%    100.0%      0.0%
 flops     5 x     5 x   116               504600       0.0%    100.0%      0.0%
 flops   100 x     5 x     5               540000       0.0%    100.0%      0.0%
 flops   116 x     5 x     5               626400       0.0%    100.0%      0.0%
 flops   100 x   100 x     5              2200000       0.0%    100.0%      0.0%
 flops   116 x   100 x     5              2552000       0.0%    100.0%      0.0%
 flops   116 x   116 x     5              2960320       0.0%    100.0%      0.0%
 flops   100 x     5 x   100             11000000       0.0%    100.0%      0.0%
 flops   116 x     5 x   100             12760000       0.0%    100.0%      0.0%
 flops   100 x     5 x   116             12760000       0.0%    100.0%      0.0%
 flops   116 x     5 x   116             14801600       0.0%    100.0%      0.0%
 flops inhomo. stacks                           0       0.0%      0.0%      0.0%
 flops total                        61.195670E+06       0.0%    100.0%      0.0%
 flops max/rank                     32.143670E+06       0.0%    100.0%      0.0%
 matmuls inhomo. stacks                         0       0.0%      0.0%      0.0%
 matmuls total                               1119       0.0%    100.0%      0.0%
 number of processed stacks                  1119       0.0%    100.0%      0.0%
 average stack size                                     0.0       1.0       0.0
 marketing flops                    63.779792E+06
 -------------------------------------------------------------------------------
 # multiplications                            553
 max memory usage/rank               1.348628E+09
 # max total images/rank                        1
 # max 3D layers                                1
 # MPI messages exchanged                   53088
 MPI messages size (bytes):
  total size                       134.805360E+06
  min size                           0.000000E+00
  max size                         107.648000E+03
  average size                       2.539281E+03
 MPI breakdown and total messages size (bytes):
             size <=      128               47490                        0
       128 < size <=     8192                4278                 11633520
      8192 < size <=    32768                   0                        0
     32768 < size <=   131072                1320                123171840
    131072 < size <=  4194304                   0                        0
   4194304 < size <= 16777216                   0                        0
  16777216 < size                               0                        0
 -------------------------------------------------------------------------------
 -                                                                             -
 -                      DBCSR MESSAGE PASSING PERFORMANCE                      -
 -                                                                             -
 -------------------------------------------------------------------------------
 ROUTINE             CALLS      AVE VOLUME [Bytes]
 MP_Bcast               13                     12.
 MP_Allreduce         2928                      8.
 MP_Alltoall          2165                   2616.
 MP_ISend             8836                   2919.
 MP_IRecv             8836                   1336.
 -------------------------------------------------------------------------------

 -------------------------------------------------------------------------------
 -                                                                             -
 -                                GRID STATISTICS                              -
 -                                                                             -
 -------------------------------------------------------------------------------
 LP    KERNEL    OPERATION                                     COUNT     PERCENT
 0     general   collocate                                        32       0.13%
 0     ortho     integrate                                      2100       8.27%
 0     ortho     collocate                                      2200       8.66%
 1     ortho     integrate                                      1638       6.45%
 1     ortho     collocate                                      1716       6.76%
 2     ortho     integrate                                      1344       5.29%
 2     ortho     collocate                                      1408       5.54%
 3     ortho     integrate                                      2520       9.92%
 3     ortho     collocate                                      2640      10.39%
 4     ortho     integrate                                      1848       7.28%
 4     ortho     collocate                                      1936       7.62%
 5     ortho     integrate                                      1344       5.29%
 5     ortho     collocate                                      1408       5.54%
 6     ortho     integrate                                       756       2.98%
 6     ortho     collocate                                       792       3.12%
 7     ortho     integrate                                       504       1.98%
 7     ortho     collocate                                       528       2.08%
 8     ortho     integrate                                       336       1.32%
 8     ortho     collocate                                       352       1.39%
 -------------------------------------------------------------------------------

 MEMORY| Estimated peak process memory [MiB]                                1287

 -------------------------------------------------------------------------------
 -                                                                             -
 -                         MESSAGE PASSING PERFORMANCE                         -
 -                                                                             -
 -------------------------------------------------------------------------------

 ROUTINE             CALLS      AVE VOLUME [Bytes]
 MP_Group                5
 MP_Bcast              252                 618482.
 MP_Allreduce          750                   1855.
 MP_Sync               128
 MP_Alltoall           419               13757246.
 MP_ISendRecv         2595                 224863.
 MP_Wait              3607
 MP_comm_split          16
 MP_ISend              880                 792254.
 MP_IRecv              880                 792106.
 MP_Recv                 4                   3456.
 -------------------------------------------------------------------------------


 -------------------------------------------------------------------------------
 -                                                                             -
 -                           R E F E R E N C E S                               -
 -                                                                             -
 -------------------------------------------------------------------------------
 
 CP2K version 8.0 (Development Version), the CP2K developers group (2020).
 CP2K is freely available from https://www.cp2k.org/ .

 Kuehne,Thomas D.; Iannuzzi,Marcella; Del Ben,Mauro;
 Rybkin,Vladimir V.; Seewald,Patrick; Stein,Frederick; Laino,Teodoro;
 Khaliullin,Rustam Z.; Schuett,Ole; Schiffmann,Florian; Golze,Dorothea;
 Wilhelm,Jan; Chulkov,Sergey; Bani-Hashemian,Mohammad Hossein;
 Weber,Valery; Borstnik,Urban; Taillefumier,Mathieu;
 Jakobovits,Alice Shoshana; Lazzaro,Alfio; Pabst,Hans; Mueller,Tiziano;
 Schade,Robert; Guidon,Manuel; Andermatt,Samuel; Holmberg,Nico;
 Schenter,Gregory K.; Hehn,Anna; Bussy,Augustin; Belleflamme,Fabian;
 Tabacchi,Gloria; Gloess,Andreas; Lass,Michael; Bethune,Iain;
 Mundy,Christopher J.; Plessl,Christian; Watkins,Matt;
 VandeVondele,Joost; Krack,Matthias; Hutter,Juerg. 
 The Journal of Chemical Physics, 152 (19), (2020). 
 CP2K: An electronic structure and molecular dynamics software package -
 Quickstep: Efficient and accurate electronic structure calculations.
 https://doi.org/10.1063/5.0007045

 Schuett, Ole; Messmer, Peter; Hutter, Juerg; VandeVondele, Joost. 
 Electronic Structure Calculations on Graphics Processing Units, John
 Wiley & Sons, Ltd, 173-190 (2016). 
 GPU-Accelerated Sparse Matrix-Matrix Multiplication for
 Linear Scaling Density Functional Theory.
 https://doi.org/10.1002/9781118670712.ch8

 Borstnik, U; VandeVondele, J; Weber, V; Hutter, J. 
 PARALLEL COMPUTING, 40 (5-6), 47-58 (2014). 
 Sparse matrix multiplication: The distributed block-compressed sparse
 row library.
 https://doi.org/10.1016/j.parco.2014.03.012

 Hutter, J; Iannuzzi, M; Schiffmann, F; VandeVondele, J. 
 WIREs Comput Mol Sci., 4 (1), 15-25 (2014). 
 CP2K: atomistic simulations of condensed matter systems.
 https://doi.org/10.1002/wcms.1159

 Marek, A; Blum, V; Johanni, R; Havu, V; Lang, B; Auckenthaler, T;
 Heinecke, A; Bungartz, H; Lederer, H. 
 Journal of Physics: Condensed Matter, 26 (21), (2014). 
 The ELPA library: scalable parallel eigenvalue solutions for
 electronic structure
 theory and computational science.
 https://doi.org/10.1088/0953-8984/26/21/213201

 Guidon, M; Hutter, J; VandeVondele, J. 
 JOURNAL OF CHEMICAL THEORY AND COMPUTATION, 5 (11), 3010-3021 (2009). 
 Robust Periodic Hartree-Fock Exchange for Large-Scale Simulations Using
 Gaussian Basis Sets.
 https://doi.org/10.1021/ct900494g

 Guidon, M; Schiffmann, F; Hutter, J; VandeVondele, J. 
 JOURNAL OF CHEMICAL PHYSICS, 128 (21), 214104 (2008). 
 Ab initio molecular dynamics using hybrid density functionals.
 https://doi.org/10.1063/1.2931945

 Krack, M. 
 THEORETICAL CHEMISTRY ACCOUNTS, 114 (1-3), 145-152 (2005). 
 Pseudopotentials for H to Kr optimized for gradient-corrected
 exchange-correlation functionals.
 https://doi.org/10.1007/s00214-005-0655-y

 VandeVondele, J; Krack, M; Mohamed, F; Parrinello, M; Chassaing, T;
 Hutter, J. COMPUTER PHYSICS COMMUNICATIONS, 167 (2), 103-128 (2005). 
 QUICKSTEP: Fast and accurate density functional calculations using a
 mixed Gaussian and plane waves approach.
 https://doi.org/10.1016/j.cpc.2004.12.014

 Frigo, M; Johnson, SG. 
 PROCEEDINGS OF THE IEEE, 93 (2), 216-231 (2005). 
 The design and implementation of FFTW3.
 https://doi.org/10.1109/JPROC.2004.840301

 VandeVondele, J; Hutter, J. 
 JOURNAL OF CHEMICAL PHYSICS, 118 (10), 4365-4369 (2003). 
 An efficient orbital transformation method for electronic structure
 calculations.
 https://doi.org/10.1063/1.1543154

 Martyna, GJ; Tuckerman, ME. 
 JOURNAL OF CHEMICAL PHYSICS, 110 (6), 2810-2821 (1999). 
 A reciprocal space based method for treating long range interactions in
 ab initio and force-field-based calculations in clusters.
 https://doi.org/10.1063/1.477923

 Hartwigsen, C; Goedecker, S; Hutter, J. 
 PHYSICAL REVIEW B, 58 (7), 3641-3662 (1998). 
 Relativistic separable dual-space Gaussian pseudopotentials from H to Rn.
 https://doi.org/10.1103/PhysRevB.58.3641

 Lippert, G; Hutter, J; Parrinello, M. 
 MOLECULAR PHYSICS, 92 (3), 477-487 (1997). 
 A hybrid Gaussian and plane wave density functional scheme.
 https://doi.org/10.1080/002689797170220

 Perdew, JP; Burke, K; Ernzerhof, M. 
 PHYSICAL REVIEW LETTERS, 77 (18), 3865-3868 (1996). 
 Generalized gradient approximation made simple.
 https://doi.org/10.1103/PhysRevLett.77.3865

 Goedecker, S; Teter, M; Hutter, J. 
 PHYSICAL REVIEW B, 54 (3), 1703-1710 (1996). 
 Separable dual-space Gaussian pseudopotentials.
 https://doi.org/10.1103/PhysRevB.54.1703


 -------------------------------------------------------------------------------
 -                                                                             -
 -                                T I M I N G                                  -
 -                                                                             -
 -------------------------------------------------------------------------------
 SUBROUTINE                       CALLS  ASD         SELF TIME        TOTAL TIME
                                MAXIMUM       AVERAGE  MAXIMUM  AVERAGE  MAXIMUM
 CP2K                                 1  1.0    0.021    0.065   67.466   67.468
 qs_energies                          1  2.0    0.000    0.000   66.990   66.991
 scf_env_do_scf                       1  3.0    0.000    0.000   66.767   66.768
 qs_ks_update_qs_env                 24  5.0    0.000    0.000   63.633   63.634
 rebuild_ks_matrix                   21  6.0    0.000    0.000   63.630   63.631
 qs_ks_build_kohn_sham_matrix        21  7.0    0.004    0.004   63.630   63.631
 hfx_ks_matrix                       21  8.0    0.001    0.001   51.646   51.648
 integrate_four_center               21  9.0    0.012    0.013   51.645   51.646
 init_scf_loop                        3  4.0    0.000    0.000   40.463   40.464
 scf_env_do_scf_inner_loop           21  4.0    0.001    0.002   26.303   26.303
 mp_sync                            128 10.8   18.310   25.793   18.310   25.793
 integrate_four_center_main          21 10.0    0.003    0.004    7.482   25.780
 integrate_four_center_bin         2688 11.0    7.479   25.778    7.479   25.778
 calc_screening_functions             1 10.0   22.902   23.033   23.752   23.881
 pw_transfer                        406  9.6    0.037    0.041    8.177    9.545
 fft_wrap_pw1pw2                    364 10.7    0.005    0.005    8.093    9.459
 fft_wrap_pw1pw2_300                234 11.8    0.346    0.364    7.589    8.952
 qs_vxc_create                       21  8.0    0.000    0.001    8.932    8.944
 xc_vxc_pw_create                    21  9.0    0.073    0.077    8.931    8.943
 fft3d_ps                           364 12.7    3.520    3.668    6.344    7.737
 xc_rho_set_and_dset_create          21 10.0    0.028    0.029    5.341    6.334
 xc_functional_eval                  21 11.0    0.000    0.000    3.284    4.278
 pbe_lda_eval                        21 12.0    3.284    4.278    3.284    4.278
 mp_alltoall_z22v                   364 14.7    2.187    3.675    2.187    3.675
 yz_to_x                            174 13.1    0.292    0.351    1.864    3.291
 qs_rho_update_rho                   22  5.0    0.000    0.000    2.822    2.822
 calculate_rho_elec                  22  6.0    0.035    0.038    2.822    2.822
 density_rs2pw                       22  7.0    0.001    0.001    2.130    2.256
 sum_up_and_integrate                21  8.0    0.011    0.012    1.919    1.921
 integrate_v_rspace_low              21  9.0    0.113    0.267    1.908    1.911
 calc_pair_dist_radii                 1 10.0    1.583    1.591    1.826    1.835
 rs_pw_transfer                     173  9.4    0.003    0.004    1.548    1.683
 potential_pw2rs                     21 10.0    0.002    0.002    1.622    1.624
 -------------------------------------------------------------------------------

 The number of warnings for this run is : 0
 
 -------------------------------------------------------------------------------
  **** **** ******  **  PROGRAM ENDED AT                 2020-12-05 12:13:04.753
 ***** ** ***  *** **   PROGRAM RAN ON                                   tcopt10
 **    ****   ******    PROGRAM RAN BY                                    hutter
 ***** **    ** ** **   PROGRAM PROCESS ID                                 64496
  **** **  *******  **  PROGRAM STOPPED IN /data/hutter/GITHUB/BASIS/MOLOPT/PBE0
                                           /Be
