
  **** **** ******  **  PROGRAM STARTED AT               2020-12-07 11:44:10.952
 ***** ** ***  *** **   PROGRAM STARTED ON                               tcopt10
 **    ****   ******    PROGRAM STARTED BY                                hutter
 ***** **    ** ** **   PROGRAM PROCESS ID                                 13570
  **** **  *******  **  PROGRAM STARTED IN /data/hutter/GITHUB/BASIS/MOLOPT/PBE0
                                           /Be

 CP2K| version string:                    CP2K version 8.0 (Development Version)
 CP2K| source code revision number:                                  git:afc71fa
 CP2K| cp2kflags: omp libint fftw3 libxc elpa parallel mpi3 scalapack xsmm spgli
 CP2K|            b sirius
 CP2K| is freely available from                            https://www.cp2k.org/
 CP2K| Program compiled at                          Tue Nov 17 10:27:14 CET 2020
 CP2K| Program compiled on                                               tcopt10
 CP2K| Program compiled for                                                local
 CP2K| Data directory path                 /data/hutter/GITHUB/CURRENT/cp2k/data
 CP2K| Input file name                                              opt-dzvp.inp

 GLOBAL| Method name                                              OPTIMIZE_BASIS
 GLOBAL| Project name                                                     molopt
 GLOBAL| Preferred FFT library                                             FFTW3
 GLOBAL| Preferred diagonalization lib.                                     ELPA
 GLOBAL| Run type                                                   ENERGY_FORCE
 GLOBAL| All-to-all communication in single precision                          F
 GLOBAL| FFTs using library dependent lengths                                  F
 GLOBAL| Global print level                                               MEDIUM
 GLOBAL| MPI I/O enabled                                                       T
 GLOBAL| Total number of message passing processes                            36
 GLOBAL| Number of threads for this process                                    1
 GLOBAL| This output is from process                                           0
 GLOBAL| CPU model name                          AMD EPYC 7401 24-Core Processor
 GLOBAL| CPUID                                                              1002

 MEMORY| system memory details [Kb]
 MEMORY|                        rank 0           min           max       average
 MEMORY| MemTotal            263987256     263987256     263987256     263987256
 MEMORY| MemFree             254093548     254093548     254093548     254093548
 MEMORY| Buffers                   148           148           148           148
 MEMORY| Cached                5689448       5689448       5689448       5689448
 MEMORY| Slab                  1228040       1228040       1228040       1228040
 MEMORY| SReclaimable           599344        599344        599344        599344
 MEMORY| MemLikelyFree       260382488     260382488     260382488     260382488


 *** Fundamental physical constants (SI units) ***

 *** Literature: B. J. Mohr and B. N. Taylor,
 ***             CODATA recommended values of the fundamental physical
 ***             constants: 2006, Web Version 5.1
 ***             http://physics.nist.gov/constants

 Speed of light in vacuum [m/s]                             2.99792458000000E+08
 Magnetic constant or permeability of vacuum [N/A**2]       1.25663706143592E-06
 Electric constant or permittivity of vacuum [F/m]          8.85418781762039E-12
 Planck constant (h) [J*s]                                  6.62606896000000E-34
 Planck constant (h-bar) [J*s]                              1.05457162825177E-34
 Elementary charge [C]                                      1.60217648700000E-19
 Electron mass [kg]                                         9.10938215000000E-31
 Electron g factor [ ]                                     -2.00231930436220E+00
 Proton mass [kg]                                           1.67262163700000E-27
 Fine-structure constant                                    7.29735253760000E-03
 Rydberg constant [1/m]                                     1.09737315685270E+07
 Avogadro constant [1/mol]                                  6.02214179000000E+23
 Boltzmann constant [J/K]                                   1.38065040000000E-23
 Atomic mass unit [kg]                                      1.66053878200000E-27
 Bohr radius [m]                                            5.29177208590000E-11

 *** Conversion factors ***

 [u] -> [a.u.]                                              1.82288848426455E+03
 [Angstrom] -> [Bohr] = [a.u.]                              1.88972613288564E+00
 [a.u.] = [Bohr] -> [Angstrom]                              5.29177208590000E-01
 [a.u.] -> [s]                                              2.41888432650478E-17
 [a.u.] -> [fs]                                             2.41888432650478E-02
 [a.u.] -> [J]                                              4.35974393937059E-18
 [a.u.] -> [N]                                              8.23872205491840E-08
 [a.u.] -> [K]                                              3.15774647902944E+05
 [a.u.] -> [kJ/mol]                                         2.62549961709828E+03
 [a.u.] -> [kcal/mol]                                       6.27509468713739E+02
 [a.u.] -> [Pa]                                             2.94210107994716E+13
 [a.u.] -> [bar]                                            2.94210107994716E+08
 [a.u.] -> [atm]                                            2.90362800883016E+08
 [a.u.] -> [eV]                                             2.72113838565563E+01
 [a.u.] -> [Hz]                                             6.57968392072181E+15
 [a.u.] -> [1/cm] (wave numbers)                            2.19474631370540E+05
 [a.u./Bohr**2] -> [1/cm]                                   5.14048714338585E+03
 
 DBCSR| CPU Multiplication driver                                           XSMM
 DBCSR| Multrec recursion limit                                              512
 DBCSR| Multiplication stack size                                           1000
 DBCSR| Maximum elements for images                                    UNLIMITED
 DBCSR| Multiplicative factor virtual images                                   1
 DBCSR| Use multiplication densification                                       T
 DBCSR| Multiplication size stacks                                             3
 DBCSR| Use memory pool for CPU allocation                                     F
 DBCSR| Number of 3D layers                                               SINGLE
 DBCSR| Use MPI memory allocation                                              F
 DBCSR| Use RMA algorithm                                                      F
 DBCSR| Use Communication thread                                               T
 DBCSR| Communication thread load                                             87
 DBCSR| Split modifier for TAS multiplication algorithm                  1.0E+00


 *******************************************************************************
 *   ___                                                                       *
 *  /   \                                                                      *
 * [ABORT]                                                                     *
 *  \___/   The requested basis set <DZVP-MOLOPT-PBE0-GTH-Q4> for element <BE> *
 *    |                was not found in the template basis set file            *
 *  O/|                                                                        *
 * /| |                                                                        *
 * / \                                             optimize_basis_utils.F:1073 *
 *******************************************************************************


 ===== Routine Calling Stack ===== 

            2 run_optimize_basis
            1 CP2K

  **** **** ******  **  PROGRAM STARTED AT               2020-12-07 11:44:58.777
 ***** ** ***  *** **   PROGRAM STARTED ON                               tcopt10
 **    ****   ******    PROGRAM STARTED BY                                hutter
 ***** **    ** ** **   PROGRAM PROCESS ID                                 13817
  **** **  *******  **  PROGRAM STARTED IN /data/hutter/GITHUB/BASIS/MOLOPT/PBE0
                                           /Be

 CP2K| version string:                    CP2K version 8.0 (Development Version)
 CP2K| source code revision number:                                  git:afc71fa
 CP2K| cp2kflags: omp libint fftw3 libxc elpa parallel mpi3 scalapack xsmm spgli
 CP2K|            b sirius
 CP2K| is freely available from                            https://www.cp2k.org/
 CP2K| Program compiled at                          Tue Nov 17 10:27:14 CET 2020
 CP2K| Program compiled on                                               tcopt10
 CP2K| Program compiled for                                                local
 CP2K| Data directory path                 /data/hutter/GITHUB/CURRENT/cp2k/data
 CP2K| Input file name                                              opt-dzvp.inp

 GLOBAL| Method name                                              OPTIMIZE_BASIS
 GLOBAL| Project name                                                     molopt
 GLOBAL| Preferred FFT library                                             FFTW3
 GLOBAL| Preferred diagonalization lib.                                     ELPA
 GLOBAL| Run type                                                   ENERGY_FORCE
 GLOBAL| All-to-all communication in single precision                          F
 GLOBAL| FFTs using library dependent lengths                                  F
 GLOBAL| Global print level                                               MEDIUM
 GLOBAL| MPI I/O enabled                                                       T
 GLOBAL| Total number of message passing processes                            36
 GLOBAL| Number of threads for this process                                    1
 GLOBAL| This output is from process                                           0
 GLOBAL| CPU model name                          AMD EPYC 7401 24-Core Processor
 GLOBAL| CPUID                                                              1002

 MEMORY| system memory details [Kb]
 MEMORY|                        rank 0           min           max       average
 MEMORY| MemTotal            263987256     263987256     263987256     263987256
 MEMORY| MemFree             254082452     254082452     254082452     254082452
 MEMORY| Buffers                   148           148           148           148
 MEMORY| Cached                5687396       5687396       5687396       5687396
 MEMORY| Slab                  1225256       1225256       1225256       1225256
 MEMORY| SReclaimable           597744        597744        597744        597744
 MEMORY| MemLikelyFree       260367740     260367740     260367740     260367740


 *** Fundamental physical constants (SI units) ***

 *** Literature: B. J. Mohr and B. N. Taylor,
 ***             CODATA recommended values of the fundamental physical
 ***             constants: 2006, Web Version 5.1
 ***             http://physics.nist.gov/constants

 Speed of light in vacuum [m/s]                             2.99792458000000E+08
 Magnetic constant or permeability of vacuum [N/A**2]       1.25663706143592E-06
 Electric constant or permittivity of vacuum [F/m]          8.85418781762039E-12
 Planck constant (h) [J*s]                                  6.62606896000000E-34
 Planck constant (h-bar) [J*s]                              1.05457162825177E-34
 Elementary charge [C]                                      1.60217648700000E-19
 Electron mass [kg]                                         9.10938215000000E-31
 Electron g factor [ ]                                     -2.00231930436220E+00
 Proton mass [kg]                                           1.67262163700000E-27
 Fine-structure constant                                    7.29735253760000E-03
 Rydberg constant [1/m]                                     1.09737315685270E+07
 Avogadro constant [1/mol]                                  6.02214179000000E+23
 Boltzmann constant [J/K]                                   1.38065040000000E-23
 Atomic mass unit [kg]                                      1.66053878200000E-27
 Bohr radius [m]                                            5.29177208590000E-11

 *** Conversion factors ***

 [u] -> [a.u.]                                              1.82288848426455E+03
 [Angstrom] -> [Bohr] = [a.u.]                              1.88972613288564E+00
 [a.u.] = [Bohr] -> [Angstrom]                              5.29177208590000E-01
 [a.u.] -> [s]                                              2.41888432650478E-17
 [a.u.] -> [fs]                                             2.41888432650478E-02
 [a.u.] -> [J]                                              4.35974393937059E-18
 [a.u.] -> [N]                                              8.23872205491840E-08
 [a.u.] -> [K]                                              3.15774647902944E+05
 [a.u.] -> [kJ/mol]                                         2.62549961709828E+03
 [a.u.] -> [kcal/mol]                                       6.27509468713739E+02
 [a.u.] -> [Pa]                                             2.94210107994716E+13
 [a.u.] -> [bar]                                            2.94210107994716E+08
 [a.u.] -> [atm]                                            2.90362800883016E+08
 [a.u.] -> [eV]                                             2.72113838565563E+01
 [a.u.] -> [Hz]                                             6.57968392072181E+15
 [a.u.] -> [1/cm] (wave numbers)                            2.19474631370540E+05
 [a.u./Bohr**2] -> [1/cm]                                   5.14048714338585E+03
 
 DBCSR| CPU Multiplication driver                                           XSMM
 DBCSR| Multrec recursion limit                                              512
 DBCSR| Multiplication stack size                                           1000
 DBCSR| Maximum elements for images                                    UNLIMITED
 DBCSR| Multiplicative factor virtual images                                   1
 DBCSR| Use multiplication densification                                       T
 DBCSR| Multiplication size stacks                                             3
 DBCSR| Use memory pool for CPU allocation                                     F
 DBCSR| Number of 3D layers                                               SINGLE
 DBCSR| Use MPI memory allocation                                              F
 DBCSR| Use RMA algorithm                                                      F
 DBCSR| Use Communication thread                                               T
 DBCSR| Communication thread load                                             87
 DBCSR| Split modifier for TAS multiplication algorithm                  1.0E+00

 BASOPT| Total number of calculations      6

 BASOPT| Content of basis combination      1
 BASOPT|     Element:   BE    Basis set:    DZVP-MOLOPT-PBE0-GTH-Q4
 BASOPT|     Element:    H    Basis set:    DZVP-MOLOPT-PBE0-GTH-Q1
 BASOPT|     Element:    C    Basis set:    DZVP-MOLOPT-PBE0-GTH-Q4
 BASOPT|     Element:    O    Basis set:    DZVP-MOLOPT-PBE0-GTH-Q6
 BASOPT|     Element:    F    Basis set:    DZVP-MOLOPT-PBE0-GTH-Q7
 BASOPT|     Element:    S    Basis set:    DZVP-MOLOPT-PBE0-GTH-Q6

 BASOPT| Information at iteration number:       0
 BASOPT| Training set | Combination | Rho difference | Condition num. | Time
 BASOPT| -----------------------------------------------------------------------
 BASOPT|        1     |       1     | 0.14672472E-01 | 0.19923203E+03 |    0.037
 BASOPT|        2     |       1     | 0.47896026E-02 | 0.52538643E+02 |    0.034
 BASOPT|        3     |       1     | 0.20408621E-02 | 0.21209184E+02 |    0.012
 BASOPT|        4     |       1     | 0.10537489E-01 | 0.41502722E+02 |    0.026
 BASOPT|        5     |       1     | 0.68671996E-02 | 0.46826479E+02 |    0.012
 BASOPT|        6     |       1     | 0.24765815E-02 | 0.22080883E+03 |    0.098
 BASOPT| -----------------------------------------------------------------------
 BASOPT| Total residuum value: -.11753933E+04

 BASOPT| Information at iteration number:     100
 BASOPT| Training set | Combination | Rho difference | Condition num. | Time
 BASOPT| -----------------------------------------------------------------------
 BASOPT|        1     |       1     | 0.14622003E-01 | 0.18906767E+03 |    3.717
 BASOPT|        2     |       1     | 0.45369534E-02 | 0.52327500E+02 |    3.377
 BASOPT|        3     |       1     | 0.18047254E-02 | 0.21537475E+02 |    1.029
 BASOPT|        4     |       1     | 0.91738950E-02 | 0.40308393E+02 |    2.162
 BASOPT|        5     |       1     | 0.68625205E-02 | 0.45373990E+02 |    1.095
 BASOPT|        6     |       1     | 0.24911824E-02 | 0.21272612E+03 |   11.216
 BASOPT| -----------------------------------------------------------------------
 BASOPT| Total residuum value: -.11754509E+04

 BASOPT| Information at iteration number:     200
 BASOPT| Training set | Combination | Rho difference | Condition num. | Time
 BASOPT| -----------------------------------------------------------------------
 BASOPT|        1     |       1     | 0.14292593E-01 | 0.18612348E+03 |    7.424
 BASOPT|        2     |       1     | 0.42839310E-02 | 0.51047824E+02 |    6.742
 BASOPT|        3     |       1     | 0.17164372E-02 | 0.21307079E+02 |    2.052
 BASOPT|        4     |       1     | 0.90134993E-02 | 0.39250289E+02 |    4.317
 BASOPT|        5     |       1     | 0.68283414E-02 | 0.44387172E+02 |    2.185
 BASOPT|        6     |       1     | 0.24045668E-02 | 0.21019852E+03 |   22.441
 BASOPT| -----------------------------------------------------------------------
 BASOPT| Total residuum value: -.11754662E+04

 BASOPT| Information at iteration number:     300
 BASOPT| Training set | Combination | Rho difference | Condition num. | Time
 BASOPT| -----------------------------------------------------------------------
 BASOPT|        1     |       1     | 0.14107901E-01 | 0.18811382E+03 |   11.132
 BASOPT|        2     |       1     | 0.44513070E-02 | 0.50129413E+02 |   10.105
 BASOPT|        3     |       1     | 0.18161478E-02 | 0.21554664E+02 |    3.078
 BASOPT|        4     |       1     | 0.90153712E-02 | 0.38120457E+02 |    6.473
 BASOPT|        5     |       1     | 0.69516019E-02 | 0.44397481E+02 |    3.276
 BASOPT|        6     |       1     | 0.23718714E-02 | 0.21158401E+03 |   33.665
 BASOPT| -----------------------------------------------------------------------
 BASOPT| Total residuum value: -.11754691E+04

 BASOPT| Information at iteration number:     400
 BASOPT| Training set | Combination | Rho difference | Condition num. | Time
 BASOPT| -----------------------------------------------------------------------
 BASOPT|        1     |       1     | 0.14230882E-01 | 0.18642167E+03 |   14.840
 BASOPT|        2     |       1     | 0.43835286E-02 | 0.50442524E+02 |   13.471
 BASOPT|        3     |       1     | 0.17412792E-02 | 0.21455707E+02 |    4.103
 BASOPT|        4     |       1     | 0.88185775E-02 | 0.38340770E+02 |    8.627
 BASOPT|        5     |       1     | 0.68961841E-02 | 0.44393724E+02 |    4.366
 BASOPT|        6     |       1     | 0.24003304E-02 | 0.21021333E+03 |   44.890
 BASOPT| -----------------------------------------------------------------------
 BASOPT| Total residuum value: -.11754718E+04

 BASOPT| Information at iteration number:     500
 BASOPT| Training set | Combination | Rho difference | Condition num. | Time
 BASOPT| -----------------------------------------------------------------------
 BASOPT|        1     |       1     | 0.14199184E-01 | 0.18573482E+03 |   18.548
 BASOPT|        2     |       1     | 0.43728764E-02 | 0.50104204E+02 |   16.846
 BASOPT|        3     |       1     | 0.17403916E-02 | 0.21419093E+02 |    5.131
 BASOPT|        4     |       1     | 0.87842157E-02 | 0.38061514E+02 |   10.780
 BASOPT|        5     |       1     | 0.68967857E-02 | 0.44243477E+02 |    5.457
 BASOPT|        6     |       1     | 0.23956507E-02 | 0.20955001E+03 |   56.117
 BASOPT| -----------------------------------------------------------------------
 BASOPT| Total residuum value: -.11754734E+04

 BASOPT| Information at iteration number:     600
 BASOPT| Training set | Combination | Rho difference | Condition num. | Time
 BASOPT| -----------------------------------------------------------------------
 BASOPT|        1     |       1     | 0.14231487E-01 | 0.18431701E+03 |   22.254
 BASOPT|        2     |       1     | 0.43424590E-02 | 0.49371092E+02 |   20.207
 BASOPT|        3     |       1     | 0.17132889E-02 | 0.21189215E+02 |    6.158
 BASOPT|        4     |       1     | 0.86467058E-02 | 0.37490005E+02 |   12.933
 BASOPT|        5     |       1     | 0.68744039E-02 | 0.43982608E+02 |    6.548
 BASOPT|        6     |       1     | 0.24056316E-02 | 0.20816472E+03 |   67.342
 BASOPT| -----------------------------------------------------------------------
 BASOPT| Total residuum value: -.11754748E+04

 BASOPT| Information at iteration number:     700
 BASOPT| Training set | Combination | Rho difference | Condition num. | Time
 BASOPT| -----------------------------------------------------------------------
 BASOPT|        1     |       1     | 0.14133621E-01 | 0.18406003E+03 |   25.961
 BASOPT|        2     |       1     | 0.43837616E-02 | 0.48061067E+02 |   23.562
 BASOPT|        3     |       1     | 0.17548918E-02 | 0.21034726E+02 |    7.185
 BASOPT|        4     |       1     | 0.87400679E-02 | 0.36507355E+02 |   15.084
 BASOPT|        5     |       1     | 0.69176177E-02 | 0.43670547E+02 |    7.640
 BASOPT|        6     |       1     | 0.23904851E-02 | 0.20758698E+03 |   78.567
 BASOPT| -----------------------------------------------------------------------
 BASOPT| Total residuum value: -.11754761E+04

 BASOPT| Information at iteration number:     800
 BASOPT| Training set | Combination | Rho difference | Condition num. | Time
 BASOPT| -----------------------------------------------------------------------
 BASOPT|        1     |       1     | 0.14222679E-01 | 0.18309098E+03 |   29.668
 BASOPT|        2     |       1     | 0.43691764E-02 | 0.46666699E+02 |   26.927
 BASOPT|        3     |       1     | 0.17259632E-02 | 0.20559159E+02 |    8.211
 BASOPT|        4     |       1     | 0.85623793E-02 | 0.35750923E+02 |   17.236
 BASOPT|        5     |       1     | 0.68869346E-02 | 0.43314464E+02 |    8.731
 BASOPT|        6     |       1     | 0.24004252E-02 | 0.20524834E+03 |   89.785
 BASOPT| -----------------------------------------------------------------------
 BASOPT| Total residuum value: -.11754784E+04

 BASOPT| Information at iteration number:     900
 BASOPT| Training set | Combination | Rho difference | Condition num. | Time
 BASOPT| -----------------------------------------------------------------------
 BASOPT|        1     |       1     | 0.14183794E-01 | 0.18380038E+03 |   33.374
 BASOPT|        2     |       1     | 0.43921697E-02 | 0.45897612E+02 |   30.291
 BASOPT|        3     |       1     | 0.17451318E-02 | 0.20429851E+02 |    9.237
 BASOPT|        4     |       1     | 0.85725086E-02 | 0.35275440E+02 |   19.387
 BASOPT|        5     |       1     | 0.69181310E-02 | 0.43066884E+02 |    9.822
 BASOPT|        6     |       1     | 0.23977569E-02 | 0.20426454E+03 |  101.009
 BASOPT| -----------------------------------------------------------------------
 BASOPT| Total residuum value: -.11754791E+04

 BASOPT| Information at iteration number:    1000
 BASOPT| Training set | Combination | Rho difference | Condition num. | Time
 BASOPT| -----------------------------------------------------------------------
 BASOPT|        1     |       1     | 0.14174723E-01 | 0.18346180E+03 |   37.079
 BASOPT|        2     |       1     | 0.44022906E-02 | 0.45583621E+02 |   33.652
 BASOPT|        3     |       1     | 0.17478763E-02 | 0.20378966E+02 |   10.264
 BASOPT|        4     |       1     | 0.85822506E-02 | 0.35100071E+02 |   21.538
 BASOPT|        5     |       1     | 0.69226296E-02 | 0.43016567E+02 |   10.912
 BASOPT|        6     |       1     | 0.23985065E-02 | 0.20394496E+03 |  112.237
 BASOPT| -----------------------------------------------------------------------
 BASOPT| Total residuum value: -.11754797E+04

 BASOPT| Information at iteration number:    1100
 BASOPT| Training set | Combination | Rho difference | Condition num. | Time
 BASOPT| -----------------------------------------------------------------------
 BASOPT|        1     |       1     | 0.14222874E-01 | 0.18449920E+03 |   40.782
 BASOPT|        2     |       1     | 0.43841884E-02 | 0.45020440E+02 |   37.021
 BASOPT|        3     |       1     | 0.17298189E-02 | 0.20115669E+02 |   11.291
 BASOPT|        4     |       1     | 0.85560414E-02 | 0.34992024E+02 |   23.690
 BASOPT|        5     |       1     | 0.68894086E-02 | 0.42989378E+02 |   12.001
 BASOPT|        6     |       1     | 0.24032680E-02 | 0.20340752E+03 |  123.466
 BASOPT| -----------------------------------------------------------------------
 BASOPT| Total residuum value: -.11754805E+04

 BASOPT| Information at iteration number:    1200
 BASOPT| Training set | Combination | Rho difference | Condition num. | Time
 BASOPT| -----------------------------------------------------------------------
 BASOPT|        1     |       1     | 0.14245840E-01 | 0.18577947E+03 |   44.486
 BASOPT|        2     |       1     | 0.43702072E-02 | 0.44280216E+02 |   40.389
 BASOPT|        3     |       1     | 0.17179623E-02 | 0.19800942E+02 |   12.317
 BASOPT|        4     |       1     | 0.85623383E-02 | 0.34825574E+02 |   25.843
 BASOPT|        5     |       1     | 0.68705151E-02 | 0.42930290E+02 |   13.092
 BASOPT|        6     |       1     | 0.24090219E-02 | 0.20282531E+03 |  134.697
 BASOPT| -----------------------------------------------------------------------
 BASOPT| Total residuum value: -.11754812E+04

 BASOPT| Information at iteration number:    1300
 BASOPT| Training set | Combination | Rho difference | Condition num. | Time
 BASOPT| -----------------------------------------------------------------------
 BASOPT|        1     |       1     | 0.14229105E-01 | 0.18643172E+03 |   48.189
 BASOPT|        2     |       1     | 0.43553303E-02 | 0.43689869E+02 |   43.752
 BASOPT|        3     |       1     | 0.17181834E-02 | 0.19566668E+02 |   13.342
 BASOPT|        4     |       1     | 0.86050180E-02 | 0.34679010E+02 |   27.997
 BASOPT|        5     |       1     | 0.68789733E-02 | 0.42798665E+02 |   14.182
 BASOPT|        6     |       1     | 0.24119176E-02 | 0.20223162E+03 |  145.930
 BASOPT| -----------------------------------------------------------------------
 BASOPT| Total residuum value: -.11754815E+04

 BASOPT| Information at iteration number:    1400
 BASOPT| Training set | Combination | Rho difference | Condition num. | Time
 BASOPT| -----------------------------------------------------------------------
 BASOPT|        1     |       1     | 0.14243936E-01 | 0.18895369E+03 |   51.895
 BASOPT|        2     |       1     | 0.43608865E-02 | 0.43303380E+02 |   47.114
 BASOPT|        3     |       1     | 0.17205773E-02 | 0.19312095E+02 |   14.364
 BASOPT|        4     |       1     | 0.85552354E-02 | 0.34749503E+02 |   30.150
 BASOPT|        5     |       1     | 0.68706780E-02 | 0.42933116E+02 |   15.273
 BASOPT|        6     |       1     | 0.24115421E-02 | 0.20262934E+03 |  157.180
 BASOPT| -----------------------------------------------------------------------
 BASOPT| Total residuum value: -.11754821E+04

 BASOPT| Information at iteration number:    1500
 BASOPT| Training set | Combination | Rho difference | Condition num. | Time
 BASOPT| -----------------------------------------------------------------------
 BASOPT|        1     |       1     | 0.14251295E-01 | 0.19039238E+03 |   55.599
 BASOPT|        2     |       1     | 0.43565937E-02 | 0.43192854E+02 |   50.476
 BASOPT|        3     |       1     | 0.17113720E-02 | 0.19202758E+02 |   15.388
 BASOPT|        4     |       1     | 0.85041350E-02 | 0.34882880E+02 |   32.304
 BASOPT|        5     |       1     | 0.68624701E-02 | 0.43034663E+02 |   16.363
 BASOPT|        6     |       1     | 0.24139574E-02 | 0.20259939E+03 |  168.414
 BASOPT| -----------------------------------------------------------------------
 BASOPT| Total residuum value: -.11754824E+04

 BASOPT| Information at iteration number:    1600
 BASOPT| Training set | Combination | Rho difference | Condition num. | Time
 BASOPT| -----------------------------------------------------------------------
 BASOPT|        1     |       1     | 0.14230256E-01 | 0.19140796E+03 |   59.306
 BASOPT|        2     |       1     | 0.43629800E-02 | 0.42987620E+02 |   53.832
 BASOPT|        3     |       1     | 0.17178075E-02 | 0.19121093E+02 |   16.415
 BASOPT|        4     |       1     | 0.85178506E-02 | 0.34953849E+02 |   34.456
 BASOPT|        5     |       1     | 0.68729147E-02 | 0.43095843E+02 |   17.453
 BASOPT|        6     |       1     | 0.24102928E-02 | 0.20247443E+03 |  179.646
 BASOPT| -----------------------------------------------------------------------
 BASOPT| Total residuum value: -.11754828E+04

 BASOPT| Information at iteration number:    1700
 BASOPT| Training set | Combination | Rho difference | Condition num. | Time
 BASOPT| -----------------------------------------------------------------------
 BASOPT|        1     |       1     | 0.14196511E-01 | 0.19177724E+03 |   63.011
 BASOPT|        2     |       1     | 0.43752954E-02 | 0.42839020E+02 |   57.195
 BASOPT|        3     |       1     | 0.17289336E-02 | 0.19106845E+02 |   17.451
 BASOPT|        4     |       1     | 0.85520826E-02 | 0.34916517E+02 |   36.610
 BASOPT|        5     |       1     | 0.68848172E-02 | 0.43147558E+02 |   18.543
 BASOPT|        6     |       1     | 0.24049117E-02 | 0.20262634E+03 |  190.881
 BASOPT| -----------------------------------------------------------------------
 BASOPT| Total residuum value: -.11754828E+04

 BASOPT| Information at iteration number:    1800
 BASOPT| Training set | Combination | Rho difference | Condition num. | Time
 BASOPT| -----------------------------------------------------------------------
 BASOPT|        1     |       1     | 0.14214260E-01 | 0.19233640E+03 |   66.717
 BASOPT|        2     |       1     | 0.43566660E-02 | 0.42900520E+02 |   60.557
 BASOPT|        3     |       1     | 0.17138297E-02 | 0.19051958E+02 |   18.485
 BASOPT|        4     |       1     | 0.85187569E-02 | 0.35084263E+02 |   38.766
 BASOPT|        5     |       1     | 0.68714662E-02 | 0.43190333E+02 |   19.634
 BASOPT|        6     |       1     | 0.24087908E-02 | 0.20249969E+03 |  202.107
 BASOPT| -----------------------------------------------------------------------
 BASOPT| Total residuum value: -.11754831E+04

 BASOPT| Information at iteration number:    1900
 BASOPT| Training set | Combination | Rho difference | Condition num. | Time
 BASOPT| -----------------------------------------------------------------------
 BASOPT|        1     |       1     | 0.14245206E-01 | 0.19313043E+03 |   70.422
 BASOPT|        2     |       1     | 0.43533004E-02 | 0.43002841E+02 |   63.917
 BASOPT|        3     |       1     | 0.17058458E-02 | 0.19031644E+02 |   19.520
 BASOPT|        4     |       1     | 0.84617293E-02 | 0.35220364E+02 |   40.921
 BASOPT|        5     |       1     | 0.68604554E-02 | 0.43245892E+02 |   20.724
 BASOPT|        6     |       1     | 0.24128307E-02 | 0.20252684E+03 |  213.357
 BASOPT| -----------------------------------------------------------------------
 BASOPT| Total residuum value: -.11754832E+04

 BASOPT| Information at iteration number:    2000
 BASOPT| Training set | Combination | Rho difference | Condition num. | Time
 BASOPT| -----------------------------------------------------------------------
 BASOPT|        1     |       1     | 0.14236337E-01 | 0.19367861E+03 |   74.128
 BASOPT|        2     |       1     | 0.43583594E-02 | 0.43023314E+02 |   67.275
 BASOPT|        3     |       1     | 0.17075852E-02 | 0.19049083E+02 |   20.557
 BASOPT|        4     |       1     | 0.84343852E-02 | 0.35235919E+02 |   43.075
 BASOPT|        5     |       1     | 0.68635112E-02 | 0.43251229E+02 |   21.815
 BASOPT|        6     |       1     | 0.24095995E-02 | 0.20246901E+03 |  224.590
 BASOPT| -----------------------------------------------------------------------
 BASOPT| Total residuum value: -.11754834E+04

 BASOPT| Information at iteration number:    2100
 BASOPT| Training set | Combination | Rho difference | Condition num. | Time
 BASOPT| -----------------------------------------------------------------------
 BASOPT|        1     |       1     | 0.14220272E-01 | 0.19359224E+03 |   77.832
 BASOPT|        2     |       1     | 0.43686842E-02 | 0.42966450E+02 |   70.638
 BASOPT|        3     |       1     | 0.17179994E-02 | 0.19073740E+02 |   21.592
 BASOPT|        4     |       1     | 0.84498084E-02 | 0.35170511E+02 |   45.227
 BASOPT|        5     |       1     | 0.68763590E-02 | 0.43196695E+02 |   22.907
 BASOPT|        6     |       1     | 0.24068218E-02 | 0.20230075E+03 |  235.819
 BASOPT| -----------------------------------------------------------------------
 BASOPT| Total residuum value: -.11754835E+04

 BASOPT| Information at iteration number:    2200
 BASOPT| Training set | Combination | Rho difference | Condition num. | Time
 BASOPT| -----------------------------------------------------------------------
 BASOPT|        1     |       1     | 0.14230098E-01 | 0.19303588E+03 |   81.538
 BASOPT|        2     |       1     | 0.43414655E-02 | 0.42988411E+02 |   73.997
 BASOPT|        3     |       1     | 0.17022833E-02 | 0.19053785E+02 |   22.629
 BASOPT|        4     |       1     | 0.84566024E-02 | 0.35196422E+02 |   47.382
 BASOPT|        5     |       1     | 0.68707538E-02 | 0.43098097E+02 |   23.998
 BASOPT|        6     |       1     | 0.24123592E-02 | 0.20182164E+03 |  247.047
 BASOPT| -----------------------------------------------------------------------
 BASOPT| Total residuum value: -.11754835E+04

 BASOPT| Information at iteration number:    2300
 BASOPT| Training set | Combination | Rho difference | Condition num. | Time
 BASOPT| -----------------------------------------------------------------------
 BASOPT|        1     |       1     | 0.14213568E-01 | 0.19328876E+03 |   85.245
 BASOPT|        2     |       1     | 0.43625557E-02 | 0.42973469E+02 |   77.359
 BASOPT|        3     |       1     | 0.17165168E-02 | 0.19085542E+02 |   23.665
 BASOPT|        4     |       1     | 0.84460815E-02 | 0.35125085E+02 |   49.536
 BASOPT|        5     |       1     | 0.68742354E-02 | 0.43141938E+02 |   25.089
 BASOPT|        6     |       1     | 0.24057222E-02 | 0.20225085E+03 |  258.273
 BASOPT| -----------------------------------------------------------------------
 BASOPT| Total residuum value: -.11754838E+04

 BASOPT| Information at iteration number:    2400
 BASOPT| Training set | Combination | Rho difference | Condition num. | Time
 BASOPT| -----------------------------------------------------------------------
 BASOPT|        1     |       1     | 0.14229874E-01 | 0.19270451E+03 |   88.951
 BASOPT|        2     |       1     | 0.43535289E-02 | 0.43053496E+02 |   80.721
 BASOPT|        3     |       1     | 0.17092680E-02 | 0.19117248E+02 |   24.700
 BASOPT|        4     |       1     | 0.84368779E-02 | 0.35116683E+02 |   51.690
 BASOPT|        5     |       1     | 0.68627626E-02 | 0.43087204E+02 |   26.182
 BASOPT|        6     |       1     | 0.24084808E-02 | 0.20209293E+03 |  269.500
 BASOPT| -----------------------------------------------------------------------
 BASOPT| Total residuum value: -.11754841E+04

 BASOPT| Information at iteration number:    2500
 BASOPT| Training set | Combination | Rho difference | Condition num. | Time
 BASOPT| -----------------------------------------------------------------------
 BASOPT|        1     |       1     | 0.14236085E-01 | 0.19232993E+03 |   92.658
 BASOPT|        2     |       1     | 0.43481020E-02 | 0.43133905E+02 |   84.086
 BASOPT|        3     |       1     | 0.17040720E-02 | 0.19154593E+02 |   25.735
 BASOPT|        4     |       1     | 0.84183267E-02 | 0.35118046E+02 |   53.846
 BASOPT|        5     |       1     | 0.68582569E-02 | 0.43042854E+02 |   27.275
 BASOPT|        6     |       1     | 0.24093114E-02 | 0.20187804E+03 |  280.722
 BASOPT| -----------------------------------------------------------------------
 BASOPT| Total residuum value: -.11754841E+04

 BASOPT| Information at iteration number:    2600
 BASOPT| Training set | Combination | Rho difference | Condition num. | Time
 BASOPT| -----------------------------------------------------------------------
 BASOPT|        1     |       1     | 0.14215574E-01 | 0.19229628E+03 |   96.365
 BASOPT|        2     |       1     | 0.43591097E-02 | 0.43101588E+02 |   87.446
 BASOPT|        3     |       1     | 0.17150428E-02 | 0.19206857E+02 |   26.772
 BASOPT|        4     |       1     | 0.84318467E-02 | 0.35030168E+02 |   56.004
 BASOPT|        5     |       1     | 0.68650266E-02 | 0.43007587E+02 |   28.368
 BASOPT|        6     |       1     | 0.24026935E-02 | 0.20190177E+03 |  291.948
 BASOPT| -----------------------------------------------------------------------
 BASOPT| Total residuum value: -.11754844E+04

 BASOPT| Information at iteration number:    2700
 BASOPT| Training set | Combination | Rho difference | Condition num. | Time
 BASOPT| -----------------------------------------------------------------------
 BASOPT|        1     |       1     | 0.14232268E-01 | 0.19218519E+03 |  100.075
 BASOPT|        2     |       1     | 0.43459440E-02 | 0.43181524E+02 |   90.811
 BASOPT|        3     |       1     | 0.17083404E-02 | 0.19199703E+02 |   27.809
 BASOPT|        4     |       1     | 0.84234736E-02 | 0.35064810E+02 |   58.166
 BASOPT|        5     |       1     | 0.68582441E-02 | 0.42955499E+02 |   29.461
 BASOPT|        6     |       1     | 0.24056607E-02 | 0.20182061E+03 |  303.170
 BASOPT| -----------------------------------------------------------------------
 BASOPT| Total residuum value: -.11754843E+04

 BASOPT| Information at iteration number:    2800
 BASOPT| Training set | Combination | Rho difference | Condition num. | Time
 BASOPT| -----------------------------------------------------------------------
 BASOPT|        1     |       1     | 0.14240248E-01 | 0.19204725E+03 |  103.858
 BASOPT|        2     |       1     | 0.43387766E-02 | 0.43267697E+02 |   94.246
 BASOPT|        3     |       1     | 0.17015291E-02 | 0.19209519E+02 |   28.862
 BASOPT|        4     |       1     | 0.83965061E-02 | 0.35094534E+02 |   60.385
 BASOPT|        5     |       1     | 0.68511103E-02 | 0.42959180E+02 |   30.576
 BASOPT|        6     |       1     | 0.24067465E-02 | 0.20191773E+03 |  314.555
 BASOPT| -----------------------------------------------------------------------
 BASOPT| Total residuum value: -.11754845E+04

 BASOPT| Information at iteration number:    2900
 BASOPT| Training set | Combination | Rho difference | Condition num. | Time
 BASOPT| -----------------------------------------------------------------------
 BASOPT|        1     |       1     | 0.14238018E-01 | 0.19202513E+03 |  107.587
 BASOPT|        2     |       1     | 0.43401769E-02 | 0.43259977E+02 |   97.883
 BASOPT|        3     |       1     | 0.17027986E-02 | 0.19215852E+02 |   29.945
 BASOPT|        4     |       1     | 0.84006133E-02 | 0.35084200E+02 |   62.578
 BASOPT|        5     |       1     | 0.68526835E-02 | 0.42951844E+02 |   31.675
 BASOPT|        6     |       1     | 0.24064362E-02 | 0.20187751E+03 |  325.914
 BASOPT| -----------------------------------------------------------------------
 BASOPT| Total residuum value: -.11754846E+04

 BASOPT| Information at iteration number:    3000
 BASOPT| Training set | Combination | Rho difference | Condition num. | Time
 BASOPT| -----------------------------------------------------------------------
 BASOPT|        1     |       1     | 0.14238262E-01 | 0.19202651E+03 |  111.298
 BASOPT|        2     |       1     | 0.43406573E-02 | 0.43263039E+02 |  101.497
 BASOPT|        3     |       1     | 0.17027414E-02 | 0.19217851E+02 |   30.983
 BASOPT|        4     |       1     | 0.83991803E-02 | 0.35084585E+02 |   64.716
 BASOPT|        5     |       1     | 0.68526016E-02 | 0.42954419E+02 |   32.769
 BASOPT|        6     |       1     | 0.24064299E-02 | 0.20188122E+03 |  337.209
 BASOPT| -----------------------------------------------------------------------
 BASOPT| Total residuum value: -.11754845E+04

 BASOPT| Information at iteration number:    3100
 BASOPT| Training set | Combination | Rho difference | Condition num. | Time
 BASOPT| -----------------------------------------------------------------------
 BASOPT|        1     |       1     | 0.14238267E-01 | 0.19202611E+03 |  115.225
 BASOPT|        2     |       1     | 0.43406370E-02 | 0.43263033E+02 |  105.176
 BASOPT|        3     |       1     | 0.17027314E-02 | 0.19217823E+02 |   32.047
 BASOPT|        4     |       1     | 0.83991987E-02 | 0.35084604E+02 |   66.980
 BASOPT|        5     |       1     | 0.68525992E-02 | 0.42954346E+02 |   33.927
 BASOPT|        6     |       1     | 0.24064343E-02 | 0.20188092E+03 |  348.648
 BASOPT| -----------------------------------------------------------------------
 BASOPT| Total residuum value: -.11754846E+04

 BASOPT| Information at iteration number:    3200
 BASOPT| Training set | Combination | Rho difference | Condition num. | Time
 BASOPT| -----------------------------------------------------------------------
 BASOPT|        1     |       1     | 0.14238267E-01 | 0.19202611E+03 |  118.949
 BASOPT|        2     |       1     | 0.43406372E-02 | 0.43263033E+02 |  108.781
 BASOPT|        3     |       1     | 0.17027315E-02 | 0.19217823E+02 |   33.082
 BASOPT|        4     |       1     | 0.83991987E-02 | 0.35084604E+02 |   69.480
 BASOPT|        5     |       1     | 0.68525993E-02 | 0.42954347E+02 |   35.162
 BASOPT|        6     |       1     | 0.24064343E-02 | 0.20188093E+03 |  359.970
 BASOPT| -----------------------------------------------------------------------
 BASOPT| Total residuum value: -.11754846E+04

 BASOPT| Information at iteration number:    3300
 BASOPT| Training set | Combination | Rho difference | Condition num. | Time
 BASOPT| -----------------------------------------------------------------------
 BASOPT|        1     |       1     | 0.14238267E-01 | 0.19202611E+03 |  122.651
 BASOPT|        2     |       1     | 0.43406372E-02 | 0.43263033E+02 |  112.383
 BASOPT|        3     |       1     | 0.17027315E-02 | 0.19217823E+02 |   34.126
 BASOPT|        4     |       1     | 0.83991987E-02 | 0.35084604E+02 |   71.927
 BASOPT|        5     |       1     | 0.68525993E-02 | 0.42954347E+02 |   36.259
 BASOPT|        6     |       1     | 0.24064343E-02 | 0.20188093E+03 |  371.264
 BASOPT| -----------------------------------------------------------------------
 BASOPT| Total residuum value: -.11754846E+04

 BASOPT| Information at iteration number:    3400
 BASOPT| Training set | Combination | Rho difference | Condition num. | Time
 BASOPT| -----------------------------------------------------------------------
 BASOPT|        1     |       1     | 0.14238267E-01 | 0.19202611E+03 |  126.384
 BASOPT|        2     |       1     | 0.43406372E-02 | 0.43263033E+02 |  115.980
 BASOPT|        3     |       1     | 0.17027315E-02 | 0.19217823E+02 |   35.166
 BASOPT|        4     |       1     | 0.83991987E-02 | 0.35084604E+02 |   74.063
 BASOPT|        5     |       1     | 0.68525993E-02 | 0.42954347E+02 |   37.349
 BASOPT|        6     |       1     | 0.24064343E-02 | 0.20188093E+03 |  382.535
 BASOPT| -----------------------------------------------------------------------
 BASOPT| Total residuum value: -.11754846E+04

 BASOPT| Information at iteration number:    3500
 BASOPT| Training set | Combination | Rho difference | Condition num. | Time
 BASOPT| -----------------------------------------------------------------------
 BASOPT|        1     |       1     | 0.14238267E-01 | 0.19202611E+03 |  130.119
 BASOPT|        2     |       1     | 0.43406372E-02 | 0.43263033E+02 |  119.581
 BASOPT|        3     |       1     | 0.17027315E-02 | 0.19217823E+02 |   36.208
 BASOPT|        4     |       1     | 0.83991987E-02 | 0.35084604E+02 |   76.198
 BASOPT|        5     |       1     | 0.68525993E-02 | 0.42954347E+02 |   38.437
 BASOPT|        6     |       1     | 0.24064343E-02 | 0.20188093E+03 |  393.807
 BASOPT| -----------------------------------------------------------------------
 BASOPT| Total residuum value: -.11754846E+04


 -------------------------------------------------------------------------------
 -                                                                             -
 -                                DBCSR STATISTICS                             -
 -                                                                             -
 -------------------------------------------------------------------------------
 COUNTER                                    TOTAL       BLAS       SMM       ACC
 flops    68 x   100 x     3                40800       0.0%    100.0%      0.0%
 flops   100 x    68 x     3                40800       0.0%    100.0%      0.0%
 flops   100 x   100 x     3                60000       0.0%    100.0%      0.0%
 flops    68 x    68 x     3                83232       0.0%    100.0%      0.0%
 flops   100 x   100 x     5               100000       0.0%    100.0%      0.0%
 flops   116 x   100 x     5               116000       0.0%    100.0%      0.0%
 flops   116 x   116 x     5               134560       0.0%    100.0%      0.0%
 flops   100 x   100 x     9               180000       0.0%    100.0%      0.0%
 flops   100 x   116 x     9               208800       0.0%    100.0%      0.0%
 flops   116 x   100 x     9               208800       0.0%    100.0%      0.0%
 flops    68 x   100 x     6               326400       0.0%    100.0%      0.0%
 flops   100 x    68 x     6               326400       0.0%    100.0%      0.0%
 flops   100 x   100 x     6               360000       0.0%    100.0%      0.0%
 flops    68 x   100 x     9               367200       0.0%    100.0%      0.0%
 flops   100 x    68 x     9               367200       0.0%    100.0%      0.0%
 flops    68 x    68 x     6               554880       0.0%    100.0%      0.0%
 flops   116 x   116 x     9               726624       0.0%    100.0%      0.0%
 flops   100 x    52 x    18               748800       0.0%    100.0%      0.0%
 flops    52 x   100 x    18               748800       0.0%    100.0%      0.0%
 flops    68 x   116 x     9               851904       0.0%    100.0%      0.0%
 flops   116 x    68 x     9               851904       0.0%    100.0%      0.0%
 flops    52 x    52 x    18               973440       0.0%    100.0%      0.0%
 flops   100 x   100 x    18              1080000       0.0%    100.0%      0.0%
 flops   100 x   100 x     8              1600000       0.0%    100.0%      0.0%
 flops    68 x    68 x     9              1747872       0.0%    100.0%      0.0%
 flops inhomo. stacks                           0       0.0%      0.0%      0.0%
 flops total                        12.804416E+06       0.0%    100.0%      0.0%
 flops max/rank                      1.267200E+06       0.0%    100.0%      0.0%
 matmuls inhomo. stacks                         0       0.0%      0.0%      0.0%
 matmuls total                                106       0.0%    100.0%      0.0%
 number of processed stacks                    49       0.0%    100.0%      0.0%
 average stack size                                     0.0       2.2       0.0
 marketing flops                    21.883648E+06
 -------------------------------------------------------------------------------
 # multiplications                              1
 max memory usage/rank             441.245696E+06
 # max total images/rank                        3
 # max 3D layers                                1
 # MPI messages exchanged                     252
 MPI messages size (bytes):
  total size                       523.776000E+03
  min size                           0.000000E+00
  max size                          36.288000E+03
  average size                       2.078476E+03
 MPI breakdown and total messages size (bytes):
             size <=      128                 215                        0
       128 < size <=     8192                  10                    42848
      8192 < size <=    32768                  25                   408352
     32768 < size <=   131072                   2                    72576
    131072 < size <=  4194304                   0                        0
   4194304 < size <= 16777216                   0                        0
  16777216 < size                               0                        0
 -------------------------------------------------------------------------------

 *** WARNING in dbcsr_mm.F:297 :: Using a non-square number of MPI ranks ***
 *** might lead to poor performance. Used ranks: 6 Suggested: 4 9        ***

 -------------------------------------------------------------------------------
 -                                                                             -
 -                      DBCSR MESSAGE PASSING PERFORMANCE                      -
 -                                                                             -
 -------------------------------------------------------------------------------
 ROUTINE             CALLS      AVE VOLUME [Bytes]
 MP_Bcast               26                     12.
 MP_Allreduce           76                     23.
 MP_Alltoall        212241                  46346.
 MP_ISend               18                   3676.
 MP_IRecv               20                    427.
 -------------------------------------------------------------------------------

 -------------------------------------------------------------------------------
 -                                                                             -
 -                                GRID STATISTICS                              -
 -                                                                             -
 -------------------------------------------------------------------------------
 LP    KERNEL    OPERATION                                     COUNT     PERCENT
 0     general   collocate                                       180       0.51%
 0     ortho     integrate                                      4836      13.74%
 0     ortho     collocate                                      4836      13.74%
 1     ortho     integrate                                      1424       4.04%
 1     ortho     collocate                                      1424       4.04%
 2     ortho     integrate                                      1047       2.97%
 2     ortho     collocate                                      1047       2.97%
 3     ortho     integrate                                      6308      17.92%
 3     ortho     collocate                                      6308      17.92%
 4     ortho     integrate                                      1518       4.31%
 4     ortho     collocate                                      1518       4.31%
 5     ortho     integrate                                       444       1.26%
 5     ortho     collocate                                       444       1.26%
 6     ortho     integrate                                      1608       4.57%
 6     ortho     collocate                                      1608       4.57%
 7     ortho     integrate                                       264       0.75%
 7     ortho     collocate                                       264       0.75%
 8     ortho     integrate                                        64       0.18%
 8     ortho     collocate                                        64       0.18%
 -------------------------------------------------------------------------------

 MEMORY| Estimated peak process memory [MiB]                                 814

 -------------------------------------------------------------------------------
 -                                                                             -
 -                         MESSAGE PASSING PERFORMANCE                         -
 -                                                                             -
 -------------------------------------------------------------------------------

 ROUTINE             CALLS      AVE VOLUME [Bytes]
 MP_Bcast            10662                   3486.
 MP_Allreduce        46110                     39.
 MP_Sync             10611
 MP_Alltoall            45               21350166.
 MP_ISendRecv           30                 676608.
 MP_Wait                60
 MP_comm_split        7075
 MP_ISend               24                2786400.
 MP_IRecv               24                2786400.
 -------------------------------------------------------------------------------


 -------------------------------------------------------------------------------
 -                                                                             -
 -                           R E F E R E N C E S                               -
 -                                                                             -
 -------------------------------------------------------------------------------
 
 CP2K version 8.0 (Development Version), the CP2K developers group (2020).
 CP2K is freely available from https://www.cp2k.org/ .

 Kuehne,Thomas D.; Iannuzzi,Marcella; Del Ben,Mauro;
 Rybkin,Vladimir V.; Seewald,Patrick; Stein,Frederick; Laino,Teodoro;
 Khaliullin,Rustam Z.; Schuett,Ole; Schiffmann,Florian; Golze,Dorothea;
 Wilhelm,Jan; Chulkov,Sergey; Bani-Hashemian,Mohammad Hossein;
 Weber,Valery; Borstnik,Urban; Taillefumier,Mathieu;
 Jakobovits,Alice Shoshana; Lazzaro,Alfio; Pabst,Hans; Mueller,Tiziano;
 Schade,Robert; Guidon,Manuel; Andermatt,Samuel; Holmberg,Nico;
 Schenter,Gregory K.; Hehn,Anna; Bussy,Augustin; Belleflamme,Fabian;
 Tabacchi,Gloria; Gloess,Andreas; Lass,Michael; Bethune,Iain;
 Mundy,Christopher J.; Plessl,Christian; Watkins,Matt;
 VandeVondele,Joost; Krack,Matthias; Hutter,Juerg. 
 The Journal of Chemical Physics, 152 (19), (2020). 
 CP2K: An electronic structure and molecular dynamics software package -
 Quickstep: Efficient and accurate electronic structure calculations.
 https://doi.org/10.1063/5.0007045

 Schuett, Ole; Messmer, Peter; Hutter, Juerg; VandeVondele, Joost. 
 Electronic Structure Calculations on Graphics Processing Units, John
 Wiley & Sons, Ltd, 173-190 (2016). 
 GPU-Accelerated Sparse Matrix-Matrix Multiplication for
 Linear Scaling Density Functional Theory.
 https://doi.org/10.1002/9781118670712.ch8

 Borstnik, U; VandeVondele, J; Weber, V; Hutter, J. 
 PARALLEL COMPUTING, 40 (5-6), 47-58 (2014). 
 Sparse matrix multiplication: The distributed block-compressed sparse
 row library.
 https://doi.org/10.1016/j.parco.2014.03.012

 Hutter, J; Iannuzzi, M; Schiffmann, F; VandeVondele, J. 
 WIREs Comput Mol Sci., 4 (1), 15-25 (2014). 
 CP2K: atomistic simulations of condensed matter systems.
 https://doi.org/10.1002/wcms.1159

 Marek, A; Blum, V; Johanni, R; Havu, V; Lang, B; Auckenthaler, T;
 Heinecke, A; Bungartz, H; Lederer, H. 
 Journal of Physics: Condensed Matter, 26 (21), (2014). 
 The ELPA library: scalable parallel eigenvalue solutions for
 electronic structure
 theory and computational science.
 https://doi.org/10.1088/0953-8984/26/21/213201

 Guidon, M; Hutter, J; VandeVondele, J. 
 JOURNAL OF CHEMICAL THEORY AND COMPUTATION, 6 (8), 2348-2364 (2010). 
 Auxiliary Density Matrix Methods for Hartree-Fock Exchange Calculations.
 https://doi.org/10.1021/ct1002225

 VandeVondele, J; Hutter, J. 
 JOURNAL OF CHEMICAL PHYSICS, 127 (11), 114105 (2007). 
 Gaussian basis sets for accurate calculations on molecular systems in
 gas and condensed phases.
 https://doi.org/10.1063/1.2770708

 Krack, M. 
 THEORETICAL CHEMISTRY ACCOUNTS, 114 (1-3), 145-152 (2005). 
 Pseudopotentials for H to Kr optimized for gradient-corrected
 exchange-correlation functionals.
 https://doi.org/10.1007/s00214-005-0655-y

 VandeVondele, J; Krack, M; Mohamed, F; Parrinello, M; Chassaing, T;
 Hutter, J. COMPUTER PHYSICS COMMUNICATIONS, 167 (2), 103-128 (2005). 
 QUICKSTEP: Fast and accurate density functional calculations using a
 mixed Gaussian and plane waves approach.
 https://doi.org/10.1016/j.cpc.2004.12.014

 Frigo, M; Johnson, SG. 
 PROCEEDINGS OF THE IEEE, 93 (2), 216-231 (2005). 
 The design and implementation of FFTW3.
 https://doi.org/10.1109/JPROC.2004.840301

 Martyna, GJ; Tuckerman, ME. 
 JOURNAL OF CHEMICAL PHYSICS, 110 (6), 2810-2821 (1999). 
 A reciprocal space based method for treating long range interactions in
 ab initio and force-field-based calculations in clusters.
 https://doi.org/10.1063/1.477923

 Hartwigsen, C; Goedecker, S; Hutter, J. 
 PHYSICAL REVIEW B, 58 (7), 3641-3662 (1998). 
 Relativistic separable dual-space Gaussian pseudopotentials from H to Rn.
 https://doi.org/10.1103/PhysRevB.58.3641

 Lippert, G; Hutter, J; Parrinello, M. 
 MOLECULAR PHYSICS, 92 (3), 477-487 (1997). 
 A hybrid Gaussian and plane wave density functional scheme.
 https://doi.org/10.1080/002689797170220

 Perdew, JP; Burke, K; Ernzerhof, M. 
 PHYSICAL REVIEW LETTERS, 77 (18), 3865-3868 (1996). 
 Generalized gradient approximation made simple.
 https://doi.org/10.1103/PhysRevLett.77.3865

 Goedecker, S; Teter, M; Hutter, J. 
 PHYSICAL REVIEW B, 54 (3), 1703-1710 (1996). 
 Separable dual-space Gaussian pseudopotentials.
 https://doi.org/10.1103/PhysRevB.54.1703


 -------------------------------------------------------------------------------
 -                                                                             -
 -                                T I M I N G                                  -
 -                                                                             -
 -------------------------------------------------------------------------------
 SUBROUTINE                       CALLS  ASD         SELF TIME        TOTAL TIME
                                MAXIMUM       AVERAGE  MAXIMUM  AVERAGE  MAXIMUM
 CP2K                                 1  1.0    0.002    0.005  402.745  402.751
 run_optimize_basis                   1  2.0    0.002    0.004  402.736  402.742
 driver_para_opt_basis                1  3.0    0.000    0.000  402.725  402.731
 driver_optimization_para_low         1  4.0    0.045    0.069  402.724  402.731
 compute_residuum_vectors          3537  5.0    0.179    0.243  398.406  398.613
 mp_sum_dv                        17686  5.8  264.613  361.898  264.613  361.898
 cp_gemm                          42444  7.2    0.059    0.089  102.763  348.038
 cp_gemm_fm_gemm                  42444  8.2    0.037    0.053  102.704  347.949
 cp_fm_gemm                       42444  9.2  102.667  347.896  102.667  347.896
 admm_fit_mo_coeffs                3537  6.0    0.008    0.016   48.393  136.725
 fit_mo_coeffs                     3537  7.0    0.030    0.034   33.704  107.945
 purify_mo_diag                    3537  7.0    0.039    0.061   14.681   30.035
 copy_dbcsr_to_fm                 17686  6.8    0.172    0.282   10.983   16.833
 cp_fm_syevd                       7074  7.0    0.021    0.028   10.486   14.750
 cp_fm_redistribute_end            7074  8.0    3.490   11.918    3.564   12.024
 cp_fm_upper_to_full              10613  7.3    4.251   12.007    4.251   12.007
 cp_fm_syevd_base                  7074  8.0    4.336   10.505    4.336   10.505
 dbcsr_complete_redistribute      17687  7.8    1.267    2.821    6.483   10.262
 -------------------------------------------------------------------------------

 The number of warnings for this run is : 1
 
 -------------------------------------------------------------------------------
  **** **** ******  **  PROGRAM ENDED AT                 2020-12-07 11:51:42.203
 ***** ** ***  *** **   PROGRAM RAN ON                                   tcopt10
 **    ****   ******    PROGRAM RAN BY                                    hutter
 ***** **    ** ** **   PROGRAM PROCESS ID                                 13817
  **** **  *******  **  PROGRAM STOPPED IN /data/hutter/GITHUB/BASIS/MOLOPT/PBE0
                                           /Be
