
  **** **** ******  **  PROGRAM STARTED AT               2021-01-20 14:22:11.172
 ***** ** ***  *** **   PROGRAM STARTED ON                               tcopt10
 **    ****   ******    PROGRAM STARTED BY                                hutter
 ***** **    ** ** **   PROGRAM PROCESS ID                                  6040
  **** **  *******  **  PROGRAM STARTED IN /data/hutter/GITHUB/BASIS/MOLOPT/PBE/
                                           Sc

 CP2K| version string:                    CP2K version 9.0 (Development Version)
 CP2K| source code revision number:                                  git:7d6847f
 CP2K| cp2kflags: omp libint fftw3 libxc elpa parallel mpi3 scalapack xsmm spgli
 CP2K|            b sirius libvori libbqb
 CP2K| is freely available from                            https://www.cp2k.org/
 CP2K| Program compiled at                          Fre Jan 15 16:26:00 CET 2021
 CP2K| Program compiled on                                               tcopt10
 CP2K| Program compiled for                                                local
 CP2K| Data directory path                 /data/hutter/GITHUB/CURRENT/cp2k/data
 CP2K| Input file name                                               opt-all.inp

 GLOBAL| Method name                                              OPTIMIZE_BASIS
 GLOBAL| Project name                                                     molopt
 GLOBAL| Preferred FFT library                                             FFTW3
 GLOBAL| Preferred diagonalization lib.                                     ELPA
 GLOBAL| Run type                                                   ENERGY_FORCE
 GLOBAL| All-to-all communication in single precision                          F
 GLOBAL| FFTs using library dependent lengths                                  F
 GLOBAL| Global print level                                               MEDIUM
 GLOBAL| MPI I/O enabled                                                       T
 GLOBAL| Total number of message passing processes                            48
 GLOBAL| Number of threads for this process                                    1
 GLOBAL| This output is from process                                           0
 GLOBAL| CPU model name                          AMD EPYC 7401 24-Core Processor
 GLOBAL| CPUID                                                              1002

 MEMORY| system memory details [Kb]
 MEMORY|                        rank 0           min           max       average
 MEMORY| MemTotal            263969964     263969964     263969964     263969964
 MEMORY| MemFree             259014632     259014632     259014632     259014632
 MEMORY| Buffers                    20            20            20            20
 MEMORY| Cached                1042012       1042012       1042012       1042012
 MEMORY| Slab                   585544        585544        585544        585544
 MEMORY| SReclaimable           230920        230920        230920        230920
 MEMORY| MemLikelyFree       260287584     260287584     260287584     260287584


 *** Fundamental physical constants (SI units) ***

 *** Literature: B. J. Mohr and B. N. Taylor,
 ***             CODATA recommended values of the fundamental physical
 ***             constants: 2006, Web Version 5.1
 ***             http://physics.nist.gov/constants

 Speed of light in vacuum [m/s]                             2.99792458000000E+08
 Magnetic constant or permeability of vacuum [N/A**2]       1.25663706143592E-06
 Electric constant or permittivity of vacuum [F/m]          8.85418781762039E-12
 Planck constant (h) [J*s]                                  6.62606896000000E-34
 Planck constant (h-bar) [J*s]                              1.05457162825177E-34
 Elementary charge [C]                                      1.60217648700000E-19
 Electron mass [kg]                                         9.10938215000000E-31
 Electron g factor [ ]                                     -2.00231930436220E+00
 Proton mass [kg]                                           1.67262163700000E-27
 Fine-structure constant                                    7.29735253760000E-03
 Rydberg constant [1/m]                                     1.09737315685270E+07
 Avogadro constant [1/mol]                                  6.02214179000000E+23
 Boltzmann constant [J/K]                                   1.38065040000000E-23
 Atomic mass unit [kg]                                      1.66053878200000E-27
 Bohr radius [m]                                            5.29177208590000E-11

 *** Conversion factors ***

 [u] -> [a.u.]                                              1.82288848426455E+03
 [Angstrom] -> [Bohr] = [a.u.]                              1.88972613288564E+00
 [a.u.] = [Bohr] -> [Angstrom]                              5.29177208590000E-01
 [a.u.] -> [s]                                              2.41888432650478E-17
 [a.u.] -> [fs]                                             2.41888432650478E-02
 [a.u.] -> [J]                                              4.35974393937059E-18
 [a.u.] -> [N]                                              8.23872205491840E-08
 [a.u.] -> [K]                                              3.15774647902944E+05
 [a.u.] -> [kJ/mol]                                         2.62549961709828E+03
 [a.u.] -> [kcal/mol]                                       6.27509468713739E+02
 [a.u.] -> [Pa]                                             2.94210107994716E+13
 [a.u.] -> [bar]                                            2.94210107994716E+08
 [a.u.] -> [atm]                                            2.90362800883016E+08
 [a.u.] -> [eV]                                             2.72113838565563E+01
 [a.u.] -> [Hz]                                             6.57968392072181E+15
 [a.u.] -> [1/cm] (wave numbers)                            2.19474631370540E+05
 [a.u./Bohr**2] -> [1/cm]                                   5.14048714338585E+03
 
 DBCSR| CPU Multiplication driver                                           XSMM
 DBCSR| Multrec recursion limit                                              512
 DBCSR| Multiplication stack size                                           1000
 DBCSR| Maximum elements for images                                    UNLIMITED
 DBCSR| Multiplicative factor virtual images                                   1
 DBCSR| Use multiplication densification                                       T
 DBCSR| Multiplication size stacks                                             3
 DBCSR| Use memory pool for CPU allocation                                     F
 DBCSR| Number of 3D layers                                               SINGLE
 DBCSR| Use MPI memory allocation                                              F
 DBCSR| Use RMA algorithm                                                      F
 DBCSR| Use Communication thread                                               T
 DBCSR| Communication thread load                                             87
 DBCSR| MPI: My node id                                                        0
 DBCSR| MPI: Number of nodes                                                  48
 DBCSR| OMP: Current number of threads                                         1
 DBCSR| OMP: Max number of threads                                             1
 DBCSR| Split modifier for TAS multiplication algorithm                  1.0E+00

 BASOPT| Total number of calculations     12

 BASOPT| Content of basis combination      1
 BASOPT|     Element:   SC    Basis set:    TZV2P-MOLOPT-PBE-GTH-Q11
 BASOPT|     Element:   CL    Basis set:    TZV2P-MOLOPT-PBE-GTH-Q7
 BASOPT|     Element:    O    Basis set:    TZV2P-MOLOPT-PBE-GTH-Q6
 BASOPT|     Element:    H    Basis set:    TZV2P-MOLOPT-PBE-GTH-Q1
 BASOPT|     Element:    F    Basis set:    TZV2P-MOLOPT-PBE-GTH-Q7

 BASOPT| Content of basis combination      2
 BASOPT|     Element:   SC    Basis set:    TZVP-MOLOPT-PBE-GTH-q11
 BASOPT|     Element:   CL    Basis set:    TZVP-MOLOPT-PBE-GTH-q7
 BASOPT|     Element:    O    Basis set:    TZVP-MOLOPT-PBE-GTH-q6
 BASOPT|     Element:    H    Basis set:    TZVP-MOLOPT-PBE-GTH-q1
 BASOPT|     Element:    F    Basis set:    TZVP-MOLOPT-PBE-GTH-q7

 BASOPT| Content of basis combination      3
 BASOPT|     Element:   SC    Basis set:    DZVP-MOLOPT-PBE-GTH-q11
 BASOPT|     Element:   CL    Basis set:    DZVP-MOLOPT-PBE-GTH-q7
 BASOPT|     Element:    O    Basis set:    DZVP-MOLOPT-PBE-GTH-q6
 BASOPT|     Element:    H    Basis set:    DZVP-MOLOPT-PBE-GTH-q1
 BASOPT|     Element:    F    Basis set:    DZVP-MOLOPT-PBE-GTH-q7

 BASOPT| Information at iteration number:       0
 BASOPT| Training set | Combination | Rho difference | Condition num. | Time
 BASOPT| -----------------------------------------------------------------------
 BASOPT|        1     |       1     | 0.14620519E-02 | 0.34362795E+03 |    0.116
 BASOPT|        1     |       2     | 0.23853292E-02 | 0.13386159E+03 |    0.080
 BASOPT|        1     |       3     | 0.42288706E-02 | 0.82275192E+02 |    0.067
 BASOPT|        2     |       1     | 0.86522837E-03 | 0.28309775E+03 |    0.137
 BASOPT|        2     |       2     | 0.13803604E-02 | 0.22041968E+03 |    0.095
 BASOPT|        2     |       3     | 0.23058103E-02 | 0.87644267E+02 |    0.080
 BASOPT|        3     |       1     | 0.47300088E-03 | 0.23645652E+03 |    0.056
 BASOPT|        3     |       2     | 0.10750192E-02 | 0.19698213E+03 |    0.038
 BASOPT|        3     |       3     | 0.15314023E-02 | 0.23738949E+02 |    0.036
 BASOPT|        4     |       1     | 0.18295828E-02 | 0.48523408E+03 |    0.041
 BASOPT|        4     |       2     | 0.25279942E-02 | 0.30568502E+03 |    0.034
 BASOPT|        4     |       3     | 0.47716187E-02 | 0.83355248E+02 |    0.029
 BASOPT| -----------------------------------------------------------------------
 BASOPT| Total residuum value: -.21802629E+04

 BASOPT| Information at iteration number:     100
 BASOPT| Training set | Combination | Rho difference | Condition num. | Time
 BASOPT| -----------------------------------------------------------------------
 BASOPT|        1     |       1     | 0.18541380E-02 | 0.37403770E+03 |   11.502
 BASOPT|        1     |       2     | 0.27957831E-02 | 0.14359198E+03 |    7.999
 BASOPT|        1     |       3     | 0.55899394E-02 | 0.87684559E+02 |    6.594
 BASOPT|        2     |       1     | 0.12232736E-02 | 0.31803766E+03 |   11.271
 BASOPT|        2     |       2     | 0.17624613E-02 | 0.22620974E+03 |    8.060
 BASOPT|        2     |       3     | 0.34430331E-02 | 0.99092594E+02 |    6.446
 BASOPT|        3     |       1     | 0.85797893E-03 | 0.23677916E+03 |    4.815
 BASOPT|        3     |       2     | 0.15016541E-02 | 0.19828070E+03 |    3.422
 BASOPT|        3     |       3     | 0.28242259E-02 | 0.25160455E+02 |    2.962
 BASOPT|        4     |       1     | 0.29126752E-02 | 0.51496505E+03 |    3.973
 BASOPT|        4     |       2     | 0.36269976E-02 | 0.32654657E+03 |    3.282
 BASOPT|        4     |       3     | 0.10160027E-01 | 0.87209144E+02 |    2.768
 BASOPT| -----------------------------------------------------------------------
 BASOPT| Total residuum value: -.21790091E+04

 BASOPT| Information at iteration number:     200
 BASOPT| Training set | Combination | Rho difference | Condition num. | Time
 BASOPT| -----------------------------------------------------------------------
 BASOPT|        1     |       1     | 0.14657301E-02 | 0.34187506E+03 |   22.885
 BASOPT|        1     |       2     | 0.23887503E-02 | 0.13326411E+03 |   15.918
 BASOPT|        1     |       3     | 0.42348706E-02 | 0.81614980E+02 |   13.092
 BASOPT|        2     |       1     | 0.86802425E-03 | 0.28383596E+03 |   22.402
 BASOPT|        2     |       2     | 0.13852484E-02 | 0.21992990E+03 |   16.030
 BASOPT|        2     |       3     | 0.23415233E-02 | 0.85655878E+02 |   12.812
 BASOPT|        3     |       1     | 0.47630409E-03 | 0.23683380E+03 |    9.573
 BASOPT|        3     |       2     | 0.10778017E-02 | 0.19718838E+03 |    6.807
 BASOPT|        3     |       3     | 0.14871264E-02 | 0.23245389E+02 |    5.916
 BASOPT|        4     |       1     | 0.18253945E-02 | 0.48996987E+03 |    7.906
 BASOPT|        4     |       2     | 0.25266243E-02 | 0.30723205E+03 |    6.534
 BASOPT|        4     |       3     | 0.48984227E-02 | 0.81765275E+02 |    5.504
 BASOPT| -----------------------------------------------------------------------
 BASOPT| Total residuum value: -.21802588E+04

 BASOPT| Information at iteration number:     300
 BASOPT| Training set | Combination | Rho difference | Condition num. | Time
 BASOPT| -----------------------------------------------------------------------
 BASOPT|        1     |       1     | 0.14641695E-02 | 0.34164291E+03 |   34.268
 BASOPT|        1     |       2     | 0.23879099E-02 | 0.13318939E+03 |   23.834
 BASOPT|        1     |       3     | 0.42561767E-02 | 0.81504772E+02 |   19.560
 BASOPT|        2     |       1     | 0.86799806E-03 | 0.28305015E+03 |   33.532
 BASOPT|        2     |       2     | 0.13848963E-02 | 0.21926580E+03 |   24.008
 BASOPT|        2     |       3     | 0.23532628E-02 | 0.85058031E+02 |   19.174
 BASOPT|        3     |       1     | 0.47344706E-03 | 0.23652940E+03 |   14.353
 BASOPT|        3     |       2     | 0.10739876E-02 | 0.19718304E+03 |   10.191
 BASOPT|        3     |       3     | 0.14853983E-02 | 0.23157883E+02 |    8.865
 BASOPT|        4     |       1     | 0.18243356E-02 | 0.48801288E+03 |   11.842
 BASOPT|        4     |       2     | 0.25250360E-02 | 0.30624448E+03 |    9.782
 BASOPT|        4     |       3     | 0.48406034E-02 | 0.81362865E+02 |    8.239
 BASOPT| -----------------------------------------------------------------------
 BASOPT| Total residuum value: -.21802640E+04

 BASOPT| Information at iteration number:     400
 BASOPT| Training set | Combination | Rho difference | Condition num. | Time
 BASOPT| -----------------------------------------------------------------------
 BASOPT|        1     |       1     | 0.14639266E-02 | 0.34197004E+03 |   45.637
 BASOPT|        1     |       2     | 0.23866518E-02 | 0.13336943E+03 |   31.748
 BASOPT|        1     |       3     | 0.42636650E-02 | 0.81607943E+02 |   26.029
 BASOPT|        2     |       1     | 0.86801691E-03 | 0.28345942E+03 |   44.662
 BASOPT|        2     |       2     | 0.13851531E-02 | 0.21992511E+03 |   31.976
 BASOPT|        2     |       3     | 0.23544101E-02 | 0.85066478E+02 |   25.533
 BASOPT|        3     |       1     | 0.47316486E-03 | 0.23632246E+03 |   19.107
 BASOPT|        3     |       2     | 0.10757381E-02 | 0.19710669E+03 |   13.573
 BASOPT|        3     |       3     | 0.14763383E-02 | 0.23176817E+02 |   11.824
 BASOPT|        4     |       1     | 0.18237044E-02 | 0.48900713E+03 |   15.776
 BASOPT|        4     |       2     | 0.25252192E-02 | 0.30704800E+03 |   13.033
 BASOPT|        4     |       3     | 0.48298751E-02 | 0.81317310E+02 |   10.974
 BASOPT| -----------------------------------------------------------------------
 BASOPT| Total residuum value: -.21802646E+04

 BASOPT| Information at iteration number:     500
 BASOPT| Training set | Combination | Rho difference | Condition num. | Time
 BASOPT| -----------------------------------------------------------------------
 BASOPT|        1     |       1     | 0.14637052E-02 | 0.34210143E+03 |   57.006
 BASOPT|        1     |       2     | 0.23852705E-02 | 0.13347861E+03 |   39.661
 BASOPT|        1     |       3     | 0.42718073E-02 | 0.81713551E+02 |   32.505
 BASOPT|        2     |       1     | 0.86618901E-03 | 0.28371408E+03 |   55.791
 BASOPT|        2     |       2     | 0.13818719E-02 | 0.22019578E+03 |   39.940
 BASOPT|        2     |       3     | 0.23510156E-02 | 0.84915851E+02 |   31.894
 BASOPT|        3     |       1     | 0.47331448E-03 | 0.23601482E+03 |   23.860
 BASOPT|        3     |       2     | 0.10733832E-02 | 0.19704091E+03 |   16.956
 BASOPT|        3     |       3     | 0.14695648E-02 | 0.23191153E+02 |   14.763
 BASOPT|        4     |       1     | 0.18261213E-02 | 0.48937488E+03 |   19.710
 BASOPT|        4     |       2     | 0.25254153E-02 | 0.30757473E+03 |   16.308
 BASOPT|        4     |       3     | 0.48137162E-02 | 0.81148127E+02 |   13.708
 BASOPT| -----------------------------------------------------------------------
 BASOPT| Total residuum value: -.21802652E+04

 BASOPT| Information at iteration number:     600
 BASOPT| Training set | Combination | Rho difference | Condition num. | Time
 BASOPT| -----------------------------------------------------------------------
 BASOPT|        1     |       1     | 0.14631269E-02 | 0.34162333E+03 |   68.405
 BASOPT|        1     |       2     | 0.23833785E-02 | 0.13361252E+03 |   47.583
 BASOPT|        1     |       3     | 0.42787264E-02 | 0.81743680E+02 |   38.994
 BASOPT|        2     |       1     | 0.86464250E-03 | 0.28374864E+03 |   66.920
 BASOPT|        2     |       2     | 0.13787194E-02 | 0.22010737E+03 |   47.905
 BASOPT|        2     |       3     | 0.23482139E-02 | 0.84986007E+02 |   38.258
 BASOPT|        3     |       1     | 0.47361077E-03 | 0.23573341E+03 |   28.623
 BASOPT|        3     |       2     | 0.10720081E-02 | 0.19690441E+03 |   20.338
 BASOPT|        3     |       3     | 0.14599670E-02 | 0.23223709E+02 |   17.700
 BASOPT|        4     |       1     | 0.18294238E-02 | 0.48921959E+03 |   23.644
 BASOPT|        4     |       2     | 0.25282749E-02 | 0.30779909E+03 |   19.571
 BASOPT|        4     |       3     | 0.47946510E-02 | 0.80981525E+02 |   16.442
 BASOPT| -----------------------------------------------------------------------
 BASOPT| Total residuum value: -.21802656E+04

 BASOPT| Information at iteration number:     700
 BASOPT| Training set | Combination | Rho difference | Condition num. | Time
 BASOPT| -----------------------------------------------------------------------
 BASOPT|        1     |       1     | 0.14625974E-02 | 0.34142481E+03 |   79.777
 BASOPT|        1     |       2     | 0.23808788E-02 | 0.13378719E+03 |   55.512
 BASOPT|        1     |       3     | 0.42876648E-02 | 0.81801330E+02 |   45.472
 BASOPT|        2     |       1     | 0.86495704E-03 | 0.28397070E+03 |   78.049
 BASOPT|        2     |       2     | 0.13793066E-02 | 0.22064566E+03 |   55.880
 BASOPT|        2     |       3     | 0.23503183E-02 | 0.84952181E+02 |   44.623
 BASOPT|        3     |       1     | 0.47337497E-03 | 0.23554378E+03 |   33.381
 BASOPT|        3     |       2     | 0.10709262E-02 | 0.19685806E+03 |   23.721
 BASOPT|        3     |       3     | 0.14503335E-02 | 0.23244915E+02 |   20.640
 BASOPT|        4     |       1     | 0.18293706E-02 | 0.48929615E+03 |   27.578
 BASOPT|        4     |       2     | 0.25293430E-02 | 0.30830545E+03 |   22.836
 BASOPT|        4     |       3     | 0.47742766E-02 | 0.80802281E+02 |   19.177
 BASOPT| -----------------------------------------------------------------------
 BASOPT| Total residuum value: -.21802660E+04

 BASOPT| Information at iteration number:     800
 BASOPT| Training set | Combination | Rho difference | Condition num. | Time
 BASOPT| -----------------------------------------------------------------------
 BASOPT|        1     |       1     | 0.14624099E-02 | 0.34060276E+03 |   91.177
 BASOPT|        1     |       2     | 0.23790278E-02 | 0.13394521E+03 |   63.433
 BASOPT|        1     |       3     | 0.43039784E-02 | 0.81750832E+02 |   51.938
 BASOPT|        2     |       1     | 0.86539437E-03 | 0.28421913E+03 |   89.177
 BASOPT|        2     |       2     | 0.13799123E-02 | 0.22097304E+03 |   63.849
 BASOPT|        2     |       3     | 0.23555500E-02 | 0.84863873E+02 |   50.985
 BASOPT|        3     |       1     | 0.47373517E-03 | 0.23526811E+03 |   38.155
 BASOPT|        3     |       2     | 0.10707989E-02 | 0.19675187E+03 |   27.104
 BASOPT|        3     |       3     | 0.14395327E-02 | 0.23264002E+02 |   23.580
 BASOPT|        4     |       1     | 0.18301423E-02 | 0.48934036E+03 |   31.512
 BASOPT|        4     |       2     | 0.25319004E-02 | 0.30874243E+03 |   26.089
 BASOPT|        4     |       3     | 0.47368817E-02 | 0.80516062E+02 |   21.910
 BASOPT| -----------------------------------------------------------------------
 BASOPT| Total residuum value: -.21802665E+04

 BASOPT| Information at iteration number:     900
 BASOPT| Training set | Combination | Rho difference | Condition num. | Time
 BASOPT| -----------------------------------------------------------------------
 BASOPT|        1     |       1     | 0.14622685E-02 | 0.34030142E+03 |  102.554
 BASOPT|        1     |       2     | 0.23774031E-02 | 0.13408629E+03 |   71.354
 BASOPT|        1     |       3     | 0.43086892E-02 | 0.81806422E+02 |   58.403
 BASOPT|        2     |       1     | 0.86535035E-03 | 0.28432192E+03 |  100.306
 BASOPT|        2     |       2     | 0.13799995E-02 | 0.22117137E+03 |   71.815
 BASOPT|        2     |       3     | 0.23564259E-02 | 0.84969696E+02 |   57.347
 BASOPT|        3     |       1     | 0.47435022E-03 | 0.23516584E+03 |   42.944
 BASOPT|        3     |       2     | 0.10701137E-02 | 0.19669659E+03 |   30.488
 BASOPT|        3     |       3     | 0.14319963E-02 | 0.23300817E+02 |   26.526
 BASOPT|        4     |       1     | 0.18311644E-02 | 0.48921421E+03 |   35.446
 BASOPT|        4     |       2     | 0.25340779E-02 | 0.30897749E+03 |   29.338
 BASOPT|        4     |       3     | 0.47280128E-02 | 0.80397976E+02 |   24.645
 BASOPT| -----------------------------------------------------------------------
 BASOPT| Total residuum value: -.21802667E+04

 BASOPT| Information at iteration number:    1000
 BASOPT| Training set | Combination | Rho difference | Condition num. | Time
 BASOPT| -----------------------------------------------------------------------
 BASOPT|        1     |       1     | 0.14622394E-02 | 0.33922261E+03 |  113.929
 BASOPT|        1     |       2     | 0.23751625E-02 | 0.13432164E+03 |   79.279
 BASOPT|        1     |       3     | 0.43170309E-02 | 0.81856287E+02 |   64.870
 BASOPT|        2     |       1     | 0.86486409E-03 | 0.28394725E+03 |  111.437
 BASOPT|        2     |       2     | 0.13795785E-02 | 0.22107602E+03 |   79.784
 BASOPT|        2     |       3     | 0.23578278E-02 | 0.85140646E+02 |   63.709
 BASOPT|        3     |       1     | 0.47542040E-03 | 0.23482093E+03 |   47.739
 BASOPT|        3     |       2     | 0.10678074E-02 | 0.19668127E+03 |   33.871
 BASOPT|        3     |       3     | 0.14260284E-02 | 0.23362734E+02 |   29.467
 BASOPT|        4     |       1     | 0.18345527E-02 | 0.48889460E+03 |   39.379
 BASOPT|        4     |       2     | 0.25391577E-02 | 0.30910655E+03 |   32.585
 BASOPT|        4     |       3     | 0.47031293E-02 | 0.80259346E+02 |   27.380
 BASOPT| -----------------------------------------------------------------------
 BASOPT| Total residuum value: -.21802672E+04

 BASOPT| Information at iteration number:    1100
 BASOPT| Training set | Combination | Rho difference | Condition num. | Time
 BASOPT| -----------------------------------------------------------------------
 BASOPT|        1     |       1     | 0.14625713E-02 | 0.33852031E+03 |  125.311
 BASOPT|        1     |       2     | 0.23738334E-02 | 0.13453732E+03 |   87.202
 BASOPT|        1     |       3     | 0.43222382E-02 | 0.81846077E+02 |   71.335
 BASOPT|        2     |       1     | 0.86442484E-03 | 0.28360362E+03 |  122.566
 BASOPT|        2     |       2     | 0.13794015E-02 | 0.22100055E+03 |   87.801
 BASOPT|        2     |       3     | 0.23607268E-02 | 0.85161798E+02 |   70.071
 BASOPT|        3     |       1     | 0.47636061E-03 | 0.23464833E+03 |   52.505
 BASOPT|        3     |       2     | 0.10669261E-02 | 0.19664200E+03 |   37.254
 BASOPT|        3     |       3     | 0.14260431E-02 | 0.23392050E+02 |   32.406
 BASOPT|        4     |       1     | 0.18367465E-02 | 0.48768709E+03 |   43.312
 BASOPT|        4     |       2     | 0.25429313E-02 | 0.30883517E+03 |   35.833
 BASOPT|        4     |       3     | 0.46855628E-02 | 0.80119166E+02 |   30.113
 BASOPT| -----------------------------------------------------------------------
 BASOPT| Total residuum value: -.21802675E+04

 BASOPT| Information at iteration number:    1200
 BASOPT| Training set | Combination | Rho difference | Condition num. | Time
 BASOPT| -----------------------------------------------------------------------
 BASOPT|        1     |       1     | 0.14627020E-02 | 0.33791303E+03 |  136.685
 BASOPT|        1     |       2     | 0.23722971E-02 | 0.13468998E+03 |   95.124
 BASOPT|        1     |       3     | 0.43300905E-02 | 0.81885887E+02 |   77.804
 BASOPT|        2     |       1     | 0.86462642E-03 | 0.28370593E+03 |  133.694
 BASOPT|        2     |       2     | 0.13799455E-02 | 0.22114187E+03 |   95.767
 BASOPT|        2     |       3     | 0.23664292E-02 | 0.85252627E+02 |   76.432
 BASOPT|        3     |       1     | 0.47696170E-03 | 0.23444679E+03 |   57.267
 BASOPT|        3     |       2     | 0.10651873E-02 | 0.19660507E+03 |   40.638
 BASOPT|        3     |       3     | 0.14228080E-02 | 0.23426274E+02 |   35.365
 BASOPT|        4     |       1     | 0.18368544E-02 | 0.48799397E+03 |   47.243
 BASOPT|        4     |       2     | 0.25445313E-02 | 0.30921397E+03 |   39.081
 BASOPT|        4     |       3     | 0.46693967E-02 | 0.80011355E+02 |   32.847
 BASOPT| -----------------------------------------------------------------------
 BASOPT| Total residuum value: -.21802677E+04

 BASOPT| Information at iteration number:    1300
 BASOPT| Training set | Combination | Rho difference | Condition num. | Time
 BASOPT| -----------------------------------------------------------------------
 BASOPT|        1     |       1     | 0.14623884E-02 | 0.33807260E+03 |  148.099
 BASOPT|        1     |       2     | 0.23703957E-02 | 0.13485764E+03 |  103.047
 BASOPT|        1     |       3     | 0.43351990E-02 | 0.82002491E+02 |   84.273
 BASOPT|        2     |       1     | 0.86482519E-03 | 0.28383443E+03 |  144.824
 BASOPT|        2     |       2     | 0.13810081E-02 | 0.22134504E+03 |  103.731
 BASOPT|        2     |       3     | 0.23684038E-02 | 0.85405387E+02 |   82.792
 BASOPT|        3     |       1     | 0.47678390E-03 | 0.23435107E+03 |   62.023
 BASOPT|        3     |       2     | 0.10633575E-02 | 0.19658260E+03 |   44.022
 BASOPT|        3     |       3     | 0.14168506E-02 | 0.23463578E+02 |   38.307
 BASOPT|        4     |       1     | 0.18354287E-02 | 0.48849661E+03 |   51.174
 BASOPT|        4     |       2     | 0.25443936E-02 | 0.30971075E+03 |   42.337
 BASOPT|        4     |       3     | 0.46579575E-02 | 0.79936765E+02 |   35.582
 BASOPT| -----------------------------------------------------------------------
 BASOPT| Total residuum value: -.21802679E+04

 BASOPT| Information at iteration number:    1400
 BASOPT| Training set | Combination | Rho difference | Condition num. | Time
 BASOPT| -----------------------------------------------------------------------
 BASOPT|        1     |       1     | 0.14626688E-02 | 0.33865934E+03 |  159.509
 BASOPT|        1     |       2     | 0.23702798E-02 | 0.13498870E+03 |  110.970
 BASOPT|        1     |       3     | 0.43403394E-02 | 0.82109073E+02 |   90.740
 BASOPT|        2     |       1     | 0.86533553E-03 | 0.28329454E+03 |  155.952
 BASOPT|        2     |       2     | 0.13822364E-02 | 0.22110694E+03 |  111.746
 BASOPT|        2     |       3     | 0.23728459E-02 | 0.85367808E+02 |   89.152
 BASOPT|        3     |       1     | 0.47551555E-03 | 0.23419319E+03 |   66.783
 BASOPT|        3     |       2     | 0.10614561E-02 | 0.19654299E+03 |   47.405
 BASOPT|        3     |       3     | 0.14150343E-02 | 0.23467736E+02 |   41.241
 BASOPT|        4     |       1     | 0.18319497E-02 | 0.48740459E+03 |   55.106
 BASOPT|        4     |       2     | 0.25412380E-02 | 0.30937524E+03 |   45.587
 BASOPT|        4     |       3     | 0.46555272E-02 | 0.79835835E+02 |   38.317
 BASOPT| -----------------------------------------------------------------------
 BASOPT| Total residuum value: -.21802680E+04

 BASOPT| Information at iteration number:    1500
 BASOPT| Training set | Combination | Rho difference | Condition num. | Time
 BASOPT| -----------------------------------------------------------------------
 BASOPT|        1     |       1     | 0.14624038E-02 | 0.33891756E+03 |  170.924
 BASOPT|        1     |       2     | 0.23683475E-02 | 0.13523804E+03 |  118.897
 BASOPT|        1     |       3     | 0.43450775E-02 | 0.82240344E+02 |   97.251
 BASOPT|        2     |       1     | 0.86552425E-03 | 0.28404003E+03 |  167.080
 BASOPT|        2     |       2     | 0.13831491E-02 | 0.22180497E+03 |  119.737
 BASOPT|        2     |       3     | 0.23762099E-02 | 0.85506838E+02 |   95.514
 BASOPT|        3     |       1     | 0.47469630E-03 | 0.23407948E+03 |   71.537
 BASOPT|        3     |       2     | 0.10587221E-02 | 0.19657503E+03 |   50.790
 BASOPT|        3     |       3     | 0.14094464E-02 | 0.23512586E+02 |   44.178
 BASOPT|        4     |       1     | 0.18304588E-02 | 0.48851792E+03 |   59.039
 BASOPT|        4     |       2     | 0.25401938E-02 | 0.31031786E+03 |   48.841
 BASOPT|        4     |       3     | 0.46463772E-02 | 0.79813752E+02 |   41.053
 BASOPT| -----------------------------------------------------------------------
 BASOPT| Total residuum value: -.21802682E+04

 BASOPT| Information at iteration number:    1600
 BASOPT| Training set | Combination | Rho difference | Condition num. | Time
 BASOPT| -----------------------------------------------------------------------
 BASOPT|        1     |       1     | 0.14621507E-02 | 0.33897205E+03 |  182.299
 BASOPT|        1     |       2     | 0.23672726E-02 | 0.13534083E+03 |  126.822
 BASOPT|        1     |       3     | 0.43460852E-02 | 0.82294820E+02 |  103.791
 BASOPT|        2     |       1     | 0.86500067E-03 | 0.28397526E+03 |  178.213
 BASOPT|        2     |       2     | 0.13825777E-02 | 0.22183012E+03 |  127.702
 BASOPT|        2     |       3     | 0.23783396E-02 | 0.85611333E+02 |  101.876
 BASOPT|        3     |       1     | 0.47444422E-03 | 0.23401404E+03 |   76.310
 BASOPT|        3     |       2     | 0.10561689E-02 | 0.19660352E+03 |   54.173
 BASOPT|        3     |       3     | 0.14047200E-02 | 0.23542104E+02 |   47.088
 BASOPT|        4     |       1     | 0.18304197E-02 | 0.48861614E+03 |   62.972
 BASOPT|        4     |       2     | 0.25398471E-02 | 0.31046884E+03 |   52.097
 BASOPT|        4     |       3     | 0.46438689E-02 | 0.79810405E+02 |   43.788
 BASOPT| -----------------------------------------------------------------------
 BASOPT| Total residuum value: -.21802683E+04

 BASOPT| Information at iteration number:    1700
 BASOPT| Training set | Combination | Rho difference | Condition num. | Time
 BASOPT| -----------------------------------------------------------------------
 BASOPT|        1     |       1     | 0.14625412E-02 | 0.33890231E+03 |  193.672
 BASOPT|        1     |       2     | 0.23668860E-02 | 0.13553280E+03 |  134.749
 BASOPT|        1     |       3     | 0.43515220E-02 | 0.82330215E+02 |  110.310
 BASOPT|        2     |       1     | 0.86541930E-03 | 0.28365635E+03 |  189.348
 BASOPT|        2     |       2     | 0.13834274E-02 | 0.22172818E+03 |  135.667
 BASOPT|        2     |       3     | 0.23801924E-02 | 0.85549704E+02 |  108.238
 BASOPT|        3     |       1     | 0.47402229E-03 | 0.23377207E+03 |   81.079
 BASOPT|        3     |       2     | 0.10536706E-02 | 0.19657932E+03 |   57.556
 BASOPT|        3     |       3     | 0.13952734E-02 | 0.23558844E+02 |   49.998
 BASOPT|        4     |       1     | 0.18290424E-02 | 0.48836787E+03 |   66.903
 BASOPT|        4     |       2     | 0.25392679E-02 | 0.31047878E+03 |   55.347
 BASOPT|        4     |       3     | 0.46340666E-02 | 0.79702615E+02 |   46.525
 BASOPT| -----------------------------------------------------------------------
 BASOPT| Total residuum value: -.21802685E+04

 BASOPT| Information at iteration number:    1800
 BASOPT| Training set | Combination | Rho difference | Condition num. | Time
 BASOPT| -----------------------------------------------------------------------
 BASOPT|        1     |       1     | 0.14620835E-02 | 0.33895310E+03 |  205.046
 BASOPT|        1     |       2     | 0.23653729E-02 | 0.13565186E+03 |  142.676
 BASOPT|        1     |       3     | 0.43487621E-02 | 0.82379675E+02 |  116.834
 BASOPT|        2     |       1     | 0.86498148E-03 | 0.28379558E+03 |  200.478
 BASOPT|        2     |       2     | 0.13828996E-02 | 0.22188113E+03 |  143.634
 BASOPT|        2     |       3     | 0.23784563E-02 | 0.85543430E+02 |  114.601
 BASOPT|        3     |       1     | 0.47391248E-03 | 0.23382016E+03 |   85.833
 BASOPT|        3     |       2     | 0.10513882E-02 | 0.19657496E+03 |   60.939
 BASOPT|        3     |       3     | 0.13930240E-02 | 0.23558816E+02 |   52.909
 BASOPT|        4     |       1     | 0.18299524E-02 | 0.48894419E+03 |   70.835
 BASOPT|        4     |       2     | 0.25406943E-02 | 0.31080686E+03 |   58.596
 BASOPT|        4     |       3     | 0.46357843E-02 | 0.79638531E+02 |   49.260
 BASOPT| -----------------------------------------------------------------------
 BASOPT| Total residuum value: -.21802686E+04

 BASOPT| Information at iteration number:    1900
 BASOPT| Training set | Combination | Rho difference | Condition num. | Time
 BASOPT| -----------------------------------------------------------------------
 BASOPT|        1     |       1     | 0.14622340E-02 | 0.33891389E+03 |  216.419
 BASOPT|        1     |       2     | 0.23640934E-02 | 0.13588435E+03 |  150.603
 BASOPT|        1     |       3     | 0.43503142E-02 | 0.82456942E+02 |  123.359
 BASOPT|        2     |       1     | 0.86485344E-03 | 0.28376505E+03 |  211.613
 BASOPT|        2     |       2     | 0.13833287E-02 | 0.22204246E+03 |  151.599
 BASOPT|        2     |       3     | 0.23793668E-02 | 0.85528164E+02 |  120.963
 BASOPT|        3     |       1     | 0.47398996E-03 | 0.23371100E+03 |   90.588
 BASOPT|        3     |       2     | 0.10498060E-02 | 0.19657979E+03 |   64.324
 BASOPT|        3     |       3     | 0.13912150E-02 | 0.23575202E+02 |   55.820
 BASOPT|        4     |       1     | 0.18301088E-02 | 0.48838426E+03 |   74.769
 BASOPT|        4     |       2     | 0.25420915E-02 | 0.31085768E+03 |   61.845
 BASOPT|        4     |       3     | 0.46310254E-02 | 0.79590334E+02 |   51.997
 BASOPT| -----------------------------------------------------------------------
 BASOPT| Total residuum value: -.21802688E+04

 BASOPT| Information at iteration number:    2000
 BASOPT| Training set | Combination | Rho difference | Condition num. | Time
 BASOPT| -----------------------------------------------------------------------
 BASOPT|        1     |       1     | 0.14621703E-02 | 0.33896915E+03 |  227.793
 BASOPT|        1     |       2     | 0.23639230E-02 | 0.13589820E+03 |  158.527
 BASOPT|        1     |       3     | 0.43507641E-02 | 0.82462183E+02 |  129.869
 BASOPT|        2     |       1     | 0.86427882E-03 | 0.28386997E+03 |  222.745
 BASOPT|        2     |       2     | 0.13825044E-02 | 0.22213437E+03 |  159.564
 BASOPT|        2     |       3     | 0.23780641E-02 | 0.85508437E+02 |  127.324
 BASOPT|        3     |       1     | 0.47446598E-03 | 0.23372084E+03 |   95.350
 BASOPT|        3     |       2     | 0.10492695E-02 | 0.19658553E+03 |   67.707
 BASOPT|        3     |       3     | 0.13893387E-02 | 0.23567882E+02 |   58.732
 BASOPT|        4     |       1     | 0.18311764E-02 | 0.48831005E+03 |   78.703
 BASOPT|        4     |       2     | 0.25428059E-02 | 0.31083723E+03 |   65.093
 BASOPT|        4     |       3     | 0.46282295E-02 | 0.79564654E+02 |   54.733
 BASOPT| -----------------------------------------------------------------------
 BASOPT| Total residuum value: -.21802688E+04

 BASOPT| Information at iteration number:    2100
 BASOPT| Training set | Combination | Rho difference | Condition num. | Time
 BASOPT| -----------------------------------------------------------------------
 BASOPT|        1     |       1     | 0.14619490E-02 | 0.33915630E+03 |  239.167
 BASOPT|        1     |       2     | 0.23627788E-02 | 0.13604825E+03 |  166.445
 BASOPT|        1     |       3     | 0.43484876E-02 | 0.82567965E+02 |  136.394
 BASOPT|        2     |       1     | 0.86398688E-03 | 0.28370907E+03 |  233.875
 BASOPT|        2     |       2     | 0.13818812E-02 | 0.22206028E+03 |  167.528
 BASOPT|        2     |       3     | 0.23787437E-02 | 0.85652400E+02 |  133.683
 BASOPT|        3     |       1     | 0.47372758E-03 | 0.23362374E+03 |  100.103
 BASOPT|        3     |       2     | 0.10459590E-02 | 0.19660800E+03 |   71.094
 BASOPT|        3     |       3     | 0.13876840E-02 | 0.23593873E+02 |   61.643
 BASOPT|        4     |       1     | 0.18306392E-02 | 0.48833753E+03 |   82.638
 BASOPT|        4     |       2     | 0.25422234E-02 | 0.31098991E+03 |   68.344
 BASOPT|        4     |       3     | 0.46323128E-02 | 0.79618392E+02 |   57.468
 BASOPT| -----------------------------------------------------------------------
 BASOPT| Total residuum value: -.21802689E+04

 BASOPT| Information at iteration number:    2200
 BASOPT| Training set | Combination | Rho difference | Condition num. | Time
 BASOPT| -----------------------------------------------------------------------
 BASOPT|        1     |       1     | 0.14622367E-02 | 0.33891943E+03 |  250.544
 BASOPT|        1     |       2     | 0.23626874E-02 | 0.13614344E+03 |  174.362
 BASOPT|        1     |       3     | 0.43489839E-02 | 0.82590888E+02 |  142.919
 BASOPT|        2     |       1     | 0.86400377E-03 | 0.28344015E+03 |  245.010
 BASOPT|        2     |       2     | 0.13821269E-02 | 0.22195743E+03 |  175.492
 BASOPT|        2     |       3     | 0.23807535E-02 | 0.85649237E+02 |  140.045
 BASOPT|        3     |       1     | 0.47382103E-03 | 0.23355558E+03 |  104.857
 BASOPT|        3     |       2     | 0.10443739E-02 | 0.19657977E+03 |   74.478
 BASOPT|        3     |       3     | 0.13879535E-02 | 0.23587792E+02 |   64.555
 BASOPT|        4     |       1     | 0.18304780E-02 | 0.48774915E+03 |   86.572
 BASOPT|        4     |       2     | 0.25431532E-02 | 0.31078086E+03 |   71.595
 BASOPT|        4     |       3     | 0.46258246E-02 | 0.79642508E+02 |   60.202
 BASOPT| -----------------------------------------------------------------------
 BASOPT| Total residuum value: -.21802689E+04

 BASOPT| Information at iteration number:    2300
 BASOPT| Training set | Combination | Rho difference | Condition num. | Time
 BASOPT| -----------------------------------------------------------------------
 BASOPT|        1     |       1     | 0.14621160E-02 | 0.33880444E+03 |  261.921
 BASOPT|        1     |       2     | 0.23616793E-02 | 0.13625615E+03 |  182.279
 BASOPT|        1     |       3     | 0.43456479E-02 | 0.82668479E+02 |  149.442
 BASOPT|        2     |       1     | 0.86345065E-03 | 0.28353865E+03 |  256.143
 BASOPT|        2     |       2     | 0.13815865E-02 | 0.22170775E+03 |  183.460
 BASOPT|        2     |       3     | 0.23812736E-02 | 0.85789529E+02 |  146.406
 BASOPT|        3     |       1     | 0.47375860E-03 | 0.23349214E+03 |  109.615
 BASOPT|        3     |       2     | 0.10417395E-02 | 0.19658103E+03 |   77.861
 BASOPT|        3     |       3     | 0.13868164E-02 | 0.23603075E+02 |   67.465
 BASOPT|        4     |       1     | 0.18314273E-02 | 0.48738030E+03 |   90.507
 BASOPT|        4     |       2     | 0.25446960E-02 | 0.31063915E+03 |   74.844
 BASOPT|        4     |       3     | 0.46296693E-02 | 0.79701174E+02 |   62.937
 BASOPT| -----------------------------------------------------------------------
 BASOPT| Total residuum value: -.21802690E+04

 BASOPT| Information at iteration number:    2400
 BASOPT| Training set | Combination | Rho difference | Condition num. | Time
 BASOPT| -----------------------------------------------------------------------
 BASOPT|        1     |       1     | 0.14625225E-02 | 0.33860314E+03 |  273.300
 BASOPT|        1     |       2     | 0.23610310E-02 | 0.13640317E+03 |  190.196
 BASOPT|        1     |       3     | 0.43450839E-02 | 0.82635911E+02 |  155.959
 BASOPT|        2     |       1     | 0.86398745E-03 | 0.28316119E+03 |  267.277
 BASOPT|        2     |       2     | 0.13828704E-02 | 0.22144290E+03 |  191.431
 BASOPT|        2     |       3     | 0.23804911E-02 | 0.85580698E+02 |  152.767
 BASOPT|        3     |       1     | 0.47409779E-03 | 0.23347327E+03 |  114.375
 BASOPT|        3     |       2     | 0.10404677E-02 | 0.19659536E+03 |   81.245
 BASOPT|        3     |       3     | 0.13819270E-02 | 0.23588871E+02 |   70.376
 BASOPT|        4     |       1     | 0.18299807E-02 | 0.48597370E+03 |   94.440
 BASOPT|        4     |       2     | 0.25452043E-02 | 0.31001455E+03 |   78.093
 BASOPT|        4     |       3     | 0.46267659E-02 | 0.79610453E+02 |   65.671
 BASOPT| -----------------------------------------------------------------------
 BASOPT| Total residuum value: -.21802689E+04

 BASOPT| Information at iteration number:    2500
 BASOPT| Training set | Combination | Rho difference | Condition num. | Time
 BASOPT| -----------------------------------------------------------------------
 BASOPT|        1     |       1     | 0.14625239E-02 | 0.33929379E+03 |  284.676
 BASOPT|        1     |       2     | 0.23607450E-02 | 0.13653400E+03 |  198.112
 BASOPT|        1     |       3     | 0.43462599E-02 | 0.82774493E+02 |  162.481
 BASOPT|        2     |       1     | 0.86343576E-03 | 0.28316287E+03 |  278.413
 BASOPT|        2     |       2     | 0.13817039E-02 | 0.22151317E+03 |  199.398
 BASOPT|        2     |       3     | 0.23807001E-02 | 0.85616013E+02 |  159.131
 BASOPT|        3     |       1     | 0.47259110E-03 | 0.23335147E+03 |  119.131
 BASOPT|        3     |       2     | 0.10370811E-02 | 0.19665343E+03 |   84.629
 BASOPT|        3     |       3     | 0.13792451E-02 | 0.23596249E+02 |   73.287
 BASOPT|        4     |       1     | 0.18291849E-02 | 0.48608630E+03 |   98.372
 BASOPT|        4     |       2     | 0.25426757E-02 | 0.31021077E+03 |   81.341
 BASOPT|        4     |       3     | 0.46294318E-02 | 0.79621954E+02 |   68.406
 BASOPT| -----------------------------------------------------------------------
 BASOPT| Total residuum value: -.21802689E+04

 BASOPT| Information at iteration number:    2600
 BASOPT| Training set | Combination | Rho difference | Condition num. | Time
 BASOPT| -----------------------------------------------------------------------
 BASOPT|        1     |       1     | 0.14622589E-02 | 0.33914571E+03 |  296.054
 BASOPT|        1     |       2     | 0.23603491E-02 | 0.13650284E+03 |  206.034
 BASOPT|        1     |       3     | 0.43455461E-02 | 0.82770504E+02 |  168.998
 BASOPT|        2     |       1     | 0.86329816E-03 | 0.28327119E+03 |  289.548
 BASOPT|        2     |       2     | 0.13816640E-02 | 0.22159028E+03 |  207.366
 BASOPT|        2     |       3     | 0.23810592E-02 | 0.85684797E+02 |  165.499
 BASOPT|        3     |       1     | 0.47271932E-03 | 0.23342618E+03 |  123.886
 BASOPT|        3     |       2     | 0.10367793E-02 | 0.19664692E+03 |   88.011
 BASOPT|        3     |       3     | 0.13815051E-02 | 0.23604564E+02 |   76.198
 BASOPT|        4     |       1     | 0.18302199E-02 | 0.48638813E+03 |  102.304
 BASOPT|        4     |       2     | 0.25438672E-02 | 0.31035507E+03 |   84.592
 BASOPT|        4     |       3     | 0.46239015E-02 | 0.79655533E+02 |   71.142
 BASOPT| -----------------------------------------------------------------------
 BASOPT| Total residuum value: -.21802691E+04

 BASOPT| Information at iteration number:    2700
 BASOPT| Training set | Combination | Rho difference | Condition num. | Time
 BASOPT| -----------------------------------------------------------------------
 BASOPT|        1     |       1     | 0.14625056E-02 | 0.33902902E+03 |  307.431
 BASOPT|        1     |       2     | 0.23606235E-02 | 0.13653276E+03 |  213.962
 BASOPT|        1     |       3     | 0.43443479E-02 | 0.82742911E+02 |  175.506
 BASOPT|        2     |       1     | 0.86352084E-03 | 0.28314242E+03 |  300.678
 BASOPT|        2     |       2     | 0.13820525E-02 | 0.22147587E+03 |  215.333
 BASOPT|        2     |       3     | 0.23802760E-02 | 0.85644446E+02 |  171.860
 BASOPT|        3     |       1     | 0.47297985E-03 | 0.23340242E+03 |  128.645
 BASOPT|        3     |       2     | 0.10372075E-02 | 0.19665812E+03 |   91.395
 BASOPT|        3     |       3     | 0.13798879E-02 | 0.23598910E+02 |   79.108
 BASOPT|        4     |       1     | 0.18298128E-02 | 0.48583603E+03 |  106.237
 BASOPT|        4     |       2     | 0.25439393E-02 | 0.31009723E+03 |   87.839
 BASOPT|        4     |       3     | 0.46282099E-02 | 0.79634587E+02 |   73.877
 BASOPT| -----------------------------------------------------------------------
 BASOPT| Total residuum value: -.21802692E+04

 BASOPT| Information at iteration number:    2800
 BASOPT| Training set | Combination | Rho difference | Condition num. | Time
 BASOPT| -----------------------------------------------------------------------
 BASOPT|        1     |       1     | 0.14625744E-02 | 0.33893161E+03 |  318.808
 BASOPT|        1     |       2     | 0.23606255E-02 | 0.13654197E+03 |  221.889
 BASOPT|        1     |       3     | 0.43426646E-02 | 0.82742703E+02 |  182.029
 BASOPT|        2     |       1     | 0.86356920E-03 | 0.28303657E+03 |  311.810
 BASOPT|        2     |       2     | 0.13822072E-02 | 0.22154615E+03 |  223.302
 BASOPT|        2     |       3     | 0.23795929E-02 | 0.85672005E+02 |  178.223
 BASOPT|        3     |       1     | 0.47304387E-03 | 0.23342974E+03 |  133.400
 BASOPT|        3     |       2     | 0.10367271E-02 | 0.19667022E+03 |   94.778
 BASOPT|        3     |       3     | 0.13796609E-02 | 0.23599074E+02 |   82.016
 BASOPT|        4     |       1     | 0.18298151E-02 | 0.48602575E+03 |  110.170
 BASOPT|        4     |       2     | 0.25441788E-02 | 0.31016905E+03 |   91.086
 BASOPT|        4     |       3     | 0.46287618E-02 | 0.79656612E+02 |   76.611
 BASOPT| -----------------------------------------------------------------------
 BASOPT| Total residuum value: -.21802692E+04

 BASOPT| Information at iteration number:    2900
 BASOPT| Training set | Combination | Rho difference | Condition num. | Time
 BASOPT| -----------------------------------------------------------------------
 BASOPT|        1     |       1     | 0.14626402E-02 | 0.33900894E+03 |  330.183
 BASOPT|        1     |       2     | 0.23605724E-02 | 0.13654039E+03 |  229.816
 BASOPT|        1     |       3     | 0.43422991E-02 | 0.82769764E+02 |  188.550
 BASOPT|        2     |       1     | 0.86365225E-03 | 0.28306697E+03 |  322.945
 BASOPT|        2     |       2     | 0.13824265E-02 | 0.22158380E+03 |  231.273
 BASOPT|        2     |       3     | 0.23799963E-02 | 0.85723904E+02 |  184.584
 BASOPT|        3     |       1     | 0.47298394E-03 | 0.23347183E+03 |  138.153
 BASOPT|        3     |       2     | 0.10360979E-02 | 0.19666665E+03 |   98.165
 BASOPT|        3     |       3     | 0.13770446E-02 | 0.23600420E+02 |   84.925
 BASOPT|        4     |       1     | 0.18295363E-02 | 0.48609424E+03 |  114.103
 BASOPT|        4     |       2     | 0.25439352E-02 | 0.31022411E+03 |   94.333
 BASOPT|        4     |       3     | 0.46296343E-02 | 0.79690239E+02 |   79.345
 BASOPT| -----------------------------------------------------------------------
 BASOPT| Total residuum value: -.21802693E+04

 BASOPT| Information at iteration number:    3000
 BASOPT| Training set | Combination | Rho difference | Condition num. | Time
 BASOPT| -----------------------------------------------------------------------
 BASOPT|        1     |       1     | 0.14627666E-02 | 0.33892601E+03 |  341.559
 BASOPT|        1     |       2     | 0.23604972E-02 | 0.13659538E+03 |  237.743
 BASOPT|        1     |       3     | 0.43422408E-02 | 0.82756147E+02 |  195.067
 BASOPT|        2     |       1     | 0.86372019E-03 | 0.28281970E+03 |  334.081
 BASOPT|        2     |       2     | 0.13827065E-02 | 0.22172906E+03 |  239.242
 BASOPT|        2     |       3     | 0.23801780E-02 | 0.85666587E+02 |  190.947
 BASOPT|        3     |       1     | 0.47306527E-03 | 0.23348968E+03 |  142.907
 BASOPT|        3     |       2     | 0.10358158E-02 | 0.19669338E+03 |  101.549
 BASOPT|        3     |       3     | 0.13765151E-02 | 0.23590436E+02 |   87.834
 BASOPT|        4     |       1     | 0.18295447E-02 | 0.48597720E+03 |  118.039
 BASOPT|        4     |       2     | 0.25443156E-02 | 0.31020516E+03 |   97.580
 BASOPT|        4     |       3     | 0.46280795E-02 | 0.79681985E+02 |   82.079
 BASOPT| -----------------------------------------------------------------------
 BASOPT| Total residuum value: -.21802693E+04

 BASOPT| Information at iteration number:    3100
 BASOPT| Training set | Combination | Rho difference | Condition num. | Time
 BASOPT| -----------------------------------------------------------------------
 BASOPT|        1     |       1     | 0.14627832E-02 | 0.33907320E+03 |  352.939
 BASOPT|        1     |       2     | 0.23598909E-02 | 0.13662971E+03 |  245.669
 BASOPT|        1     |       3     | 0.43398465E-02 | 0.82803611E+02 |  201.593
 BASOPT|        2     |       1     | 0.86379877E-03 | 0.28283849E+03 |  345.216
 BASOPT|        2     |       2     | 0.13832164E-02 | 0.22177352E+03 |  247.210
 BASOPT|        2     |       3     | 0.23800616E-02 | 0.85681906E+02 |  197.309
 BASOPT|        3     |       1     | 0.47318705E-03 | 0.23357054E+03 |  147.673
 BASOPT|        3     |       2     | 0.10347062E-02 | 0.19669752E+03 |  104.933
 BASOPT|        3     |       3     | 0.13742778E-02 | 0.23587659E+02 |   90.745
 BASOPT|        4     |       1     | 0.18293609E-02 | 0.48579444E+03 |  121.976
 BASOPT|        4     |       2     | 0.25447374E-02 | 0.31015506E+03 |  100.836
 BASOPT|        4     |       3     | 0.46308174E-02 | 0.79713437E+02 |   84.813
 BASOPT| -----------------------------------------------------------------------
 BASOPT| Total residuum value: -.21802693E+04

 BASOPT| Information at iteration number:    3200
 BASOPT| Training set | Combination | Rho difference | Condition num. | Time
 BASOPT| -----------------------------------------------------------------------
 BASOPT|        1     |       1     | 0.14630188E-02 | 0.33912160E+03 |  364.316
 BASOPT|        1     |       2     | 0.23586887E-02 | 0.13668296E+03 |  253.587
 BASOPT|        1     |       3     | 0.43357430E-02 | 0.82900708E+02 |  208.110
 BASOPT|        2     |       1     | 0.86399615E-03 | 0.28266160E+03 |  356.351
 BASOPT|        2     |       2     | 0.13840015E-02 | 0.22159698E+03 |  255.178
 BASOPT|        2     |       3     | 0.23814916E-02 | 0.85754567E+02 |  203.672
 BASOPT|        3     |       1     | 0.47398942E-03 | 0.23369565E+03 |  152.438
 BASOPT|        3     |       2     | 0.10319254E-02 | 0.19669611E+03 |  108.317
 BASOPT|        3     |       3     | 0.13707090E-02 | 0.23588630E+02 |   93.656
 BASOPT|        4     |       1     | 0.18294975E-02 | 0.48549089E+03 |  125.912
 BASOPT|        4     |       2     | 0.25463218E-02 | 0.30992264E+03 |  104.105
 BASOPT|        4     |       3     | 0.46338763E-02 | 0.79787113E+02 |   87.547
 BASOPT| -----------------------------------------------------------------------
 BASOPT| Total residuum value: -.21802695E+04

 BASOPT| Information at iteration number:    3300
 BASOPT| Training set | Combination | Rho difference | Condition num. | Time
 BASOPT| -----------------------------------------------------------------------
 BASOPT|        1     |       1     | 0.14629900E-02 | 0.33921396E+03 |  375.741
 BASOPT|        1     |       2     | 0.23582690E-02 | 0.13670282E+03 |  261.508
 BASOPT|        1     |       3     | 0.43330929E-02 | 0.82936817E+02 |  214.645
 BASOPT|        2     |       1     | 0.86393839E-03 | 0.28265972E+03 |  367.483
 BASOPT|        2     |       2     | 0.13841238E-02 | 0.22156560E+03 |  263.149
 BASOPT|        2     |       3     | 0.23807562E-02 | 0.85785101E+02 |  210.034
 BASOPT|        3     |       1     | 0.47415963E-03 | 0.23371767E+03 |  157.193
 BASOPT|        3     |       2     | 0.10313452E-02 | 0.19670863E+03 |  111.700
 BASOPT|        3     |       3     | 0.13688085E-02 | 0.23589877E+02 |   96.568
 BASOPT|        4     |       1     | 0.18294073E-02 | 0.48537369E+03 |  129.843
 BASOPT|        4     |       2     | 0.25465286E-02 | 0.30986911E+03 |  107.354
 BASOPT|        4     |       3     | 0.46403748E-02 | 0.79814685E+02 |   90.281
 BASOPT| -----------------------------------------------------------------------
 BASOPT| Total residuum value: -.21802695E+04

 BASOPT| Information at iteration number:    3400
 BASOPT| Training set | Combination | Rho difference | Condition num. | Time
 BASOPT| -----------------------------------------------------------------------
 BASOPT|        1     |       1     | 0.14630148E-02 | 0.33927725E+03 |  387.131
 BASOPT|        1     |       2     | 0.23575236E-02 | 0.13673996E+03 |  269.430
 BASOPT|        1     |       3     | 0.43275007E-02 | 0.83002408E+02 |  221.186
 BASOPT|        2     |       1     | 0.86362362E-03 | 0.28256749E+03 |  378.616
 BASOPT|        2     |       2     | 0.13837627E-02 | 0.22147944E+03 |  271.122
 BASOPT|        2     |       3     | 0.23793946E-02 | 0.85839012E+02 |  216.399
 BASOPT|        3     |       1     | 0.47458203E-03 | 0.23378379E+03 |  161.951
 BASOPT|        3     |       2     | 0.10297461E-02 | 0.19671779E+03 |  115.085
 BASOPT|        3     |       3     | 0.13690610E-02 | 0.23595553E+02 |   99.479
 BASOPT|        4     |       1     | 0.18302616E-02 | 0.48515300E+03 |  133.777
 BASOPT|        4     |       2     | 0.25477672E-02 | 0.30972137E+03 |  110.610
 BASOPT|        4     |       3     | 0.46491241E-02 | 0.79864705E+02 |   93.015
 BASOPT| -----------------------------------------------------------------------
 BASOPT| Total residuum value: -.21802696E+04

 BASOPT| Information at iteration number:    3500
 BASOPT| Training set | Combination | Rho difference | Condition num. | Time
 BASOPT| -----------------------------------------------------------------------
 BASOPT|        1     |       1     | 0.14631567E-02 | 0.33930939E+03 |  398.505
 BASOPT|        1     |       2     | 0.23567740E-02 | 0.13680653E+03 |  277.354
 BASOPT|        1     |       3     | 0.43251502E-02 | 0.83042206E+02 |  227.757
 BASOPT|        2     |       1     | 0.86352492E-03 | 0.28239145E+03 |  389.747
 BASOPT|        2     |       2     | 0.13840864E-02 | 0.22140117E+03 |  279.095
 BASOPT|        2     |       3     | 0.23797953E-02 | 0.85773962E+02 |  222.759
 BASOPT|        3     |       1     | 0.47507945E-03 | 0.23386117E+03 |  166.707
 BASOPT|        3     |       2     | 0.10281699E-02 | 0.19673301E+03 |  118.470
 BASOPT|        3     |       3     | 0.13683572E-02 | 0.23587831E+02 |  102.389
 BASOPT|        4     |       1     | 0.18309930E-02 | 0.48450350E+03 |  137.707
 BASOPT|        4     |       2     | 0.25493641E-02 | 0.30941555E+03 |  113.858
 BASOPT|        4     |       3     | 0.46498168E-02 | 0.79865890E+02 |   95.750
 BASOPT| -----------------------------------------------------------------------
 BASOPT| Total residuum value: -.21802696E+04

 BASOPT| Information at iteration number:    3600
 BASOPT| Training set | Combination | Rho difference | Condition num. | Time
 BASOPT| -----------------------------------------------------------------------
 BASOPT|        1     |       1     | 0.14636028E-02 | 0.33933824E+03 |  409.879
 BASOPT|        1     |       2     | 0.23555601E-02 | 0.13695277E+03 |  285.275
 BASOPT|        1     |       3     | 0.43213574E-02 | 0.83137986E+02 |  234.290
 BASOPT|        2     |       1     | 0.86321218E-03 | 0.28208100E+03 |  400.876
 BASOPT|        2     |       2     | 0.13843393E-02 | 0.22110603E+03 |  287.112
 BASOPT|        2     |       3     | 0.23813441E-02 | 0.85747313E+02 |  229.121
 BASOPT|        3     |       1     | 0.47621700E-03 | 0.23402866E+03 |  171.465
 BASOPT|        3     |       2     | 0.10248412E-02 | 0.19678170E+03 |  121.855
 BASOPT|        3     |       3     | 0.13700515E-02 | 0.23585321E+02 |  105.300
 BASOPT|        4     |       1     | 0.18328412E-02 | 0.48325488E+03 |  141.640
 BASOPT|        4     |       2     | 0.25527599E-02 | 0.30877640E+03 |  117.112
 BASOPT|        4     |       3     | 0.46490621E-02 | 0.79867383E+02 |   98.483
 BASOPT| -----------------------------------------------------------------------
 BASOPT| Total residuum value: -.21802697E+04

 BASOPT| Information at iteration number:    3700
 BASOPT| Training set | Combination | Rho difference | Condition num. | Time
 BASOPT| -----------------------------------------------------------------------
 BASOPT|        1     |       1     | 0.14637167E-02 | 0.33959155E+03 |  421.303
 BASOPT|        1     |       2     | 0.23548893E-02 | 0.13704872E+03 |  293.195
 BASOPT|        1     |       3     | 0.43201391E-02 | 0.83211505E+02 |  240.834
 BASOPT|        2     |       1     | 0.86332479E-03 | 0.28192899E+03 |  412.007
 BASOPT|        2     |       2     | 0.13850194E-02 | 0.22117144E+03 |  295.080
 BASOPT|        2     |       3     | 0.23813116E-02 | 0.85696918E+02 |  235.482
 BASOPT|        3     |       1     | 0.47617714E-03 | 0.23407546E+03 |  176.225
 BASOPT|        3     |       2     | 0.10231962E-02 | 0.19679993E+03 |  125.242
 BASOPT|        3     |       3     | 0.13651484E-02 | 0.23575179E+02 |  108.211
 BASOPT|        4     |       1     | 0.18325498E-02 | 0.48263764E+03 |  145.572
 BASOPT|        4     |       2     | 0.25532027E-02 | 0.30859806E+03 |  120.358
 BASOPT|        4     |       3     | 0.46525499E-02 | 0.79864755E+02 |  101.218
 BASOPT| -----------------------------------------------------------------------
 BASOPT| Total residuum value: -.21802698E+04

 BASOPT| Information at iteration number:    3800
 BASOPT| Training set | Combination | Rho difference | Condition num. | Time
 BASOPT| -----------------------------------------------------------------------
 BASOPT|        1     |       1     | 0.14639570E-02 | 0.33989375E+03 |  432.691
 BASOPT|        1     |       2     | 0.23533388E-02 | 0.13723026E+03 |  301.114
 BASOPT|        1     |       3     | 0.43173816E-02 | 0.83346788E+02 |  247.378
 BASOPT|        2     |       1     | 0.86351934E-03 | 0.28177269E+03 |  423.138
 BASOPT|        2     |       2     | 0.13864271E-02 | 0.22113027E+03 |  303.073
 BASOPT|        2     |       3     | 0.23831481E-02 | 0.85714095E+02 |  241.842
 BASOPT|        3     |       1     | 0.47658607E-03 | 0.23421187E+03 |  180.980
 BASOPT|        3     |       2     | 0.10197814E-02 | 0.19685292E+03 |  128.625
 BASOPT|        3     |       3     | 0.13629368E-02 | 0.23581543E+02 |  111.127
 BASOPT|        4     |       1     | 0.18320561E-02 | 0.48174649E+03 |  149.504
 BASOPT|        4     |       2     | 0.25544830E-02 | 0.30829923E+03 |  123.605
 BASOPT|        4     |       3     | 0.46538874E-02 | 0.79858481E+02 |  103.955
 BASOPT| -----------------------------------------------------------------------
 BASOPT| Total residuum value: -.21802699E+04

 BASOPT| Information at iteration number:    3900
 BASOPT| Training set | Combination | Rho difference | Condition num. | Time
 BASOPT| -----------------------------------------------------------------------
 BASOPT|        1     |       1     | 0.14638817E-02 | 0.34008162E+03 |  444.063
 BASOPT|        1     |       2     | 0.23523074E-02 | 0.13737199E+03 |  309.032
 BASOPT|        1     |       3     | 0.43174114E-02 | 0.83424889E+02 |  253.943
 BASOPT|        2     |       1     | 0.86372512E-03 | 0.28174756E+03 |  434.269
 BASOPT|        2     |       2     | 0.13872381E-02 | 0.22117475E+03 |  311.043
 BASOPT|        2     |       3     | 0.23842678E-02 | 0.85742526E+02 |  248.203
 BASOPT|        3     |       1     | 0.47631872E-03 | 0.23422757E+03 |  185.733
 BASOPT|        3     |       2     | 0.10181381E-02 | 0.19688558E+03 |  132.009
 BASOPT|        3     |       3     | 0.13603056E-02 | 0.23591392E+02 |  114.042
 BASOPT|        4     |       1     | 0.18311068E-02 | 0.48147919E+03 |  153.436
 BASOPT|        4     |       2     | 0.25545767E-02 | 0.30828890E+03 |  126.853
 BASOPT|        4     |       3     | 0.46540779E-02 | 0.79839743E+02 |  106.689
 BASOPT| -----------------------------------------------------------------------
 BASOPT| Total residuum value: -.21802699E+04

 BASOPT| Information at iteration number:    4000
 BASOPT| Training set | Combination | Rho difference | Condition num. | Time
 BASOPT| -----------------------------------------------------------------------
 BASOPT|        1     |       1     | 0.14637946E-02 | 0.34036498E+03 |  455.435
 BASOPT|        1     |       2     | 0.23497415E-02 | 0.13773415E+03 |  316.950
 BASOPT|        1     |       3     | 0.43180556E-02 | 0.83612615E+02 |  260.462
 BASOPT|        2     |       1     | 0.86363786E-03 | 0.28180501E+03 |  445.403
 BASOPT|        2     |       2     | 0.13881419E-02 | 0.22138741E+03 |  319.012
 BASOPT|        2     |       3     | 0.23879860E-02 | 0.85880374E+02 |  254.565
 BASOPT|        3     |       1     | 0.47600626E-03 | 0.23426722E+03 |  190.490
 BASOPT|        3     |       2     | 0.10130531E-02 | 0.19695560E+03 |  135.394
 BASOPT|        3     |       3     | 0.13561434E-02 | 0.23628112E+02 |  116.959
 BASOPT|        4     |       1     | 0.18309077E-02 | 0.48104312E+03 |  157.369
 BASOPT|        4     |       2     | 0.25562142E-02 | 0.30841376E+03 |  130.113
 BASOPT|        4     |       3     | 0.46495484E-02 | 0.79804102E+02 |  109.423
 BASOPT| -----------------------------------------------------------------------
 BASOPT| Total residuum value: -.21802700E+04

 BASOPT| Information at iteration number:    4100
 BASOPT| Training set | Combination | Rho difference | Condition num. | Time
 BASOPT| -----------------------------------------------------------------------
 BASOPT|        1     |       1     | 0.14637924E-02 | 0.34029434E+03 |  466.805
 BASOPT|        1     |       2     | 0.23491951E-02 | 0.13783420E+03 |  324.869
 BASOPT|        1     |       3     | 0.43181060E-02 | 0.83636863E+02 |  266.978
 BASOPT|        2     |       1     | 0.86349830E-03 | 0.28184414E+03 |  456.534
 BASOPT|        2     |       2     | 0.13881332E-02 | 0.22146215E+03 |  326.978
 BASOPT|        2     |       3     | 0.23881372E-02 | 0.85896653E+02 |  260.924
 BASOPT|        3     |       1     | 0.47594777E-03 | 0.23427739E+03 |  195.248
 BASOPT|        3     |       2     | 0.10118746E-02 | 0.19696565E+03 |  138.778
 BASOPT|        3     |       3     | 0.13550697E-02 | 0.23634228E+02 |  119.870
 BASOPT|        4     |       1     | 0.18312845E-02 | 0.48095287E+03 |  161.301
 BASOPT|        4     |       2     | 0.25570693E-02 | 0.30846619E+03 |  133.388
 BASOPT|        4     |       3     | 0.46467630E-02 | 0.79791441E+02 |  112.156
 BASOPT| -----------------------------------------------------------------------
 BASOPT| Total residuum value: -.21802700E+04

 BASOPT| Information at iteration number:    4200
 BASOPT| Training set | Combination | Rho difference | Condition num. | Time
 BASOPT| -----------------------------------------------------------------------
 BASOPT|        1     |       1     | 0.14637613E-02 | 0.34025441E+03 |  478.178
 BASOPT|        1     |       2     | 0.23486085E-02 | 0.13792367E+03 |  332.785
 BASOPT|        1     |       3     | 0.43184302E-02 | 0.83667750E+02 |  273.492
 BASOPT|        2     |       1     | 0.86345551E-03 | 0.28181120E+03 |  467.665
 BASOPT|        2     |       2     | 0.13882973E-02 | 0.22147359E+03 |  334.946
 BASOPT|        2     |       3     | 0.23890927E-02 | 0.85925693E+02 |  267.285
 BASOPT|        3     |       1     | 0.47591226E-03 | 0.23429307E+03 |  200.001
 BASOPT|        3     |       2     | 0.10107340E-02 | 0.19697551E+03 |  142.162
 BASOPT|        3     |       3     | 0.13536056E-02 | 0.23641978E+02 |  122.781
 BASOPT|        4     |       1     | 0.18313602E-02 | 0.48083496E+03 |  165.233
 BASOPT|        4     |       2     | 0.25577705E-02 | 0.30847354E+03 |  136.652
 BASOPT|        4     |       3     | 0.46441007E-02 | 0.79788151E+02 |  114.890
 BASOPT| -----------------------------------------------------------------------
 BASOPT| Total residuum value: -.21802701E+04

 BASOPT| Information at iteration number:    4300
 BASOPT| Training set | Combination | Rho difference | Condition num. | Time
 BASOPT| -----------------------------------------------------------------------
 BASOPT|        1     |       1     | 0.14635015E-02 | 0.34022772E+03 |  489.571
 BASOPT|        1     |       2     | 0.23472056E-02 | 0.13810860E+03 |  340.704
 BASOPT|        1     |       3     | 0.43194699E-02 | 0.83742779E+02 |  280.033
 BASOPT|        2     |       1     | 0.86355873E-03 | 0.28211721E+03 |  478.798
 BASOPT|        2     |       2     | 0.13888698E-02 | 0.22174083E+03 |  342.916
 BASOPT|        2     |       3     | 0.23897218E-02 | 0.86084911E+02 |  273.645
 BASOPT|        3     |       1     | 0.47530110E-03 | 0.23435142E+03 |  204.755
 BASOPT|        3     |       2     | 0.10088621E-02 | 0.19698301E+03 |  145.547
 BASOPT|        3     |       3     | 0.13465372E-02 | 0.23663443E+02 |  125.692
 BASOPT|        4     |       1     | 0.18301965E-02 | 0.48136699E+03 |  169.166
 BASOPT|        4     |       2     | 0.25579808E-02 | 0.30895001E+03 |  139.898
 BASOPT|        4     |       3     | 0.46381798E-02 | 0.79818819E+02 |  117.624
 BASOPT| -----------------------------------------------------------------------
 BASOPT| Total residuum value: -.21802701E+04

 BASOPT| Information at iteration number:    4400
 BASOPT| Training set | Combination | Rho difference | Condition num. | Time
 BASOPT| -----------------------------------------------------------------------
 BASOPT|        1     |       1     | 0.14633984E-02 | 0.34010077E+03 |  500.944
 BASOPT|        1     |       2     | 0.23467613E-02 | 0.13817024E+03 |  348.623
 BASOPT|        1     |       3     | 0.43197867E-02 | 0.83755497E+02 |  286.555
 BASOPT|        2     |       1     | 0.86341881E-03 | 0.28216947E+03 |  489.929
 BASOPT|        2     |       2     | 0.13887304E-02 | 0.22177977E+03 |  350.888
 BASOPT|        2     |       3     | 0.23896435E-02 | 0.86133143E+02 |  280.005
 BASOPT|        3     |       1     | 0.47527588E-03 | 0.23435556E+03 |  209.542
 BASOPT|        3     |       2     | 0.10081693E-02 | 0.19699099E+03 |  148.932
 BASOPT|        3     |       3     | 0.13447055E-02 | 0.23672043E+02 |  128.602
 BASOPT|        4     |       1     | 0.18304720E-02 | 0.48159082E+03 |  173.098
 BASOPT|        4     |       2     | 0.25586630E-02 | 0.30908499E+03 |  143.145
 BASOPT|        4     |       3     | 0.46356441E-02 | 0.79819901E+02 |  120.358
 BASOPT| -----------------------------------------------------------------------
 BASOPT| Total residuum value: -.21802701E+04

 BASOPT| Information at iteration number:    4500
 BASOPT| Training set | Combination | Rho difference | Condition num. | Time
 BASOPT| -----------------------------------------------------------------------
 BASOPT|        1     |       1     | 0.14633208E-02 | 0.34004124E+03 |  512.318
 BASOPT|        1     |       2     | 0.23463898E-02 | 0.13822103E+03 |  356.541
 BASOPT|        1     |       3     | 0.43202408E-02 | 0.83770330E+02 |  293.076
 BASOPT|        2     |       1     | 0.86347001E-03 | 0.28225168E+03 |  501.059
 BASOPT|        2     |       2     | 0.13889124E-02 | 0.22184832E+03 |  358.888
 BASOPT|        2     |       3     | 0.23902428E-02 | 0.86171343E+02 |  286.369
 BASOPT|        3     |       1     | 0.47518750E-03 | 0.23437290E+03 |  214.317
 BASOPT|        3     |       2     | 0.10075498E-02 | 0.19700098E+03 |  152.317
 BASOPT|        3     |       3     | 0.13430714E-02 | 0.23677881E+02 |  131.516
 BASOPT|        4     |       1     | 0.18302661E-02 | 0.48176083E+03 |  177.030
 BASOPT|        4     |       2     | 0.25588577E-02 | 0.30920368E+03 |  146.391
 BASOPT|        4     |       3     | 0.46336825E-02 | 0.79826394E+02 |  123.094
 BASOPT| -----------------------------------------------------------------------
 BASOPT| Total residuum value: -.21802701E+04

 BASOPT| Information at iteration number:    4600
 BASOPT| Training set | Combination | Rho difference | Condition num. | Time
 BASOPT| -----------------------------------------------------------------------
 BASOPT|        1     |       1     | 0.14633232E-02 | 0.33987816E+03 |  523.691
 BASOPT|        1     |       2     | 0.23458657E-02 | 0.13831540E+03 |  364.459
 BASOPT|        1     |       3     | 0.43210734E-02 | 0.83788933E+02 |  299.593
 BASOPT|        2     |       1     | 0.86345818E-03 | 0.28224779E+03 |  512.191
 BASOPT|        2     |       2     | 0.13892029E-02 | 0.22186568E+03 |  366.856
 BASOPT|        2     |       3     | 0.23909185E-02 | 0.86176572E+02 |  292.730
 BASOPT|        3     |       1     | 0.47528634E-03 | 0.23436172E+03 |  219.068
 BASOPT|        3     |       2     | 0.10066825E-02 | 0.19701389E+03 |  155.701
 BASOPT|        3     |       3     | 0.13408509E-02 | 0.23682555E+02 |  134.440
 BASOPT|        4     |       1     | 0.18303443E-02 | 0.48175343E+03 |  180.962
 BASOPT|        4     |       2     | 0.25598166E-02 | 0.30923455E+03 |  149.658
 BASOPT|        4     |       3     | 0.46293774E-02 | 0.79827345E+02 |  125.830
 BASOPT| -----------------------------------------------------------------------
 BASOPT| Total residuum value: -.21802702E+04

 BASOPT| Information at iteration number:    4700
 BASOPT| Training set | Combination | Rho difference | Condition num. | Time
 BASOPT| -----------------------------------------------------------------------
 BASOPT|        1     |       1     | 0.14634006E-02 | 0.33983648E+03 |  535.063
 BASOPT|        1     |       2     | 0.23455255E-02 | 0.13837752E+03 |  372.374
 BASOPT|        1     |       3     | 0.43196885E-02 | 0.83831029E+02 |  306.115
 BASOPT|        2     |       1     | 0.86355702E-03 | 0.28213666E+03 |  523.322
 BASOPT|        2     |       2     | 0.13897557E-02 | 0.22180639E+03 |  374.822
 BASOPT|        2     |       3     | 0.23908326E-02 | 0.86164490E+02 |  299.089
 BASOPT|        3     |       1     | 0.47564631E-03 | 0.23430719E+03 |  223.820
 BASOPT|        3     |       2     | 0.10060397E-02 | 0.19703369E+03 |  159.085
 BASOPT|        3     |       3     | 0.13399924E-02 | 0.23687123E+02 |  137.351
 BASOPT|        4     |       1     | 0.18303540E-02 | 0.48153056E+03 |  184.893
 BASOPT|        4     |       2     | 0.25605826E-02 | 0.30910026E+03 |  152.932
 BASOPT|        4     |       3     | 0.46327071E-02 | 0.79841558E+02 |  128.564
 BASOPT| -----------------------------------------------------------------------
 BASOPT| Total residuum value: -.21802702E+04

 BASOPT| Information at iteration number:    4800
 BASOPT| Training set | Combination | Rho difference | Condition num. | Time
 BASOPT| -----------------------------------------------------------------------
 BASOPT|        1     |       1     | 0.14633580E-02 | 0.33969990E+03 |  546.431
 BASOPT|        1     |       2     | 0.23451364E-02 | 0.13842226E+03 |  380.290
 BASOPT|        1     |       3     | 0.43192817E-02 | 0.83832403E+02 |  312.662
 BASOPT|        2     |       1     | 0.86358053E-03 | 0.28210896E+03 |  534.452
 BASOPT|        2     |       2     | 0.13899891E-02 | 0.22179640E+03 |  382.788
 BASOPT|        2     |       3     | 0.23911347E-02 | 0.86148574E+02 |  305.450
 BASOPT|        3     |       1     | 0.47583952E-03 | 0.23429680E+03 |  228.573
 BASOPT|        3     |       2     | 0.10056448E-02 | 0.19704156E+03 |  162.468
 BASOPT|        3     |       3     | 0.13399044E-02 | 0.23688124E+02 |  140.262
 BASOPT|        4     |       1     | 0.18304838E-02 | 0.48147234E+03 |  188.825
 BASOPT|        4     |       2     | 0.25613596E-02 | 0.30907232E+03 |  156.198
 BASOPT|        4     |       3     | 0.46313544E-02 | 0.79840058E+02 |  131.298
 BASOPT| -----------------------------------------------------------------------
 BASOPT| Total residuum value: -.21802702E+04

 BASOPT| Information at iteration number:    4900
 BASOPT| Training set | Combination | Rho difference | Condition num. | Time
 BASOPT| -----------------------------------------------------------------------
 BASOPT|        1     |       1     | 0.14633101E-02 | 0.33948697E+03 |  557.817
 BASOPT|        1     |       2     | 0.23449319E-02 | 0.13842998E+03 |  388.205
 BASOPT|        1     |       3     | 0.43181482E-02 | 0.83821919E+02 |  319.195
 BASOPT|        2     |       1     | 0.86362128E-03 | 0.28205172E+03 |  545.583
 BASOPT|        2     |       2     | 0.13902717E-02 | 0.22174299E+03 |  390.755
 BASOPT|        2     |       3     | 0.23912337E-02 | 0.86129940E+02 |  311.812
 BASOPT|        3     |       1     | 0.47622394E-03 | 0.23428260E+03 |  233.326
 BASOPT|        3     |       2     | 0.10052965E-02 | 0.19705399E+03 |  165.852
 BASOPT|        3     |       3     | 0.13420477E-02 | 0.23692126E+02 |  143.173
 BASOPT|        4     |       1     | 0.18307226E-02 | 0.48153200E+03 |  192.756
 BASOPT|        4     |       2     | 0.25621474E-02 | 0.30903749E+03 |  159.461
 BASOPT|        4     |       3     | 0.46307673E-02 | 0.79833619E+02 |  134.032
 BASOPT| -----------------------------------------------------------------------
 BASOPT| Total residuum value: -.21802702E+04

 BASOPT| Information at iteration number:    5000
 BASOPT| Training set | Combination | Rho difference | Condition num. | Time
 BASOPT| -----------------------------------------------------------------------
 BASOPT|        1     |       1     | 0.14632462E-02 | 0.33945387E+03 |  569.182
 BASOPT|        1     |       2     | 0.23447019E-02 | 0.13844620E+03 |  396.120
 BASOPT|        1     |       3     | 0.43168734E-02 | 0.83841818E+02 |  325.717
 BASOPT|        2     |       1     | 0.86366283E-03 | 0.28203413E+03 |  556.714
 BASOPT|        2     |       2     | 0.13904433E-02 | 0.22172290E+03 |  398.723
 BASOPT|        2     |       3     | 0.23914055E-02 | 0.86156420E+02 |  318.172
 BASOPT|        3     |       1     | 0.47623779E-03 | 0.23427476E+03 |  238.078
 BASOPT|        3     |       2     | 0.10047420E-02 | 0.19706716E+03 |  169.239
 BASOPT|        3     |       3     | 0.13423914E-02 | 0.23696875E+02 |  146.084
 BASOPT|        4     |       1     | 0.18305315E-02 | 0.48159341E+03 |  196.685
 BASOPT|        4     |       2     | 0.25622546E-02 | 0.30905379E+03 |  162.736
 BASOPT|        4     |       3     | 0.46328842E-02 | 0.79856731E+02 |  136.766
 BASOPT| -----------------------------------------------------------------------
 BASOPT| Total residuum value: -.21802702E+04

 BASOPT| Information at iteration number:    5100
 BASOPT| Training set | Combination | Rho difference | Condition num. | Time
 BASOPT| -----------------------------------------------------------------------
 BASOPT|        1     |       1     | 0.14631602E-02 | 0.33940146E+03 |  580.549
 BASOPT|        1     |       2     | 0.23443483E-02 | 0.13848929E+03 |  404.036
 BASOPT|        1     |       3     | 0.43164444E-02 | 0.83866521E+02 |  332.271
 BASOPT|        2     |       1     | 0.86357840E-03 | 0.28210721E+03 |  567.847
 BASOPT|        2     |       2     | 0.13905182E-02 | 0.22177668E+03 |  406.690
 BASOPT|        2     |       3     | 0.23917671E-02 | 0.86228389E+02 |  324.531
 BASOPT|        3     |       1     | 0.47630164E-03 | 0.23427956E+03 |  242.832
 BASOPT|        3     |       2     | 0.10039978E-02 | 0.19708966E+03 |  172.623
 BASOPT|        3     |       3     | 0.13416519E-02 | 0.23707209E+02 |  148.996
 BASOPT|        4     |       1     | 0.18306172E-02 | 0.48180077E+03 |  200.613
 BASOPT|        4     |       2     | 0.25625888E-02 | 0.30916687E+03 |  165.996
 BASOPT|        4     |       3     | 0.46322842E-02 | 0.79881608E+02 |  139.501
 BASOPT| -----------------------------------------------------------------------
 BASOPT| Total residuum value: -.21802702E+04

 BASOPT| Information at iteration number:    5200
 BASOPT| Training set | Combination | Rho difference | Condition num. | Time
 BASOPT| -----------------------------------------------------------------------
 BASOPT|        1     |       1     | 0.14631902E-02 | 0.33941316E+03 |  591.916
 BASOPT|        1     |       2     | 0.23441099E-02 | 0.13855611E+03 |  411.952
 BASOPT|        1     |       3     | 0.43152704E-02 | 0.83892152E+02 |  338.828
 BASOPT|        2     |       1     | 0.86356453E-03 | 0.28208477E+03 |  578.979
 BASOPT|        2     |       2     | 0.13907847E-02 | 0.22178594E+03 |  414.658
 BASOPT|        2     |       3     | 0.23918278E-02 | 0.86263281E+02 |  330.899
 BASOPT|        3     |       1     | 0.47623791E-03 | 0.23425397E+03 |  247.585
 BASOPT|        3     |       2     | 0.10033387E-02 | 0.19711967E+03 |  176.009
 BASOPT|        3     |       3     | 0.13402022E-02 | 0.23712262E+02 |  151.910
 BASOPT|        4     |       1     | 0.18303036E-02 | 0.48172150E+03 |  204.543
 BASOPT|        4     |       2     | 0.25626403E-02 | 0.30915446E+03 |  169.259
 BASOPT|        4     |       3     | 0.46343723E-02 | 0.79912303E+02 |  142.236
 BASOPT| -----------------------------------------------------------------------
 BASOPT| Total residuum value: -.21802702E+04

 BASOPT| Information at iteration number:    5300
 BASOPT| Training set | Combination | Rho difference | Condition num. | Time
 BASOPT| -----------------------------------------------------------------------
 BASOPT|        1     |       1     | 0.14631275E-02 | 0.33938446E+03 |  603.279
 BASOPT|        1     |       2     | 0.23437091E-02 | 0.13861203E+03 |  419.867
 BASOPT|        1     |       3     | 0.43141492E-02 | 0.83918207E+02 |  345.367
 BASOPT|        2     |       1     | 0.86365095E-03 | 0.28208045E+03 |  590.116
 BASOPT|        2     |       2     | 0.13912015E-02 | 0.22179768E+03 |  422.627
 BASOPT|        2     |       3     | 0.23924030E-02 | 0.86297264E+02 |  337.258
 BASOPT|        3     |       1     | 0.47618623E-03 | 0.23424278E+03 |  252.337
 BASOPT|        3     |       2     | 0.10025340E-02 | 0.19714102E+03 |  179.392
 BASOPT|        3     |       3     | 0.13402947E-02 | 0.23720039E+02 |  154.825
 BASOPT|        4     |       1     | 0.18299506E-02 | 0.48172019E+03 |  208.472
 BASOPT|        4     |       2     | 0.25628009E-02 | 0.30917659E+03 |  172.523
 BASOPT|        4     |       3     | 0.46353130E-02 | 0.79931902E+02 |  144.969
 BASOPT| -----------------------------------------------------------------------
 BASOPT| Total residuum value: -.21802703E+04

 BASOPT| Information at iteration number:    5400
 BASOPT| Training set | Combination | Rho difference | Condition num. | Time
 BASOPT| -----------------------------------------------------------------------
 BASOPT|        1     |       1     | 0.14631695E-02 | 0.33936314E+03 |  614.644
 BASOPT|        1     |       2     | 0.23433329E-02 | 0.13870730E+03 |  427.781
 BASOPT|        1     |       3     | 0.43121730E-02 | 0.83947569E+02 |  351.894
 BASOPT|        2     |       1     | 0.86374424E-03 | 0.28207069E+03 |  601.248
 BASOPT|        2     |       2     | 0.13917143E-02 | 0.22183284E+03 |  430.598
 BASOPT|        2     |       3     | 0.23925865E-02 | 0.86305187E+02 |  343.622
[...]
 BASOPT| Total residuum value: -.21802714E+04

 BASOPT| Information at iteration number:   42700
 BASOPT| Training set | Combination | Rho difference | Condition num. | Time
 BASOPT| -----------------------------------------------------------------------
 BASOPT|        1     |       1     | 0.14681163E-02 | 0.33321551E+03 | 4856.076
 BASOPT|        1     |       2     | 0.23393364E-02 | 0.13930058E+03 | 3380.214
 BASOPT|        1     |       3     | 0.42956122E-02 | 0.83744198E+02 | 2780.367
 BASOPT|        2     |       1     | 0.86589262E-03 | 0.27889804E+03 | 4753.408
 BASOPT|        2     |       2     | 0.13948886E-02 | 0.21814076E+03 | 3405.689
 BASOPT|        2     |       3     | 0.24011936E-02 | 0.85844850E+02 | 2715.652
 BASOPT|        3     |       1     | 0.49112735E-03 | 0.23241380E+03 | 2032.803
 BASOPT|        3     |       2     | 0.98961200E-03 | 0.19918462E+03 | 1444.917
 BASOPT|        3     |       3     | 0.13193987E-02 | 0.23354455E+02 | 1244.613
 BASOPT|        4     |       1     | 0.18105348E-02 | 0.48441787E+03 | 1678.195
 BASOPT|        4     |       2     | 0.25629645E-02 | 0.30719861E+03 | 1391.580
 BASOPT|        4     |       3     | 0.46591726E-02 | 0.79805253E+02 | 1167.574
 BASOPT| -----------------------------------------------------------------------
 BASOPT| Total residuum value: -.21802714E+04

 BASOPT| Information at iteration number:   42800
 BASOPT| Training set | Combination | Rho difference | Condition num. | Time
 BASOPT| -----------------------------------------------------------------------
 BASOPT|        1     |       1     | 0.14681323E-02 | 0.33322449E+03 | 4867.457
 BASOPT|        1     |       2     | 0.23393755E-02 | 0.13929443E+03 | 3388.134
 BASOPT|        1     |       3     | 0.42956616E-02 | 0.83747739E+02 | 2786.843
 BASOPT|        2     |       1     | 0.86592374E-03 | 0.27883870E+03 | 4764.538
 BASOPT|        2     |       2     | 0.13948944E-02 | 0.21808917E+03 | 3413.676
 BASOPT|        2     |       3     | 0.24011119E-02 | 0.85848867E+02 | 2722.014
 BASOPT|        3     |       1     | 0.49117311E-03 | 0.23241026E+03 | 2037.564
 BASOPT|        3     |       2     | 0.98945405E-03 | 0.19919191E+03 | 1448.303
 BASOPT|        3     |       3     | 0.13187703E-02 | 0.23354041E+02 | 1247.531
 BASOPT|        4     |       1     | 0.18105652E-02 | 0.48437979E+03 | 1682.126
 BASOPT|        4     |       2     | 0.25629614E-02 | 0.30714605E+03 | 1394.871
 BASOPT|        4     |       3     | 0.46594531E-02 | 0.79803627E+02 | 1170.308
 BASOPT| -----------------------------------------------------------------------
 BASOPT| Total residuum value: -.21802714E+04

 BASOPT| Information at iteration number:   42900
 BASOPT| Training set | Combination | Rho difference | Condition num. | Time
 BASOPT| -----------------------------------------------------------------------
 BASOPT|        1     |       1     | 0.14681880E-02 | 0.33319912E+03 | 4878.826
 BASOPT|        1     |       2     | 0.23393820E-02 | 0.13929534E+03 | 3396.054
 BASOPT|        1     |       3     | 0.42953353E-02 | 0.83744532E+02 | 2793.315
 BASOPT|        2     |       1     | 0.86585094E-03 | 0.27881946E+03 | 4775.669
 BASOPT|        2     |       2     | 0.13947913E-02 | 0.21807242E+03 | 3421.669
 BASOPT|        2     |       3     | 0.24007693E-02 | 0.85848324E+02 | 2728.376
 BASOPT|        3     |       1     | 0.49134231E-03 | 0.23241365E+03 | 2042.328
 BASOPT|        3     |       2     | 0.98941600E-03 | 0.19919532E+03 | 1451.688
 BASOPT|        3     |       3     | 0.13187073E-02 | 0.23353202E+02 | 1250.473
 BASOPT|        4     |       1     | 0.18108353E-02 | 0.48436433E+03 | 1686.057
 BASOPT|        4     |       2     | 0.25632351E-02 | 0.30712150E+03 | 1398.143
 BASOPT|        4     |       3     | 0.46594596E-02 | 0.79802703E+02 | 1173.042
 BASOPT| -----------------------------------------------------------------------
 BASOPT| Total residuum value: -.21802714E+04

 BASOPT| Information at iteration number:   43000
 BASOPT| Training set | Combination | Rho difference | Condition num. | Time
 BASOPT| -----------------------------------------------------------------------
 BASOPT|        1     |       1     | 0.14681477E-02 | 0.33321603E+03 | 4890.203
 BASOPT|        1     |       2     | 0.23392855E-02 | 0.13929863E+03 | 3403.973
 BASOPT|        1     |       3     | 0.42958791E-02 | 0.83747992E+02 | 2799.786
 BASOPT|        2     |       1     | 0.86588451E-03 | 0.27880165E+03 | 4786.798
 BASOPT|        2     |       2     | 0.13948591E-02 | 0.21806718E+03 | 3429.655
 BASOPT|        2     |       3     | 0.24010275E-02 | 0.85839498E+02 | 2734.736
 BASOPT|        3     |       1     | 0.49134093E-03 | 0.23240796E+03 | 2047.101
 BASOPT|        3     |       2     | 0.98936351E-03 | 0.19919641E+03 | 1455.071
 BASOPT|        3     |       3     | 0.13185181E-02 | 0.23351591E+02 | 1253.387
 BASOPT|        4     |       1     | 0.18108392E-02 | 0.48430555E+03 | 1689.987
 BASOPT|        4     |       2     | 0.25633189E-02 | 0.30710293E+03 | 1401.429
 BASOPT|        4     |       3     | 0.46580601E-02 | 0.79797374E+02 | 1175.776
 BASOPT| -----------------------------------------------------------------------
 BASOPT| Total residuum value: -.21802714E+04

 BASOPT| Information at iteration number:   43100
 BASOPT| Training set | Combination | Rho difference | Condition num. | Time
 BASOPT| -----------------------------------------------------------------------
 BASOPT|        1     |       1     | 0.14681839E-02 | 0.33322809E+03 | 4901.577
 BASOPT|        1     |       2     | 0.23392725E-02 | 0.13930741E+03 | 3411.892
 BASOPT|        1     |       3     | 0.42961148E-02 | 0.83753824E+02 | 2806.301
 BASOPT|        2     |       1     | 0.86590120E-03 | 0.27878144E+03 | 4797.928
 BASOPT|        2     |       2     | 0.13948303E-02 | 0.21806307E+03 | 3437.638
 BASOPT|        2     |       3     | 0.24013612E-02 | 0.85838552E+02 | 2741.097
 BASOPT|        3     |       1     | 0.49133372E-03 | 0.23241492E+03 | 2051.874
 BASOPT|        3     |       2     | 0.98924761E-03 | 0.19919777E+03 | 1458.456
 BASOPT|        3     |       3     | 0.13183146E-02 | 0.23349401E+02 | 1256.301
 BASOPT|        4     |       1     | 0.18108571E-02 | 0.48422115E+03 | 1693.918
 BASOPT|        4     |       2     | 0.25633456E-02 | 0.30707650E+03 | 1404.698
 BASOPT|        4     |       3     | 0.46583089E-02 | 0.79792715E+02 | 1178.511
 BASOPT| -----------------------------------------------------------------------
 BASOPT| Total residuum value: -.21802714E+04

 BASOPT| Information at iteration number:   43200
 BASOPT| Training set | Combination | Rho difference | Condition num. | Time
 BASOPT| -----------------------------------------------------------------------
 BASOPT|        1     |       1     | 0.14681871E-02 | 0.33319435E+03 | 4912.942
 BASOPT|        1     |       2     | 0.23391959E-02 | 0.13931434E+03 | 3419.812
 BASOPT|        1     |       3     | 0.42960097E-02 | 0.83752980E+02 | 2812.818
 BASOPT|        2     |       1     | 0.86590572E-03 | 0.27880701E+03 | 4809.058
 BASOPT|        2     |       2     | 0.13948722E-02 | 0.21808466E+03 | 3445.631
 BASOPT|        2     |       3     | 0.24012009E-02 | 0.85835662E+02 | 2747.460
 BASOPT|        3     |       1     | 0.49138537E-03 | 0.23240687E+03 | 2056.638
 BASOPT|        3     |       2     | 0.98922764E-03 | 0.19919725E+03 | 1461.840
 BASOPT|        3     |       3     | 0.13186002E-02 | 0.23349933E+02 | 1259.216
 BASOPT|        4     |       1     | 0.18108555E-02 | 0.48427892E+03 | 1697.849
 BASOPT|        4     |       2     | 0.25634280E-02 | 0.30711407E+03 | 1407.971
 BASOPT|        4     |       3     | 0.46580321E-02 | 0.79788241E+02 | 1181.246
 BASOPT| -----------------------------------------------------------------------
 BASOPT| Total residuum value: -.21802714E+04

 BASOPT| Information at iteration number:   43300
 BASOPT| Training set | Combination | Rho difference | Condition num. | Time
 BASOPT| -----------------------------------------------------------------------
 BASOPT|        1     |       1     | 0.14681737E-02 | 0.33319721E+03 | 4924.307
 BASOPT|        1     |       2     | 0.23390954E-02 | 0.13931275E+03 | 3427.732
 BASOPT|        1     |       3     | 0.42961373E-02 | 0.83759498E+02 | 2819.285
 BASOPT|        2     |       1     | 0.86595965E-03 | 0.27878697E+03 | 4820.187
 BASOPT|        2     |       2     | 0.13949830E-02 | 0.21806644E+03 | 3453.622
 BASOPT|        2     |       3     | 0.24013472E-02 | 0.85841831E+02 | 2753.822
 BASOPT|        3     |       1     | 0.49144920E-03 | 0.23241236E+03 | 2061.403
 BASOPT|        3     |       2     | 0.98917844E-03 | 0.19919997E+03 | 1465.224
 BASOPT|        3     |       3     | 0.13184496E-02 | 0.23349791E+02 | 1262.132
 BASOPT|        4     |       1     | 0.18107957E-02 | 0.48425800E+03 | 1701.778
 BASOPT|        4     |       2     | 0.25634895E-02 | 0.30709627E+03 | 1411.267
 BASOPT|        4     |       3     | 0.46573562E-02 | 0.79788214E+02 | 1183.982
 BASOPT| -----------------------------------------------------------------------
 BASOPT| Total residuum value: -.21802714E+04

 BASOPT| Information at iteration number:   43400
 BASOPT| Training set | Combination | Rho difference | Condition num. | Time
 BASOPT| -----------------------------------------------------------------------
 BASOPT|        1     |       1     | 0.14681871E-02 | 0.33322860E+03 | 4935.670
 BASOPT|        1     |       2     | 0.23391735E-02 | 0.13932313E+03 | 3435.656
 BASOPT|        1     |       3     | 0.42962224E-02 | 0.83759654E+02 | 2825.812
 BASOPT|        2     |       1     | 0.86591755E-03 | 0.27876440E+03 | 4831.317
 BASOPT|        2     |       2     | 0.13948679E-02 | 0.21805523E+03 | 3461.614
 BASOPT|        2     |       3     | 0.24015087E-02 | 0.85845612E+02 | 2760.185
 BASOPT|        3     |       1     | 0.49132543E-03 | 0.23241686E+03 | 2066.179
 BASOPT|        3     |       2     | 0.98903907E-03 | 0.19920702E+03 | 1468.609
 BASOPT|        3     |       3     | 0.13181411E-02 | 0.23347668E+02 | 1265.047
 BASOPT|        4     |       1     | 0.18107531E-02 | 0.48420576E+03 | 1705.708
 BASOPT|        4     |       2     | 0.25633409E-02 | 0.30706843E+03 | 1414.554
 BASOPT|        4     |       3     | 0.46577463E-02 | 0.79788192E+02 | 1186.718
 BASOPT| -----------------------------------------------------------------------
 BASOPT| Total residuum value: -.21802714E+04

 BASOPT| Information at iteration number:   43500
 BASOPT| Training set | Combination | Rho difference | Condition num. | Time
 BASOPT| -----------------------------------------------------------------------
 BASOPT|        1     |       1     | 0.14681813E-02 | 0.33324420E+03 | 4947.030
 BASOPT|        1     |       2     | 0.23391372E-02 | 0.13933032E+03 | 3443.576
 BASOPT|        1     |       3     | 0.42965107E-02 | 0.83759830E+02 | 2832.338
 BASOPT|        2     |       1     | 0.86595406E-03 | 0.27875147E+03 | 4842.447
 BASOPT|        2     |       2     | 0.13948860E-02 | 0.21805088E+03 | 3469.606
 BASOPT|        2     |       3     | 0.24017584E-02 | 0.85853810E+02 | 2766.548
 BASOPT|        3     |       1     | 0.49131488E-03 | 0.23241777E+03 | 2070.942
 BASOPT|        3     |       2     | 0.98900218E-03 | 0.19921290E+03 | 1471.993
 BASOPT|        3     |       3     | 0.13180921E-02 | 0.23346159E+02 | 1267.962
 BASOPT|        4     |       1     | 0.18106684E-02 | 0.48417356E+03 | 1709.640
 BASOPT|        4     |       2     | 0.25632949E-02 | 0.30705607E+03 | 1417.826
 BASOPT|        4     |       3     | 0.46570995E-02 | 0.79781860E+02 | 1189.452
 BASOPT| -----------------------------------------------------------------------
 BASOPT| Total residuum value: -.21802714E+04

 BASOPT| Information at iteration number:   43600
 BASOPT| Training set | Combination | Rho difference | Condition num. | Time
 BASOPT| -----------------------------------------------------------------------
 BASOPT|        1     |       1     | 0.14681648E-02 | 0.33328566E+03 | 4958.392
 BASOPT|        1     |       2     | 0.23390826E-02 | 0.13934250E+03 | 3451.497
 BASOPT|        1     |       3     | 0.42965898E-02 | 0.83764780E+02 | 2838.807
 BASOPT|        2     |       1     | 0.86595046E-03 | 0.27874844E+03 | 4853.576
 BASOPT|        2     |       2     | 0.13948788E-02 | 0.21805483E+03 | 3477.598
 BASOPT|        2     |       3     | 0.24018476E-02 | 0.85849632E+02 | 2772.911
 BASOPT|        3     |       1     | 0.49127899E-03 | 0.23241621E+03 | 2075.699
 BASOPT|        3     |       2     | 0.98894501E-03 | 0.19921891E+03 | 1475.377
 BASOPT|        3     |       3     | 0.13180647E-02 | 0.23343962E+02 | 1270.876
 BASOPT|        4     |       1     | 0.18105333E-02 | 0.48414962E+03 | 1713.571
 BASOPT|        4     |       2     | 0.25631823E-02 | 0.30704650E+03 | 1421.124
 BASOPT|        4     |       3     | 0.46570573E-02 | 0.79778831E+02 | 1192.188
 BASOPT| -----------------------------------------------------------------------
 BASOPT| Total residuum value: -.21802714E+04

 BASOPT| Information at iteration number:   43700
 BASOPT| Training set | Combination | Rho difference | Condition num. | Time
 BASOPT| -----------------------------------------------------------------------
 BASOPT|        1     |       1     | 0.14681297E-02 | 0.33329261E+03 | 4969.761
 BASOPT|        1     |       2     | 0.23389994E-02 | 0.13935511E+03 | 3459.419
 BASOPT|        1     |       3     | 0.42963560E-02 | 0.83771314E+02 | 2845.276
 BASOPT|        2     |       1     | 0.86587622E-03 | 0.27880746E+03 | 4864.706
 BASOPT|        2     |       2     | 0.13947187E-02 | 0.21809712E+03 | 3485.589
 BASOPT|        2     |       3     | 0.24016559E-02 | 0.85863329E+02 | 2779.274
 BASOPT|        3     |       1     | 0.49121861E-03 | 0.23241189E+03 | 2080.455
 BASOPT|        3     |       2     | 0.98888002E-03 | 0.19921901E+03 | 1478.761
 BASOPT|        3     |       3     | 0.13178633E-02 | 0.23345165E+02 | 1273.793
 BASOPT|        4     |       1     | 0.18105753E-02 | 0.48427264E+03 | 1717.503
 BASOPT|        4     |       2     | 0.25631807E-02 | 0.30711226E+03 | 1424.418
 BASOPT|        4     |       3     | 0.46575023E-02 | 0.79788965E+02 | 1194.924
 BASOPT| -----------------------------------------------------------------------
 BASOPT| Total residuum value: -.21802714E+04

 BASOPT| Information at iteration number:   43800
 BASOPT| Training set | Combination | Rho difference | Condition num. | Time
 BASOPT| -----------------------------------------------------------------------
 BASOPT|        1     |       1     | 0.14681561E-02 | 0.33329182E+03 | 4981.129
 BASOPT|        1     |       2     | 0.23389497E-02 | 0.13935374E+03 | 3467.341
 BASOPT|        1     |       3     | 0.42963945E-02 | 0.83768107E+02 | 2851.741
 BASOPT|        2     |       1     | 0.86593740E-03 | 0.27879653E+03 | 4875.836
 BASOPT|        2     |       2     | 0.13948125E-02 | 0.21808961E+03 | 3493.581
 BASOPT|        2     |       3     | 0.24016560E-02 | 0.85850812E+02 | 2785.638
 BASOPT|        3     |       1     | 0.49133008E-03 | 0.23241677E+03 | 2085.244
 BASOPT|        3     |       2     | 0.98901183E-03 | 0.19921960E+03 | 1482.145
 BASOPT|        3     |       3     | 0.13175095E-02 | 0.23343892E+02 | 1276.708
 BASOPT|        4     |       1     | 0.18104976E-02 | 0.48422314E+03 | 1721.434
 BASOPT|        4     |       2     | 0.25632203E-02 | 0.30708244E+03 | 1427.700
 BASOPT|        4     |       3     | 0.46573005E-02 | 0.79784564E+02 | 1197.659
 BASOPT| -----------------------------------------------------------------------
 BASOPT| Total residuum value: -.21802714E+04

 BASOPT| Information at iteration number:   43900
 BASOPT| Training set | Combination | Rho difference | Condition num. | Time
 BASOPT| -----------------------------------------------------------------------
 BASOPT|        1     |       1     | 0.14681410E-02 | 0.33331105E+03 | 4992.497
 BASOPT|        1     |       2     | 0.23389688E-02 | 0.13937190E+03 | 3475.265
 BASOPT|        1     |       3     | 0.42965961E-02 | 0.83765652E+02 | 2858.209
 BASOPT|        2     |       1     | 0.86593495E-03 | 0.27879063E+03 | 4886.965
 BASOPT|        2     |       2     | 0.13948099E-02 | 0.21809853E+03 | 3501.573
 BASOPT|        2     |       3     | 0.24019239E-02 | 0.85867877E+02 | 2791.999
 BASOPT|        3     |       1     | 0.49121079E-03 | 0.23241751E+03 | 2090.028
 BASOPT|        3     |       2     | 0.98910565E-03 | 0.19922783E+03 | 1485.528
 BASOPT|        3     |       3     | 0.13170746E-02 | 0.23344485E+02 | 1279.631
 BASOPT|        4     |       1     | 0.18103386E-02 | 0.48420945E+03 | 1725.364
 BASOPT|        4     |       2     | 0.25630523E-02 | 0.30709087E+03 | 1430.970
 BASOPT|        4     |       3     | 0.46575319E-02 | 0.79784093E+02 | 1200.396
 BASOPT| -----------------------------------------------------------------------
 BASOPT| Total residuum value: -.21802714E+04

 BASOPT| Information at iteration number:   44000
 BASOPT| Training set | Combination | Rho difference | Condition num. | Time
 BASOPT| -----------------------------------------------------------------------
 BASOPT|        1     |       1     | 0.14681752E-02 | 0.33334515E+03 | 5003.887
 BASOPT|        1     |       2     | 0.23390166E-02 | 0.13936952E+03 | 3483.187
 BASOPT|        1     |       3     | 0.42963000E-02 | 0.83769868E+02 | 2864.681
 BASOPT|        2     |       1     | 0.86587335E-03 | 0.27875798E+03 | 4898.096
 BASOPT|        2     |       2     | 0.13946501E-02 | 0.21806837E+03 | 3509.570
 BASOPT|        2     |       3     | 0.24016002E-02 | 0.85867078E+02 | 2798.362
 BASOPT|        3     |       1     | 0.49124651E-03 | 0.23241460E+03 | 2094.804
 BASOPT|        3     |       2     | 0.98911317E-03 | 0.19923385E+03 | 1488.912
 BASOPT|        3     |       3     | 0.13172262E-02 | 0.23343534E+02 | 1282.546
 BASOPT|        4     |       1     | 0.18103472E-02 | 0.48421918E+03 | 1729.295
 BASOPT|        4     |       2     | 0.25629251E-02 | 0.30707486E+03 | 1434.239
 BASOPT|        4     |       3     | 0.46583984E-02 | 0.79786604E+02 | 1203.132
 BASOPT| -----------------------------------------------------------------------
 BASOPT| Total residuum value: -.21802714E+04

 BASOPT| Information at iteration number:   44100
 BASOPT| Training set | Combination | Rho difference | Condition num. | Time
 BASOPT| -----------------------------------------------------------------------
 BASOPT|        1     |       1     | 0.14682273E-02 | 0.33331947E+03 | 5015.307
 BASOPT|        1     |       2     | 0.23390810E-02 | 0.13937020E+03 | 3491.107
 BASOPT|        1     |       3     | 0.42965374E-02 | 0.83760186E+02 | 2871.146
 BASOPT|        2     |       1     | 0.86587219E-03 | 0.27871975E+03 | 4909.226
 BASOPT|        2     |       2     | 0.13946125E-02 | 0.21803415E+03 | 3517.541
 BASOPT|        2     |       3     | 0.24018269E-02 | 0.85839121E+02 | 2804.725
 BASOPT|        3     |       1     | 0.49143779E-03 | 0.23240682E+03 | 2099.582
 BASOPT|        3     |       2     | 0.98942676E-03 | 0.19924962E+03 | 1492.297
 BASOPT|        3     |       3     | 0.13187264E-02 | 0.23338484E+02 | 1285.462
 BASOPT|        4     |       1     | 0.18103047E-02 | 0.48417333E+03 | 1733.226
 BASOPT|        4     |       2     | 0.25629528E-02 | 0.30700705E+03 | 1437.514
 BASOPT|        4     |       3     | 0.46575578E-02 | 0.79777523E+02 | 1205.866
 BASOPT| -----------------------------------------------------------------------
 BASOPT| Total residuum value: -.21802714E+04

 BASOPT| Information at iteration number:   44200
 BASOPT| Training set | Combination | Rho difference | Condition num. | Time
 BASOPT| -----------------------------------------------------------------------
 BASOPT|        1     |       1     | 0.14682795E-02 | 0.33329453E+03 | 5026.676
