
  **** **** ******  **  PROGRAM STARTED AT               2021-01-19 17:01:13.754
 ***** ** ***  *** **   PROGRAM STARTED ON                               tcopt10
 **    ****   ******    PROGRAM STARTED BY                                hutter
 ***** **    ** ** **   PROGRAM PROCESS ID                                 95987
  **** **  *******  **  PROGRAM STARTED IN /data/hutter/GITHUB/BASIS/MOLOPT/PBE/
                                           Ca

 CP2K| version string:                    CP2K version 9.0 (Development Version)
 CP2K| source code revision number:                                  git:7d6847f
 CP2K| cp2kflags: omp libint fftw3 libxc elpa parallel mpi3 scalapack xsmm spgli
 CP2K|            b sirius libvori libbqb
 CP2K| is freely available from                            https://www.cp2k.org/
 CP2K| Program compiled at                          Fre Jan 15 16:26:00 CET 2021
 CP2K| Program compiled on                                               tcopt10
 CP2K| Program compiled for                                                local
 CP2K| Data directory path                 /data/hutter/GITHUB/CURRENT/cp2k/data
 CP2K| Input file name                                               opt-all.inp

 GLOBAL| Method name                                              OPTIMIZE_BASIS
 GLOBAL| Project name                                                     molopt
 GLOBAL| Preferred FFT library                                             FFTW3
 GLOBAL| Preferred diagonalization lib.                                     ELPA
 GLOBAL| Run type                                                   ENERGY_FORCE
 GLOBAL| All-to-all communication in single precision                          F
 GLOBAL| FFTs using library dependent lengths                                  F
 GLOBAL| Global print level                                               MEDIUM
 GLOBAL| MPI I/O enabled                                                       T
 GLOBAL| Total number of message passing processes                            36
 GLOBAL| Number of threads for this process                                    1
 GLOBAL| This output is from process                                           0
 GLOBAL| CPU model name                          AMD EPYC 7401 24-Core Processor
 GLOBAL| CPUID                                                              1002

 MEMORY| system memory details [Kb]
 MEMORY|                        rank 0           min           max       average
 MEMORY| MemTotal            263969964     263969964     263969964     263969964
 MEMORY| MemFree             243189664     243189664     243189664     243189664
 MEMORY| Buffers                  1196          1196          1196          1196
 MEMORY| Cached               16990444      16990444      16990444      16990444
 MEMORY| Slab                   843872        843872        843872        843872
 MEMORY| SReclaimable           417688        417688        417688        417688
 MEMORY| MemLikelyFree       260598992     260598992     260598992     260598992


 *** Fundamental physical constants (SI units) ***

 *** Literature: B. J. Mohr and B. N. Taylor,
 ***             CODATA recommended values of the fundamental physical
 ***             constants: 2006, Web Version 5.1
 ***             http://physics.nist.gov/constants

 Speed of light in vacuum [m/s]                             2.99792458000000E+08
 Magnetic constant or permeability of vacuum [N/A**2]       1.25663706143592E-06
 Electric constant or permittivity of vacuum [F/m]          8.85418781762039E-12
 Planck constant (h) [J*s]                                  6.62606896000000E-34
 Planck constant (h-bar) [J*s]                              1.05457162825177E-34
 Elementary charge [C]                                      1.60217648700000E-19
 Electron mass [kg]                                         9.10938215000000E-31
 Electron g factor [ ]                                     -2.00231930436220E+00
 Proton mass [kg]                                           1.67262163700000E-27
 Fine-structure constant                                    7.29735253760000E-03
 Rydberg constant [1/m]                                     1.09737315685270E+07
 Avogadro constant [1/mol]                                  6.02214179000000E+23
 Boltzmann constant [J/K]                                   1.38065040000000E-23
 Atomic mass unit [kg]                                      1.66053878200000E-27
 Bohr radius [m]                                            5.29177208590000E-11

 *** Conversion factors ***

 [u] -> [a.u.]                                              1.82288848426455E+03
 [Angstrom] -> [Bohr] = [a.u.]                              1.88972613288564E+00
 [a.u.] = [Bohr] -> [Angstrom]                              5.29177208590000E-01
 [a.u.] -> [s]                                              2.41888432650478E-17
 [a.u.] -> [fs]                                             2.41888432650478E-02
 [a.u.] -> [J]                                              4.35974393937059E-18
 [a.u.] -> [N]                                              8.23872205491840E-08
 [a.u.] -> [K]                                              3.15774647902944E+05
 [a.u.] -> [kJ/mol]                                         2.62549961709828E+03
 [a.u.] -> [kcal/mol]                                       6.27509468713739E+02
 [a.u.] -> [Pa]                                             2.94210107994716E+13
 [a.u.] -> [bar]                                            2.94210107994716E+08
 [a.u.] -> [atm]                                            2.90362800883016E+08
 [a.u.] -> [eV]                                             2.72113838565563E+01
 [a.u.] -> [Hz]                                             6.57968392072181E+15
 [a.u.] -> [1/cm] (wave numbers)                            2.19474631370540E+05
 [a.u./Bohr**2] -> [1/cm]                                   5.14048714338585E+03
 
 DBCSR| CPU Multiplication driver                                           XSMM
 DBCSR| Multrec recursion limit                                              512
 DBCSR| Multiplication stack size                                           1000
 DBCSR| Maximum elements for images                                    UNLIMITED
 DBCSR| Multiplicative factor virtual images                                   1
 DBCSR| Use multiplication densification                                       T
 DBCSR| Multiplication size stacks                                             3
 DBCSR| Use memory pool for CPU allocation                                     F
 DBCSR| Number of 3D layers                                               SINGLE
 DBCSR| Use MPI memory allocation                                              F
 DBCSR| Use RMA algorithm                                                      F
 DBCSR| Use Communication thread                                               T
 DBCSR| Communication thread load                                             87
 DBCSR| MPI: My node id                                                        0
 DBCSR| MPI: Number of nodes                                                  36
 DBCSR| OMP: Current number of threads                                         1
 DBCSR| OMP: Max number of threads                                             1
 DBCSR| Split modifier for TAS multiplication algorithm                  1.0E+00

 BASOPT| Total number of calculations      9

 BASOPT| Content of basis combination      1
 BASOPT|     Element:   CA    Basis set:    TZV2P-MOLOPT-PBE-GTH-Q10
 BASOPT|     Element:   CL    Basis set:    TZV2P-MOLOPT-PBE-GTH-Q7
 BASOPT|     Element:    H    Basis set:    TZV2P-MOLOPT-PBE-GTH-Q1
 BASOPT|     Element:    F    Basis set:    TZV2P-MOLOPT-PBE-GTH-Q7

 BASOPT| Content of basis combination      2
 BASOPT|     Element:   CA    Basis set:    TZVP-MOLOPT-PBE-GTH-q10
 BASOPT|     Element:   CL    Basis set:    TZVP-MOLOPT-PBE-GTH-q7
 BASOPT|     Element:    H    Basis set:    TZVP-MOLOPT-PBE-GTH-q1
 BASOPT|     Element:    F    Basis set:    TZVP-MOLOPT-PBE-GTH-q7

 BASOPT| Content of basis combination      3
 BASOPT|     Element:   CA    Basis set:    DZVP-MOLOPT-PBE-GTH-q10
 BASOPT|     Element:   CL    Basis set:    DZVP-MOLOPT-PBE-GTH-q7
 BASOPT|     Element:    H    Basis set:    DZVP-MOLOPT-PBE-GTH-q1
 BASOPT|     Element:    F    Basis set:    DZVP-MOLOPT-PBE-GTH-q7

 BASOPT| Information at iteration number:       0
 BASOPT| Training set | Combination | Rho difference | Condition num. | Time
 BASOPT| -----------------------------------------------------------------------
 BASOPT|        1     |       1     | 0.28498309E-02 | 0.13633084E+03 |    0.055
 BASOPT|        1     |       2     | 0.57991462E-01 | 0.13097466E+03 |    0.036
 BASOPT|        1     |       3     | 0.60720416E-01 | 0.26896536E+02 |    0.034
 BASOPT|        2     |       1     | 0.24787617E-02 | 0.18469490E+03 |    0.024
 BASOPT|        2     |       2     | 0.45511627E-01 | 0.16358603E+03 |    0.017
 BASOPT|        2     |       3     | 0.45812976E-01 | 0.15294142E+02 |    0.018
 BASOPT|        3     |       1     | 0.32586312E-02 | 0.14072582E+03 |    0.059
 BASOPT|        3     |       2     | 0.62527663E-01 | 0.13415433E+03 |    0.040
 BASOPT|        3     |       3     | 0.65574424E-01 | 0.27849779E+02 |    0.037
 BASOPT| -----------------------------------------------------------------------
 BASOPT| Total residuum value: -.12357111E+04

 BASOPT| Information at iteration number:     100
 BASOPT| Training set | Combination | Rho difference | Condition num. | Time
 BASOPT| -----------------------------------------------------------------------
 BASOPT|        1     |       1     | 0.29173696E-02 | 0.13607301E+03 |    5.098
 BASOPT|        1     |       2     | 0.58904033E-01 | 0.13084210E+03 |    3.413
 BASOPT|        1     |       3     | 0.61525948E-01 | 0.26896536E+02 |    3.124
 BASOPT|        2     |       1     | 0.24872770E-02 | 0.18462830E+03 |    2.149
 BASOPT|        2     |       2     | 0.45280540E-01 | 0.16375251E+03 |    1.537
 BASOPT|        2     |       3     | 0.45537915E-01 | 0.15290281E+02 |    1.435
 BASOPT|        3     |       1     | 0.33185989E-02 | 0.13977199E+03 |    5.642
 BASOPT|        3     |       2     | 0.63573521E-01 | 0.13389588E+03 |    3.772
 BASOPT|        3     |       3     | 0.66350623E-01 | 0.27817049E+02 |    3.487
 BASOPT| -----------------------------------------------------------------------
 BASOPT| Total residuum value: -.12357028E+04

 BASOPT| Information at iteration number:     200
 BASOPT| Training set | Combination | Rho difference | Condition num. | Time
 BASOPT| -----------------------------------------------------------------------
 BASOPT|        1     |       1     | 0.42756987E-02 | 0.30525247E+03 |   10.063
 BASOPT|        1     |       2     | 0.15159089E-01 | 0.27541817E+03 |    6.722
 BASOPT|        1     |       3     | 0.15890431E-01 | 0.27192241E+02 |    6.151
 BASOPT|        2     |       1     | 0.43865619E-02 | 0.37086278E+03 |    4.271
 BASOPT|        2     |       2     | 0.62437485E-02 | 0.24243395E+03 |    3.053
 BASOPT|        2     |       3     | 0.72839561E-02 | 0.14971851E+02 |    2.848
 BASOPT|        3     |       1     | 0.53407105E-02 | 0.28092743E+03 |   11.224
 BASOPT|        3     |       2     | 0.13017639E-01 | 0.26645404E+03 |    7.500
 BASOPT|        3     |       3     | 0.13757737E-01 | 0.28099933E+02 |    6.930
 BASOPT| -----------------------------------------------------------------------
 BASOPT| Total residuum value: -.12407053E+04

 BASOPT| Information at iteration number:     300
 BASOPT| Training set | Combination | Rho difference | Condition num. | Time
 BASOPT| -----------------------------------------------------------------------
 BASOPT|        1     |       1     | 0.43148932E-02 | 0.18961919E+03 |   15.011
 BASOPT|        1     |       2     | 0.10963239E-01 | 0.17157858E+03 |   10.017
 BASOPT|        1     |       3     | 0.11884947E-01 | 0.26652746E+02 |    9.165
 BASOPT|        2     |       1     | 0.47641781E-02 | 0.24629874E+03 |    6.393
 BASOPT|        2     |       2     | 0.58965268E-02 | 0.15265249E+03 |    4.569
 BASOPT|        2     |       3     | 0.69333597E-02 | 0.14818784E+02 |    4.261
 BASOPT|        3     |       1     | 0.56686365E-02 | 0.17968791E+03 |   16.805
 BASOPT|        3     |       2     | 0.10713608E-01 | 0.16637486E+03 |   11.230
 BASOPT|        3     |       3     | 0.11887186E-01 | 0.28219371E+02 |   10.374
 BASOPT| -----------------------------------------------------------------------
 BASOPT| Total residuum value: -.12410114E+04

 BASOPT| Information at iteration number:     400
 BASOPT| Training set | Combination | Rho difference | Condition num. | Time
 BASOPT| -----------------------------------------------------------------------
 BASOPT|        1     |       1     | 0.39382411E-02 | 0.14348651E+03 |   19.960
 BASOPT|        1     |       2     | 0.10509807E-01 | 0.12823135E+03 |   13.311
 BASOPT|        1     |       3     | 0.10798066E-01 | 0.26705060E+02 |   12.177
 BASOPT|        2     |       1     | 0.41969644E-02 | 0.19745499E+03 |    8.514
 BASOPT|        2     |       2     | 0.53664419E-02 | 0.15000892E+03 |    6.087
 BASOPT|        2     |       3     | 0.56025473E-02 | 0.14880374E+02 |    5.675
 BASOPT|        3     |       1     | 0.52605384E-02 | 0.13524390E+03 |   22.387
 BASOPT|        3     |       2     | 0.10304485E-01 | 0.12355654E+03 |   14.957
 BASOPT|        3     |       3     | 0.10683415E-01 | 0.27989813E+02 |   13.817
 BASOPT| -----------------------------------------------------------------------
 BASOPT| Total residuum value: -.12418114E+04

 BASOPT| Information at iteration number:     500
 BASOPT| Training set | Combination | Rho difference | Condition num. | Time
 BASOPT| -----------------------------------------------------------------------
 BASOPT|        1     |       1     | 0.38922830E-02 | 0.11413270E+03 |   24.916
 BASOPT|        1     |       2     | 0.96042213E-02 | 0.10194040E+03 |   16.605
 BASOPT|        1     |       3     | 0.98603061E-02 | 0.26657953E+02 |   15.179
 BASOPT|        2     |       1     | 0.40610031E-02 | 0.18471607E+03 |   10.636
 BASOPT|        2     |       2     | 0.52242099E-02 | 0.15129788E+03 |    7.603
 BASOPT|        2     |       3     | 0.53585635E-02 | 0.14788087E+02 |    7.089
 BASOPT|        3     |       1     | 0.52744894E-02 | 0.10908412E+03 |   27.963
 BASOPT|        3     |       2     | 0.98953594E-02 | 0.98521201E+02 |   18.685
 BASOPT|        3     |       3     | 0.10247338E-01 | 0.27929191E+02 |   17.265
 BASOPT| -----------------------------------------------------------------------
 BASOPT| Total residuum value: -.12419782E+04

 BASOPT| Information at iteration number:     600
 BASOPT| Training set | Combination | Rho difference | Condition num. | Time
 BASOPT| -----------------------------------------------------------------------
 BASOPT|        1     |       1     | 0.37740667E-02 | 0.79770716E+02 |   29.871
 BASOPT|        1     |       2     | 0.93106419E-02 | 0.70836497E+02 |   19.899
 BASOPT|        1     |       3     | 0.95722740E-02 | 0.26606957E+02 |   18.180
 BASOPT|        2     |       1     | 0.38487165E-02 | 0.18332721E+03 |   12.757
 BASOPT|        2     |       2     | 0.50038149E-02 | 0.15092187E+03 |    9.118
 BASOPT|        2     |       3     | 0.50270894E-02 | 0.14822742E+02 |    8.502
 BASOPT|        3     |       1     | 0.50405521E-02 | 0.79703708E+02 |   33.538
 BASOPT|        3     |       2     | 0.95614529E-02 | 0.69278929E+02 |   22.412
 BASOPT|        3     |       3     | 0.98462787E-02 | 0.27811868E+02 |   20.714
 BASOPT| -----------------------------------------------------------------------
 BASOPT| Total residuum value: -.12421144E+04

 BASOPT| Information at iteration number:     700
 BASOPT| Training set | Combination | Rho difference | Condition num. | Time
 BASOPT| -----------------------------------------------------------------------
 BASOPT|        1     |       1     | 0.36905074E-02 | 0.62699872E+02 |   34.824
 BASOPT|        1     |       2     | 0.90120467E-02 | 0.50818719E+02 |   23.192
 BASOPT|        1     |       3     | 0.92790694E-02 | 0.26336458E+02 |   21.180
 BASOPT|        2     |       1     | 0.36355392E-02 | 0.18182597E+03 |   14.878
 BASOPT|        2     |       2     | 0.47145646E-02 | 0.14986441E+03 |   10.633
 BASOPT|        2     |       3     | 0.47415819E-02 | 0.14860370E+02 |    9.916
 BASOPT|        3     |       1     | 0.48337797E-02 | 0.60810731E+02 |   39.113
 BASOPT|        3     |       2     | 0.91952189E-02 | 0.49877387E+02 |   26.139
 BASOPT|        3     |       3     | 0.94844559E-02 | 0.27722275E+02 |   24.163
 BASOPT| -----------------------------------------------------------------------
 BASOPT| Total residuum value: -.12422184E+04

 BASOPT| Information at iteration number:     800
 BASOPT| Training set | Combination | Rho difference | Condition num. | Time
 BASOPT| -----------------------------------------------------------------------
 BASOPT|        1     |       1     | 0.35848573E-02 | 0.61665327E+02 |   39.776
 BASOPT|        1     |       2     | 0.89264534E-02 | 0.44832171E+02 |   26.486
 BASOPT|        1     |       3     | 0.92073900E-02 | 0.26013425E+02 |   24.181
 BASOPT|        2     |       1     | 0.33853064E-02 | 0.18121434E+03 |   16.998
 BASOPT|        2     |       2     | 0.43655976E-02 | 0.15000811E+03 |   12.147
 BASOPT|        2     |       3     | 0.44042872E-02 | 0.14857663E+02 |   11.329
 BASOPT|        3     |       1     | 0.45306744E-02 | 0.55051744E+02 |   44.688
 BASOPT|        3     |       2     | 0.87555871E-02 | 0.44101739E+02 |   29.869
 BASOPT|        3     |       3     | 0.90662198E-02 | 0.27584841E+02 |   27.612
 BASOPT| -----------------------------------------------------------------------
 BASOPT| Total residuum value: -.12423289E+04

 BASOPT| Information at iteration number:     900
 BASOPT| Training set | Combination | Rho difference | Condition num. | Time
 BASOPT| -----------------------------------------------------------------------
 BASOPT|        1     |       1     | 0.36260767E-02 | 0.61237292E+02 |   44.732
 BASOPT|        1     |       2     | 0.87113292E-02 | 0.39310715E+02 |   29.779
 BASOPT|        1     |       3     | 0.89946148E-02 | 0.26205621E+02 |   27.181
 BASOPT|        2     |       1     | 0.32722947E-02 | 0.17916239E+03 |   19.119
 BASOPT|        2     |       2     | 0.42933085E-02 | 0.14845038E+03 |   13.662
 BASOPT|        2     |       3     | 0.43243639E-02 | 0.14867925E+02 |   12.743
 BASOPT|        3     |       1     | 0.44410469E-02 | 0.49634850E+02 |   50.262
 BASOPT|        3     |       2     | 0.84240979E-02 | 0.39057809E+02 |   33.596
 BASOPT|        3     |       3     | 0.87174565E-02 | 0.27538919E+02 |   31.062
 BASOPT| -----------------------------------------------------------------------
 BASOPT| Total residuum value: -.12424062E+04

 BASOPT| Information at iteration number:    1000
 BASOPT| Training set | Combination | Rho difference | Condition num. | Time
 BASOPT| -----------------------------------------------------------------------
 BASOPT|        1     |       1     | 0.37597205E-02 | 0.60836538E+02 |   49.689
 BASOPT|        1     |       2     | 0.83118341E-02 | 0.36643074E+02 |   33.072
 BASOPT|        1     |       3     | 0.86272320E-02 | 0.25807686E+02 |   30.182
 BASOPT|        2     |       1     | 0.30540086E-02 | 0.17752782E+03 |   21.240
 BASOPT|        2     |       2     | 0.40013619E-02 | 0.14854702E+03 |   15.176
 BASOPT|        2     |       3     | 0.40429202E-02 | 0.14847026E+02 |   14.156
 BASOPT|        3     |       1     | 0.42529263E-02 | 0.43023581E+02 |   55.838
 BASOPT|        3     |       2     | 0.77618825E-02 | 0.36997236E+02 |   37.326
 BASOPT|        3     |       3     | 0.80646776E-02 | 0.27407947E+02 |   34.512
 BASOPT| -----------------------------------------------------------------------
 BASOPT| Total residuum value: -.12424943E+04

 BASOPT| Information at iteration number:    1100
 BASOPT| Training set | Combination | Rho difference | Condition num. | Time
 BASOPT| -----------------------------------------------------------------------
 BASOPT|        1     |       1     | 0.38158453E-02 | 0.60415481E+02 |   54.644
 BASOPT|        1     |       2     | 0.80762635E-02 | 0.36679034E+02 |   36.366
 BASOPT|        1     |       3     | 0.83906726E-02 | 0.26274994E+02 |   33.183
 BASOPT|        2     |       1     | 0.30036734E-02 | 0.17841116E+03 |   23.361
 BASOPT|        2     |       2     | 0.39482332E-02 | 0.14980153E+03 |   16.691
 BASOPT|        2     |       3     | 0.39815429E-02 | 0.14884131E+02 |   15.569
 BASOPT|        3     |       1     | 0.42115705E-02 | 0.40142418E+02 |   61.414
 BASOPT|        3     |       2     | 0.75340715E-02 | 0.36955379E+02 |   41.055
 BASOPT|        3     |       3     | 0.78282328E-02 | 0.27279049E+02 |   37.961
 BASOPT| -----------------------------------------------------------------------
 BASOPT| Total residuum value: -.12425387E+04

 BASOPT| Information at iteration number:    1200
 BASOPT| Training set | Combination | Rho difference | Condition num. | Time
 BASOPT| -----------------------------------------------------------------------
 BASOPT|        1     |       1     | 0.38196267E-02 | 0.60473372E+02 |   59.598
 BASOPT|        1     |       2     | 0.77453563E-02 | 0.36881343E+02 |   39.659
 BASOPT|        1     |       3     | 0.80533341E-02 | 0.26262538E+02 |   36.185
 BASOPT|        2     |       1     | 0.30235585E-02 | 0.17991146E+03 |   25.484
 BASOPT|        2     |       2     | 0.39793090E-02 | 0.15138862E+03 |   18.206
 BASOPT|        2     |       3     | 0.40146373E-02 | 0.14882727E+02 |   16.982
 BASOPT|        3     |       1     | 0.42242688E-02 | 0.39085986E+02 |   66.986
 BASOPT|        3     |       2     | 0.74212417E-02 | 0.37253173E+02 |   44.785
 BASOPT|        3     |       3     | 0.77304954E-02 | 0.27259242E+02 |   41.410
 BASOPT| -----------------------------------------------------------------------
 BASOPT| Total residuum value: -.12425399E+04

 BASOPT| Information at iteration number:    1300
 BASOPT| Training set | Combination | Rho difference | Condition num. | Time
 BASOPT| -----------------------------------------------------------------------
 BASOPT|        1     |       1     | 0.38137226E-02 | 0.60381549E+02 |   64.550
 BASOPT|        1     |       2     | 0.73747359E-02 | 0.37366577E+02 |   42.953
 BASOPT|        1     |       3     | 0.76604778E-02 | 0.26381131E+02 |   39.186
 BASOPT|        2     |       1     | 0.30069911E-02 | 0.18092955E+03 |   27.605
 BASOPT|        2     |       2     | 0.39925036E-02 | 0.15256226E+03 |   19.721
 BASOPT|        2     |       3     | 0.40130521E-02 | 0.14882633E+02 |   18.394
 BASOPT|        3     |       1     | 0.42051861E-02 | 0.39074153E+02 |   72.558
 BASOPT|        3     |       2     | 0.72579442E-02 | 0.37370196E+02 |   48.514
 BASOPT|        3     |       3     | 0.75474660E-02 | 0.27150838E+02 |   44.859
 BASOPT| -----------------------------------------------------------------------
 BASOPT| Total residuum value: -.12425892E+04

 BASOPT| Information at iteration number:    1400
 BASOPT| Training set | Combination | Rho difference | Condition num. | Time
 BASOPT| -----------------------------------------------------------------------
 BASOPT|        1     |       1     | 0.38238062E-02 | 0.60441862E+02 |   69.500
 BASOPT|        1     |       2     | 0.72473544E-02 | 0.37373285E+02 |   46.246
 BASOPT|        1     |       3     | 0.75252981E-02 | 0.26462126E+02 |   42.187
 BASOPT|        2     |       1     | 0.30045271E-02 | 0.18038740E+03 |   29.727
 BASOPT|        2     |       2     | 0.40028113E-02 | 0.15229900E+03 |   21.235
 BASOPT|        2     |       3     | 0.40183607E-02 | 0.14889902E+02 |   19.807
 BASOPT|        3     |       1     | 0.42096139E-02 | 0.38880092E+02 |   78.127
 BASOPT|        3     |       2     | 0.71630025E-02 | 0.37235097E+02 |   52.244
 BASOPT|        3     |       3     | 0.74506968E-02 | 0.27110829E+02 |   48.308
 BASOPT| -----------------------------------------------------------------------
 BASOPT| Total residuum value: -.12425979E+04

 BASOPT| Information at iteration number:    1500
 BASOPT| Training set | Combination | Rho difference | Condition num. | Time
 BASOPT| -----------------------------------------------------------------------
 BASOPT|        1     |       1     | 0.38472950E-02 | 0.60869009E+02 |   74.451
 BASOPT|        1     |       2     | 0.69849031E-02 | 0.37708932E+02 |   49.540
 BASOPT|        1     |       3     | 0.72528444E-02 | 0.26693789E+02 |   45.188
 BASOPT|        2     |       1     | 0.30051272E-02 | 0.18101699E+03 |   31.849
 BASOPT|        2     |       2     | 0.40834663E-02 | 0.15302393E+03 |   22.750
 BASOPT|        2     |       3     | 0.40955093E-02 | 0.14946306E+02 |   21.220
 BASOPT|        3     |       1     | 0.42251500E-02 | 0.38970990E+02 |   83.698
 BASOPT|        3     |       2     | 0.69958380E-02 | 0.37353015E+02 |   55.974
 BASOPT|        3     |       3     | 0.72770412E-02 | 0.27155309E+02 |   51.756
 BASOPT| -----------------------------------------------------------------------
 BASOPT| Total residuum value: -.12426240E+04

 BASOPT| Information at iteration number:    1600
 BASOPT| Training set | Combination | Rho difference | Condition num. | Time
 BASOPT| -----------------------------------------------------------------------
 BASOPT|        1     |       1     | 0.38891042E-02 | 0.60465117E+02 |   79.403
 BASOPT|        1     |       2     | 0.68248772E-02 | 0.37962478E+02 |   52.833
 BASOPT|        1     |       3     | 0.70809149E-02 | 0.26804715E+02 |   48.188
 BASOPT|        2     |       1     | 0.30304235E-02 | 0.18117959E+03 |   33.972
 BASOPT|        2     |       2     | 0.41437359E-02 | 0.15337509E+03 |   24.264
 BASOPT|        2     |       3     | 0.41552341E-02 | 0.14959277E+02 |   22.633
 BASOPT|        3     |       1     | 0.42398329E-02 | 0.38853057E+02 |   89.268
 BASOPT|        3     |       2     | 0.69130535E-02 | 0.37317766E+02 |   59.705
 BASOPT|        3     |       3     | 0.71909911E-02 | 0.27081693E+02 |   55.204
 BASOPT| -----------------------------------------------------------------------
 BASOPT| Total residuum value: -.12426435E+04

 BASOPT| Information at iteration number:    1700
 BASOPT| Training set | Combination | Rho difference | Condition num. | Time
 BASOPT| -----------------------------------------------------------------------
 BASOPT|        1     |       1     | 0.39374095E-02 | 0.60146011E+02 |   84.361
 BASOPT|        1     |       2     | 0.66955804E-02 | 0.38438510E+02 |   56.128
 BASOPT|        1     |       3     | 0.69523215E-02 | 0.27112860E+02 |   51.188
 BASOPT|        2     |       1     | 0.29893217E-02 | 0.18057193E+03 |   36.095
 BASOPT|        2     |       2     | 0.41304436E-02 | 0.15316760E+03 |   25.779
 BASOPT|        2     |       3     | 0.41458006E-02 | 0.14958697E+02 |   24.046
 BASOPT|        3     |       1     | 0.42100285E-02 | 0.38631248E+02 |   94.837
 BASOPT|        3     |       2     | 0.67926511E-02 | 0.37171053E+02 |   63.436
 BASOPT|        3     |       3     | 0.70795034E-02 | 0.26997811E+02 |   58.652
 BASOPT| -----------------------------------------------------------------------
 BASOPT| Total residuum value: -.12426629E+04

 BASOPT| Information at iteration number:    1800
 BASOPT| Training set | Combination | Rho difference | Condition num. | Time
 BASOPT| -----------------------------------------------------------------------
 BASOPT|        1     |       1     | 0.39456682E-02 | 0.60129251E+02 |   89.332
 BASOPT|        1     |       2     | 0.65399200E-02 | 0.38788561E+02 |   59.421
 BASOPT|        1     |       3     | 0.67933156E-02 | 0.27252644E+02 |   54.188
 BASOPT|        2     |       1     | 0.29862004E-02 | 0.18065375E+03 |   38.217
 BASOPT|        2     |       2     | 0.41816344E-02 | 0.15356654E+03 |   27.295
 BASOPT|        2     |       3     | 0.42049659E-02 | 0.14956875E+02 |   25.460
 BASOPT|        3     |       1     | 0.42045998E-02 | 0.38635185E+02 |  100.411
 BASOPT|        3     |       2     | 0.67089392E-02 | 0.37226911E+02 |   67.168
 BASOPT|        3     |       3     | 0.69959940E-02 | 0.26950025E+02 |   62.102
 BASOPT| -----------------------------------------------------------------------
 BASOPT| Total residuum value: -.12426647E+04

 BASOPT| Information at iteration number:    1900
 BASOPT| Training set | Combination | Rho difference | Condition num. | Time
 BASOPT| -----------------------------------------------------------------------
 BASOPT|        1     |       1     | 0.39400290E-02 | 0.60421295E+02 |   94.290
 BASOPT|        1     |       2     | 0.63660417E-02 | 0.38770393E+02 |   62.714
 BASOPT|        1     |       3     | 0.66105021E-02 | 0.27008766E+02 |   57.187
 BASOPT|        2     |       1     | 0.30495823E-02 | 0.18131076E+03 |   40.339
 BASOPT|        2     |       2     | 0.43382328E-02 | 0.15430845E+03 |   28.809
 BASOPT|        2     |       3     | 0.43680956E-02 | 0.14937528E+02 |   26.873
 BASOPT|        3     |       1     | 0.42472893E-02 | 0.38861341E+02 |  105.978
 BASOPT|        3     |       2     | 0.66974365E-02 | 0.37493794E+02 |   70.897
 BASOPT|        3     |       3     | 0.69892339E-02 | 0.26944350E+02 |   65.549
 BASOPT| -----------------------------------------------------------------------
 BASOPT| Total residuum value: -.12426270E+04

 BASOPT| Information at iteration number:    2000
 BASOPT| Training set | Combination | Rho difference | Condition num. | Time
 BASOPT| -----------------------------------------------------------------------
 BASOPT|        1     |       1     | 0.39445903E-02 | 0.61019009E+02 |   99.259
 BASOPT|        1     |       2     | 0.62051361E-02 | 0.39173487E+02 |   66.008
 BASOPT|        1     |       3     | 0.64452550E-02 | 0.27245673E+02 |   60.185
 BASOPT|        2     |       1     | 0.29798025E-02 | 0.18127046E+03 |   42.460
 BASOPT|        2     |       2     | 0.43346432E-02 | 0.15431515E+03 |   30.323
 BASOPT|        2     |       3     | 0.43747737E-02 | 0.14950487E+02 |   28.285
 BASOPT|        3     |       1     | 0.42077985E-02 | 0.38901156E+02 |  111.546
 BASOPT|        3     |       2     | 0.66215660E-02 | 0.37506657E+02 |   74.624
 BASOPT|        3     |       3     | 0.69070617E-02 | 0.26960174E+02 |   68.997
 BASOPT| -----------------------------------------------------------------------
 BASOPT| Total residuum value: -.12426871E+04

 BASOPT| Information at iteration number:    2100
 BASOPT| Training set | Combination | Rho difference | Condition num. | Time
 BASOPT| -----------------------------------------------------------------------
 BASOPT|        1     |       1     | 0.39469817E-02 | 0.60481726E+02 |  104.221
 BASOPT|        1     |       2     | 0.61789096E-02 | 0.39162366E+02 |   69.301
 BASOPT|        1     |       3     | 0.64127502E-02 | 0.27304487E+02 |   63.183
 BASOPT|        2     |       1     | 0.29807681E-02 | 0.18017684E+03 |   44.580
 BASOPT|        2     |       2     | 0.43481113E-02 | 0.15369600E+03 |   31.837
 BASOPT|        2     |       3     | 0.43875818E-02 | 0.14928013E+02 |   29.697
 BASOPT|        3     |       1     | 0.42013525E-02 | 0.38848418E+02 |  117.112
 BASOPT|        3     |       2     | 0.66239113E-02 | 0.37453996E+02 |   78.351
 BASOPT|        3     |       3     | 0.69077248E-02 | 0.26968778E+02 |   72.443
 BASOPT| -----------------------------------------------------------------------
 BASOPT| Total residuum value: -.12426922E+04

 BASOPT| Information at iteration number:    2200
 BASOPT| Training set | Combination | Rho difference | Condition num. | Time
 BASOPT| -----------------------------------------------------------------------
 BASOPT|        1     |       1     | 0.39414179E-02 | 0.60283453E+02 |  109.184
 BASOPT|        1     |       2     | 0.62020604E-02 | 0.39591638E+02 |   72.594
 BASOPT|        1     |       3     | 0.64501921E-02 | 0.27580280E+02 |   66.180
 BASOPT|        2     |       1     | 0.29396538E-02 | 0.17999281E+03 |   46.702
 BASOPT|        2     |       2     | 0.43027504E-02 | 0.15387852E+03 |   33.350
 BASOPT|        2     |       3     | 0.43460332E-02 | 0.14913283E+02 |   31.109
 BASOPT|        3     |       1     | 0.41561857E-02 | 0.39000343E+02 |  122.680
 BASOPT|        3     |       2     | 0.65518237E-02 | 0.37635591E+02 |   82.078
 BASOPT|        3     |       3     | 0.68436685E-02 | 0.26980027E+02 |   75.890
 BASOPT| -----------------------------------------------------------------------
 BASOPT| Total residuum value: -.12426990E+04

 BASOPT| Information at iteration number:    2300
 BASOPT| Training set | Combination | Rho difference | Condition num. | Time
 BASOPT| -----------------------------------------------------------------------
 BASOPT|        1     |       1     | 0.39147830E-02 | 0.60403327E+02 |  114.147
 BASOPT|        1     |       2     | 0.61886850E-02 | 0.39919745E+02 |   75.887
 BASOPT|        1     |       3     | 0.64331626E-02 | 0.27697758E+02 |   69.177
 BASOPT|        2     |       1     | 0.29234563E-02 | 0.18053958E+03 |   48.824
 BASOPT|        2     |       2     | 0.43001965E-02 | 0.15449456E+03 |   34.865
 BASOPT|        2     |       3     | 0.43321962E-02 | 0.14903801E+02 |   32.521
 BASOPT|        3     |       1     | 0.41238888E-02 | 0.39312153E+02 |  128.250
 BASOPT|        3     |       2     | 0.65114276E-02 | 0.37954595E+02 |   85.805
 BASOPT|        3     |       3     | 0.68004477E-02 | 0.27097601E+02 |   79.338
 BASOPT| -----------------------------------------------------------------------
 BASOPT| Total residuum value: -.12427052E+04

 BASOPT| Information at iteration number:    2400
 BASOPT| Training set | Combination | Rho difference | Condition num. | Time
 BASOPT| -----------------------------------------------------------------------
 BASOPT|        1     |       1     | 0.39035945E-02 | 0.60350798E+02 |  119.108
 BASOPT|        1     |       2     | 0.61771163E-02 | 0.39711102E+02 |   79.181
 BASOPT|        1     |       3     | 0.64160130E-02 | 0.27602653E+02 |   72.175
 BASOPT|        2     |       1     | 0.29295308E-02 | 0.18026359E+03 |   50.945
 BASOPT|        2     |       2     | 0.43061249E-02 | 0.15420428E+03 |   36.378
 BASOPT|        2     |       3     | 0.43347665E-02 | 0.14910553E+02 |   33.932
 BASOPT|        3     |       1     | 0.41277401E-02 | 0.39240344E+02 |  133.819
 BASOPT|        3     |       2     | 0.65224872E-02 | 0.37868765E+02 |   89.532
 BASOPT|        3     |       3     | 0.68068170E-02 | 0.27062572E+02 |   82.785
 BASOPT| -----------------------------------------------------------------------
 BASOPT| Total residuum value: -.12427131E+04

 BASOPT| Information at iteration number:    2500
 BASOPT| Training set | Combination | Rho difference | Condition num. | Time
 BASOPT| -----------------------------------------------------------------------
 BASOPT|        1     |       1     | 0.38869386E-02 | 0.60414155E+02 |  124.074
 BASOPT|        1     |       2     | 0.62184769E-02 | 0.39816682E+02 |   82.475
 BASOPT|        1     |       3     | 0.64589742E-02 | 0.27741210E+02 |   75.173
 BASOPT|        2     |       1     | 0.29002686E-02 | 0.18031638E+03 |   53.067
 BASOPT|        2     |       2     | 0.42641573E-02 | 0.15430842E+03 |   37.892
 BASOPT|        2     |       3     | 0.42965495E-02 | 0.14914855E+02 |   35.345
 BASOPT|        3     |       1     | 0.41049260E-02 | 0.39463780E+02 |  139.389
 BASOPT|        3     |       2     | 0.65118580E-02 | 0.38064520E+02 |   93.259
 BASOPT|        3     |       3     | 0.67937508E-02 | 0.27200911E+02 |   86.232
 BASOPT| -----------------------------------------------------------------------
 BASOPT| Total residuum value: -.12427197E+04

 BASOPT| Information at iteration number:    2600
 BASOPT| Training set | Combination | Rho difference | Condition num. | Time
 BASOPT| -----------------------------------------------------------------------
 BASOPT|        1     |       1     | 0.38529778E-02 | 0.60404321E+02 |  129.033
 BASOPT|        1     |       2     | 0.62507597E-02 | 0.39403801E+02 |   85.769
 BASOPT|        1     |       3     | 0.64924844E-02 | 0.27649984E+02 |   78.172
 BASOPT|        2     |       1     | 0.28716238E-02 | 0.17897115E+03 |   55.188
 BASOPT|        2     |       2     | 0.42390987E-02 | 0.15324957E+03 |   39.404
 BASOPT|        2     |       3     | 0.42652268E-02 | 0.14923377E+02 |   36.757
 BASOPT|        3     |       1     | 0.40827843E-02 | 0.39510379E+02 |  144.959
 BASOPT|        3     |       2     | 0.65028533E-02 | 0.38062756E+02 |   96.986
 BASOPT|        3     |       3     | 0.67842012E-02 | 0.27307629E+02 |   89.679
 BASOPT| -----------------------------------------------------------------------
 BASOPT| Total residuum value: -.12427276E+04

 BASOPT| Information at iteration number:    2700
 BASOPT| Training set | Combination | Rho difference | Condition num. | Time
 BASOPT| -----------------------------------------------------------------------
 BASOPT|        1     |       1     | 0.38105646E-02 | 0.60247526E+02 |  133.996
 BASOPT|        1     |       2     | 0.62563010E-02 | 0.39151059E+02 |   89.061
 BASOPT|        1     |       3     | 0.64971642E-02 | 0.27529583E+02 |   81.169
 BASOPT|        2     |       1     | 0.28573000E-02 | 0.17838694E+03 |   57.310
 BASOPT|        2     |       2     | 0.42301400E-02 | 0.15284891E+03 |   40.917
 BASOPT|        2     |       3     | 0.42544015E-02 | 0.14922990E+02 |   38.169
 BASOPT|        3     |       1     | 0.40612268E-02 | 0.39651173E+02 |  150.528
 BASOPT|        3     |       2     | 0.65005644E-02 | 0.38178044E+02 |  100.711
 BASOPT|        3     |       3     | 0.67814501E-02 | 0.27430691E+02 |   93.126
 BASOPT| -----------------------------------------------------------------------
 BASOPT| Total residuum value: -.12427332E+04

 BASOPT| Information at iteration number:    2800
 BASOPT| Training set | Combination | Rho difference | Condition num. | Time
 BASOPT| -----------------------------------------------------------------------
 BASOPT|        1     |       1     | 0.37484729E-02 | 0.60179268E+02 |  138.958
 BASOPT|        1     |       2     | 0.62723940E-02 | 0.38815336E+02 |   92.354
 BASOPT|        1     |       3     | 0.65139966E-02 | 0.27409973E+02 |   84.166
 BASOPT|        2     |       1     | 0.28368922E-02 | 0.17734030E+03 |   59.432
 BASOPT|        2     |       2     | 0.42309398E-02 | 0.15208057E+03 |   42.430
 BASOPT|        2     |       3     | 0.42539986E-02 | 0.14927323E+02 |   39.581
 BASOPT|        3     |       1     | 0.40262230E-02 | 0.39818435E+02 |  156.096
 BASOPT|        3     |       2     | 0.64839196E-02 | 0.38295460E+02 |  104.439
 BASOPT|        3     |       3     | 0.67637617E-02 | 0.27582402E+02 |   96.573
 BASOPT| -----------------------------------------------------------------------
 BASOPT| Total residuum value: -.12427398E+04

 BASOPT| Information at iteration number:    2900
 BASOPT| Training set | Combination | Rho difference | Condition num. | Time
 BASOPT| -----------------------------------------------------------------------
 BASOPT|        1     |       1     | 0.36727972E-02 | 0.60024891E+02 |  143.923
 BASOPT|        1     |       2     | 0.62966282E-02 | 0.38523433E+02 |   95.646
 BASOPT|        1     |       3     | 0.65434180E-02 | 0.27439480E+02 |   87.163
 BASOPT|        2     |       1     | 0.28124974E-02 | 0.17564209E+03 |   61.553
 BASOPT|        2     |       2     | 0.42658331E-02 | 0.15093780E+03 |   43.943
 BASOPT|        2     |       3     | 0.42817482E-02 | 0.14949175E+02 |   40.993
 BASOPT|        3     |       1     | 0.39734135E-02 | 0.40018170E+02 |  161.665
 BASOPT|        3     |       2     | 0.64385603E-02 | 0.38428184E+02 |  108.165
 BASOPT|        3     |       3     | 0.67160750E-02 | 0.27823727E+02 |  100.019
 BASOPT| -----------------------------------------------------------------------
 BASOPT| Total residuum value: -.12427503E+04

 BASOPT| Information at iteration number:    3000
 BASOPT| Training set | Combination | Rho difference | Condition num. | Time
 BASOPT| -----------------------------------------------------------------------
 BASOPT|        1     |       1     | 0.36633058E-02 | 0.59936266E+02 |  148.885
 BASOPT|        1     |       2     | 0.63120699E-02 | 0.38623342E+02 |   98.939
 BASOPT|        1     |       3     | 0.65628618E-02 | 0.27583471E+02 |   90.161
 BASOPT|        2     |       1     | 0.27990730E-02 | 0.17526075E+03 |   63.675
 BASOPT|        2     |       2     | 0.42694215E-02 | 0.15076456E+03 |   45.456
 BASOPT|        2     |       3     | 0.42836955E-02 | 0.14960934E+02 |   42.406
 BASOPT|        3     |       1     | 0.39549364E-02 | 0.40045744E+02 |  167.235
 BASOPT|        3     |       2     | 0.64088251E-02 | 0.38440693E+02 |  111.895
 BASOPT|        3     |       3     | 0.66871879E-02 | 0.27881552E+02 |  103.467
 BASOPT| -----------------------------------------------------------------------
 BASOPT| Total residuum value: -.12427537E+04

 BASOPT| Information at iteration number:    3100
 BASOPT| Training set | Combination | Rho difference | Condition num. | Time
 BASOPT| -----------------------------------------------------------------------
 BASOPT|        1     |       1     | 0.36452976E-02 | 0.59311651E+02 |  153.847
 BASOPT|        1     |       2     | 0.62898667E-02 | 0.38836737E+02 |  102.232
 BASOPT|        1     |       3     | 0.65426693E-02 | 0.27782621E+02 |   93.158
 BASOPT|        2     |       1     | 0.27925064E-02 | 0.17542451E+03 |   65.797
 BASOPT|        2     |       2     | 0.42943827E-02 | 0.15121254E+03 |   46.969
 BASOPT|        2     |       3     | 0.43085003E-02 | 0.14993819E+02 |   43.819
 BASOPT|        3     |       1     | 0.39380871E-02 | 0.40028482E+02 |  172.805
 BASOPT|        3     |       2     | 0.63842688E-02 | 0.38457294E+02 |  115.625
 BASOPT|        3     |       3     | 0.66600049E-02 | 0.27885676E+02 |  106.914
 BASOPT| -----------------------------------------------------------------------
 BASOPT| Total residuum value: -.12427586E+04

 BASOPT| Information at iteration number:    3200
 BASOPT| Training set | Combination | Rho difference | Condition num. | Time
 BASOPT| -----------------------------------------------------------------------
 BASOPT|        1     |       1     | 0.36250365E-02 | 0.58491836E+02 |  158.811
 BASOPT|        1     |       2     | 0.62961908E-02 | 0.38651270E+02 |  105.524
 BASOPT|        1     |       3     | 0.65491375E-02 | 0.27772431E+02 |   96.154
 BASOPT|        2     |       1     | 0.27819924E-02 | 0.17449121E+03 |   67.918
 BASOPT|        2     |       2     | 0.42557655E-02 | 0.15065560E+03 |   48.482
 BASOPT|        2     |       3     | 0.42703601E-02 | 0.14998984E+02 |   45.232
 BASOPT|        3     |       1     | 0.39212147E-02 | 0.39689139E+02 |  178.376
 BASOPT|        3     |       2     | 0.63842589E-02 | 0.38170264E+02 |  119.355
 BASOPT|        3     |       3     | 0.66607979E-02 | 0.27753655E+02 |  110.360
 BASOPT| -----------------------------------------------------------------------
 BASOPT| Total residuum value: -.12427622E+04

 BASOPT| Information at iteration number:    3300
 BASOPT| Training set | Combination | Rho difference | Condition num. | Time
 BASOPT| -----------------------------------------------------------------------
 BASOPT|        1     |       1     | 0.36002194E-02 | 0.58051318E+02 |  163.775
 BASOPT|        1     |       2     | 0.62800737E-02 | 0.38486215E+02 |  108.817
 BASOPT|        1     |       3     | 0.65314733E-02 | 0.27707591E+02 |   99.151
 BASOPT|        2     |       1     | 0.27792972E-02 | 0.17402098E+03 |   70.040
 BASOPT|        2     |       2     | 0.42572567E-02 | 0.15040841E+03 |   49.995
 BASOPT|        2     |       3     | 0.42718964E-02 | 0.15010569E+02 |   46.644
 BASOPT|        3     |       1     | 0.39079541E-02 | 0.39539695E+02 |  183.947
 BASOPT|        3     |       2     | 0.63838363E-02 | 0.38041656E+02 |  123.086
 BASOPT|        3     |       3     | 0.66602135E-02 | 0.27719420E+02 |  113.807
 BASOPT| -----------------------------------------------------------------------
 BASOPT| Total residuum value: -.12427648E+04

 BASOPT| Information at iteration number:    3400
 BASOPT| Training set | Combination | Rho difference | Condition num. | Time
 BASOPT| -----------------------------------------------------------------------
 BASOPT|        1     |       1     | 0.35735122E-02 | 0.57417483E+02 |  168.740
 BASOPT|        1     |       2     | 0.62612408E-02 | 0.38387106E+02 |  112.110
 BASOPT|        1     |       3     | 0.65106967E-02 | 0.27628965E+02 |  102.148
 BASOPT|        2     |       1     | 0.27819113E-02 | 0.17384919E+03 |   72.163
 BASOPT|        2     |       2     | 0.42738476E-02 | 0.15042514E+03 |   51.509
 BASOPT|        2     |       3     | 0.42881152E-02 | 0.15022343E+02 |   48.057
 BASOPT|        3     |       1     | 0.38965605E-02 | 0.39529760E+02 |  189.518
 BASOPT|        3     |       2     | 0.63781255E-02 | 0.38001383E+02 |  126.811
 BASOPT|        3     |       3     | 0.66562405E-02 | 0.27723118E+02 |  117.254
 BASOPT| -----------------------------------------------------------------------
 BASOPT| Total residuum value: -.12427687E+04

 BASOPT| Information at iteration number:    3500
 BASOPT| Training set | Combination | Rho difference | Condition num. | Time
 BASOPT| -----------------------------------------------------------------------
 BASOPT|        1     |       1     | 0.35379367E-02 | 0.56392533E+02 |  173.706
 BASOPT|        1     |       2     | 0.62169931E-02 | 0.38457952E+02 |  115.403
 BASOPT|        1     |       3     | 0.64661533E-02 | 0.27749163E+02 |  105.145
 BASOPT|        2     |       1     | 0.27800712E-02 | 0.17364780E+03 |   74.286
 BASOPT|        2     |       2     | 0.42970750E-02 | 0.15049035E+03 |   53.022
 BASOPT|        2     |       3     | 0.43119958E-02 | 0.15046561E+02 |   49.470
 BASOPT|        3     |       1     | 0.38707704E-02 | 0.39660351E+02 |  195.088
 BASOPT|        3     |       2     | 0.63435706E-02 | 0.37864594E+02 |  130.538
 BASOPT|        3     |       3     | 0.66193842E-02 | 0.27685152E+02 |  120.701
 BASOPT| -----------------------------------------------------------------------
 BASOPT| Total residuum value: -.12427742E+04

 BASOPT| Information at iteration number:    3600
 BASOPT| Training set | Combination | Rho difference | Condition num. | Time
 BASOPT| -----------------------------------------------------------------------
 BASOPT|        1     |       1     | 0.35145835E-02 | 0.56017720E+02 |  178.669
 BASOPT|        1     |       2     | 0.61817668E-02 | 0.38350901E+02 |  118.698
 BASOPT|        1     |       3     | 0.64285494E-02 | 0.27688325E+02 |  108.140
 BASOPT|        2     |       1     | 0.27813344E-02 | 0.17341733E+03 |   76.408
 BASOPT|        2     |       2     | 0.43157581E-02 | 0.15036092E+03 |   54.536
 BASOPT|        2     |       3     | 0.43315338E-02 | 0.15053047E+02 |   50.882
 BASOPT|        3     |       1     | 0.38592459E-02 | 0.39947068E+02 |  200.658
 BASOPT|        3     |       2     | 0.63289811E-02 | 0.37773648E+02 |  134.264
 BASOPT|        3     |       3     | 0.66038622E-02 | 0.27636367E+02 |  124.147
 BASOPT| -----------------------------------------------------------------------
 BASOPT| Total residuum value: -.12427764E+04

 BASOPT| Information at iteration number:    3700
 BASOPT| Training set | Combination | Rho difference | Condition num. | Time
 BASOPT| -----------------------------------------------------------------------
 BASOPT|        1     |       1     | 0.35048733E-02 | 0.55638012E+02 |  183.633
 BASOPT|        1     |       2     | 0.61776774E-02 | 0.38460787E+02 |  121.991
 BASOPT|        1     |       3     | 0.64242128E-02 | 0.27729144E+02 |  111.136
 BASOPT|        2     |       1     | 0.27694806E-02 | 0.17354910E+03 |   78.530
 BASOPT|        2     |       2     | 0.42961108E-02 | 0.15061647E+03 |   56.051
 BASOPT|        2     |       3     | 0.43122516E-02 | 0.15058030E+02 |   52.294
 BASOPT|        3     |       1     | 0.38460118E-02 | 0.40263145E+02 |  206.227
 BASOPT|        3     |       2     | 0.63216962E-02 | 0.37784193E+02 |  137.992
 BASOPT|        3     |       3     | 0.66002206E-02 | 0.27624947E+02 |  127.595
 BASOPT| -----------------------------------------------------------------------
 BASOPT| Total residuum value: -.12427787E+04

 BASOPT| Information at iteration number:    3800
 BASOPT| Training set | Combination | Rho difference | Condition num. | Time
 BASOPT| -----------------------------------------------------------------------
 BASOPT|        1     |       1     | 0.35038337E-02 | 0.55199078E+02 |  188.600
 BASOPT|        1     |       2     | 0.61520028E-02 | 0.38558693E+02 |  125.285
 BASOPT|        1     |       3     | 0.63959271E-02 | 0.27784029E+02 |  114.132
 BASOPT|        2     |       1     | 0.27645641E-02 | 0.17374005E+03 |   80.652
 BASOPT|        2     |       2     | 0.42968345E-02 | 0.15091535E+03 |   57.565
 BASOPT|        2     |       3     | 0.43149009E-02 | 0.15079467E+02 |   53.706
 BASOPT|        3     |       1     | 0.38448722E-02 | 0.40344826E+02 |  211.798
 BASOPT|        3     |       2     | 0.63188516E-02 | 0.37705598E+02 |  141.720
 BASOPT|        3     |       3     | 0.65963271E-02 | 0.27539655E+02 |  131.041
 BASOPT| -----------------------------------------------------------------------
 BASOPT| Total residuum value: -.12427811E+04

 BASOPT| Information at iteration number:    3900
 BASOPT| Training set | Combination | Rho difference | Condition num. | Time
 BASOPT| -----------------------------------------------------------------------
 BASOPT|        1     |       1     | 0.35077966E-02 | 0.55260789E+02 |  193.562
 BASOPT|        1     |       2     | 0.61058773E-02 | 0.38638150E+02 |  128.578
 BASOPT|        1     |       3     | 0.63494461E-02 | 0.27907797E+02 |  117.128
 BASOPT|        2     |       1     | 0.27541191E-02 | 0.17350152E+03 |   82.774
 BASOPT|        2     |       2     | 0.43190483E-02 | 0.15080603E+03 |   59.079
 BASOPT|        2     |       3     | 0.43388549E-02 | 0.15100252E+02 |   55.119
 BASOPT|        3     |       1     | 0.38381065E-02 | 0.40271088E+02 |  217.368
 BASOPT|        3     |       2     | 0.63052898E-02 | 0.37627160E+02 |  145.446
 BASOPT|        3     |       3     | 0.65830421E-02 | 0.27547284E+02 |  134.488
 BASOPT| -----------------------------------------------------------------------
 BASOPT| Total residuum value: -.12427835E+04

 BASOPT| Information at iteration number:    4000
 BASOPT| Training set | Combination | Rho difference | Condition num. | Time
 BASOPT| -----------------------------------------------------------------------
 BASOPT|        1     |       1     | 0.35100430E-02 | 0.55312805E+02 |  198.525
 BASOPT|        1     |       2     | 0.60657680E-02 | 0.38660035E+02 |  131.874
 BASOPT|        1     |       3     | 0.63083226E-02 | 0.28012354E+02 |  120.125
 BASOPT|        2     |       1     | 0.27554779E-02 | 0.17331657E+03 |   84.896
 BASOPT|        2     |       2     | 0.43435231E-02 | 0.15068845E+03 |   60.592
 BASOPT|        2     |       3     | 0.43662256E-02 | 0.15118129E+02 |   56.531
 BASOPT|        3     |       1     | 0.38368810E-02 | 0.40476207E+02 |  222.939
 BASOPT|        3     |       2     | 0.63023436E-02 | 0.37511690E+02 |  149.173
 BASOPT|        3     |       3     | 0.65794458E-02 | 0.27537743E+02 |  137.934
 BASOPT| -----------------------------------------------------------------------
 BASOPT| Total residuum value: -.12427854E+04

 BASOPT| Information at iteration number:    4100
 BASOPT| Training set | Combination | Rho difference | Condition num. | Time
 BASOPT| -----------------------------------------------------------------------
 BASOPT|        1     |       1     | 0.35087444E-02 | 0.55221222E+02 |  203.491
 BASOPT|        1     |       2     | 0.60426882E-02 | 0.38675258E+02 |  135.169
 BASOPT|        1     |       3     | 0.62849487E-02 | 0.28079819E+02 |  123.122
 BASOPT|        2     |       1     | 0.27549750E-02 | 0.17310576E+03 |   87.019
 BASOPT|        2     |       2     | 0.43506166E-02 | 0.15056396E+03 |   62.107
 BASOPT|        2     |       3     | 0.43749135E-02 | 0.15126263E+02 |   57.943
 BASOPT|        3     |       1     | 0.38318511E-02 | 0.40624284E+02 |  228.508
 BASOPT|        3     |       2     | 0.62973301E-02 | 0.37420722E+02 |  152.899
 BASOPT|        3     |       3     | 0.65750194E-02 | 0.27524027E+02 |  141.382
 BASOPT| -----------------------------------------------------------------------
 BASOPT| Total residuum value: -.12427865E+04

 BASOPT| Information at iteration number:    4200
 BASOPT| Training set | Combination | Rho difference | Condition num. | Time
 BASOPT| -----------------------------------------------------------------------
 BASOPT|        1     |       1     | 0.35070659E-02 | 0.55191514E+02 |  208.453
 BASOPT|        1     |       2     | 0.60214203E-02 | 0.38684566E+02 |  138.464
 BASOPT|        1     |       3     | 0.62626891E-02 | 0.28125360E+02 |  126.119
 BASOPT|        2     |       1     | 0.27539891E-02 | 0.17298167E+03 |   89.141
 BASOPT|        2     |       2     | 0.43612215E-02 | 0.15048140E+03 |   63.622
 BASOPT|        2     |       3     | 0.43868346E-02 | 0.15133301E+02 |   59.354
 BASOPT|        3     |       1     | 0.38275628E-02 | 0.40742487E+02 |  234.076
 BASOPT|        3     |       2     | 0.62930159E-02 | 0.37351083E+02 |  156.626
 BASOPT|        3     |       3     | 0.65702676E-02 | 0.27509718E+02 |  144.828
 BASOPT| -----------------------------------------------------------------------
 BASOPT| Total residuum value: -.12427875E+04

 BASOPT| Information at iteration number:    4300
 BASOPT| Training set | Combination | Rho difference | Condition num. | Time
 BASOPT| -----------------------------------------------------------------------
 BASOPT|        1     |       1     | 0.35026640E-02 | 0.55335591E+02 |  213.413
 BASOPT|        1     |       2     | 0.60009149E-02 | 0.38741517E+02 |  141.758
 BASOPT|        1     |       3     | 0.62411351E-02 | 0.28220377E+02 |  129.115
 BASOPT|        2     |       1     | 0.27442065E-02 | 0.17291755E+03 |   91.262
 BASOPT|        2     |       2     | 0.43653330E-02 | 0.15047715E+03 |   65.136
 BASOPT|        2     |       3     | 0.43923132E-02 | 0.15151682E+02 |   60.768
 BASOPT|        3     |       1     | 0.38156492E-02 | 0.41081734E+02 |  239.644
 BASOPT|        3     |       2     | 0.62902409E-02 | 0.37262750E+02 |  160.352
 BASOPT|        3     |       3     | 0.65683017E-02 | 0.27495009E+02 |  148.275
 BASOPT| -----------------------------------------------------------------------
 BASOPT| Total residuum value: -.12427894E+04

 BASOPT| Information at iteration number:    4400
 BASOPT| Training set | Combination | Rho difference | Condition num. | Time
 BASOPT| -----------------------------------------------------------------------
 BASOPT|        1     |       1     | 0.35127140E-02 | 0.55552581E+02 |  218.373
 BASOPT|        1     |       2     | 0.60248394E-02 | 0.38959706E+02 |  145.052
 BASOPT|        1     |       3     | 0.62673397E-02 | 0.28378895E+02 |  132.112
 BASOPT|        2     |       1     | 0.27297082E-02 | 0.17315283E+03 |   93.385
 BASOPT|        2     |       2     | 0.43341845E-02 | 0.15070064E+03 |   66.649
 BASOPT|        2     |       3     | 0.43611377E-02 | 0.15168445E+02 |   62.181
 BASOPT|        3     |       1     | 0.38060083E-02 | 0.41710742E+02 |  245.214
 BASOPT|        3     |       2     | 0.62860153E-02 | 0.37160224E+02 |  164.079
 BASOPT|        3     |       3     | 0.65688087E-02 | 0.27439237E+02 |  151.722
 BASOPT| -----------------------------------------------------------------------
 BASOPT| Total residuum value: -.12427907E+04

 BASOPT| Information at iteration number:    4500
 BASOPT| Training set | Combination | Rho difference | Condition num. | Time
 BASOPT| -----------------------------------------------------------------------
 BASOPT|        1     |       1     | 0.35145217E-02 | 0.55744633E+02 |  223.336
 BASOPT|        1     |       2     | 0.60214892E-02 | 0.39111110E+02 |  148.346
 BASOPT|        1     |       3     | 0.62651530E-02 | 0.28516120E+02 |  135.108
 BASOPT|        2     |       1     | 0.27212041E-02 | 0.17312212E+03 |   95.506
 BASOPT|        2     |       2     | 0.43206032E-02 | 0.15067329E+03 |   68.162
 BASOPT|        2     |       3     | 0.43483730E-02 | 0.15177774E+02 |   63.594
 BASOPT|        3     |       1     | 0.37936016E-02 | 0.42118541E+02 |  250.783
 BASOPT|        3     |       2     | 0.62825605E-02 | 0.37029927E+02 |  167.806
 BASOPT|        3     |       3     | 0.65680733E-02 | 0.27390931E+02 |  155.170
 BASOPT| -----------------------------------------------------------------------
 BASOPT| Total residuum value: -.12427922E+04

 BASOPT| Information at iteration number:    4600
 BASOPT| Training set | Combination | Rho difference | Condition num. | Time
 BASOPT| -----------------------------------------------------------------------
 BASOPT|        1     |       1     | 0.34971394E-02 | 0.55866069E+02 |  228.298
 BASOPT|        1     |       2     | 0.59914251E-02 | 0.39006999E+02 |  151.641
 BASOPT|        1     |       3     | 0.62328968E-02 | 0.28503680E+02 |  138.105
 BASOPT|        2     |       1     | 0.27211417E-02 | 0.17290712E+03 |   97.628
 BASOPT|        2     |       2     | 0.43338785E-02 | 0.15044156E+03 |   69.675
 BASOPT|        2     |       3     | 0.43632995E-02 | 0.15185553E+02 |   65.006
 BASOPT|        3     |       1     | 0.37832749E-02 | 0.42296866E+02 |  256.350
 BASOPT|        3     |       2     | 0.62822167E-02 | 0.36903803E+02 |  171.535
 BASOPT|        3     |       3     | 0.65671176E-02 | 0.27370802E+02 |  158.617
 BASOPT| -----------------------------------------------------------------------
 BASOPT| Total residuum value: -.12427935E+04

 BASOPT| Information at iteration number:    4700
 BASOPT| Training set | Combination | Rho difference | Condition num. | Time
 BASOPT| -----------------------------------------------------------------------
 BASOPT|        1     |       1     | 0.34765342E-02 | 0.56239652E+02 |  233.256
 BASOPT|        1     |       2     | 0.59764976E-02 | 0.39011254E+02 |  154.935
 BASOPT|        1     |       3     | 0.62167536E-02 | 0.28628749E+02 |  141.101
 BASOPT|        2     |       1     | 0.27074720E-02 | 0.17257252E+03 |   99.750
 BASOPT|        2     |       2     | 0.43273020E-02 | 0.15014476E+03 |   71.187
 BASOPT|        2     |       3     | 0.43586117E-02 | 0.15194158E+02 |   66.418
 BASOPT|        3     |       1     | 0.37628364E-02 | 0.42494661E+02 |  261.917
 BASOPT|        3     |       2     | 0.62755561E-02 | 0.36740460E+02 |  175.269
 BASOPT|        3     |       3     | 0.65587657E-02 | 0.27347855E+02 |  162.064
 BASOPT| -----------------------------------------------------------------------
 BASOPT| Total residuum value: -.12427957E+04

 BASOPT| Information at iteration number:    4800
 BASOPT| Training set | Combination | Rho difference | Condition num. | Time
 BASOPT| -----------------------------------------------------------------------
 BASOPT|        1     |       1     | 0.34494290E-02 | 0.56775707E+02 |  238.214
 BASOPT|        1     |       2     | 0.59297816E-02 | 0.38934466E+02 |  158.230
 BASOPT|        1     |       3     | 0.61673571E-02 | 0.28699474E+02 |  144.097
 BASOPT|        2     |       1     | 0.27045862E-02 | 0.17219814E+03 |  101.871
 BASOPT|        2     |       2     | 0.43559336E-02 | 0.14971180E+03 |   72.699
 BASOPT|        2     |       3     | 0.43888561E-02 | 0.15208082E+02 |   67.830
 BASOPT|        3     |       1     | 0.37440569E-02 | 0.42436950E+02 |  267.486
 BASOPT|        3     |       2     | 0.62646430E-02 | 0.36524101E+02 |  179.008
 BASOPT|        3     |       3     | 0.65456236E-02 | 0.27315436E+02 |  165.510
 BASOPT| -----------------------------------------------------------------------
 BASOPT| Total residuum value: -.12427980E+04

 BASOPT| Information at iteration number:    4900
 BASOPT| Training set | Combination | Rho difference | Condition num. | Time
 BASOPT| -----------------------------------------------------------------------
 BASOPT|        1     |       1     | 0.34384697E-02 | 0.57095652E+02 |  243.170
 BASOPT|        1     |       2     | 0.59160268E-02 | 0.38967632E+02 |  161.524
 BASOPT|        1     |       3     | 0.61536945E-02 | 0.28793583E+02 |  147.094
 BASOPT|        2     |       1     | 0.26974782E-02 | 0.17203367E+03 |  103.993
 BASOPT|        2     |       2     | 0.43625889E-02 | 0.14953161E+03 |   74.211
 BASOPT|        2     |       3     | 0.43961682E-02 | 0.15215669E+02 |   69.242
 BASOPT|        3     |       1     | 0.37340624E-02 | 0.42318934E+02 |  273.054
 BASOPT|        3     |       2     | 0.62612464E-02 | 0.36450825E+02 |  182.741
 BASOPT|        3     |       3     | 0.65417806E-02 | 0.27318189E+02 |  168.957
 BASOPT| -----------------------------------------------------------------------
 BASOPT| Total residuum value: -.12427994E+04

 BASOPT| Information at iteration number:    5000
 BASOPT| Training set | Combination | Rho difference | Condition num. | Time
 BASOPT| -----------------------------------------------------------------------
 BASOPT|        1     |       1     | 0.34255700E-02 | 0.57270115E+02 |  248.126
 BASOPT|        1     |       2     | 0.59212353E-02 | 0.39093319E+02 |  164.819
 BASOPT|        1     |       3     | 0.61614927E-02 | 0.28980676E+02 |  150.090
 BASOPT|        2     |       1     | 0.26867590E-02 | 0.17183775E+03 |  106.114
 BASOPT|        2     |       2     | 0.43528441E-02 | 0.14930720E+03 |   75.723
 BASOPT|        2     |       3     | 0.43860561E-02 | 0.15227020E+02 |   70.654
 BASOPT|        3     |       1     | 0.37190723E-02 | 0.42259808E+02 |  278.621
 BASOPT|        3     |       2     | 0.62499582E-02 | 0.36345909E+02 |  186.478
 BASOPT|        3     |       3     | 0.65301443E-02 | 0.27315948E+02 |  172.404
 BASOPT| -----------------------------------------------------------------------
 BASOPT| Total residuum value: -.12428014E+04

 BASOPT| Information at iteration number:    5100
 BASOPT| Training set | Combination | Rho difference | Condition num. | Time
 BASOPT| -----------------------------------------------------------------------
 BASOPT|        1     |       1     | 0.34105525E-02 | 0.57431285E+02 |  253.077
 BASOPT|        1     |       2     | 0.59237868E-02 | 0.39295800E+02 |  168.114
 BASOPT|        1     |       3     | 0.61675412E-02 | 0.29207475E+02 |  153.086
 BASOPT|        2     |       1     | 0.26753793E-02 | 0.17175543E+03 |  108.235
 BASOPT|        2     |       2     | 0.43422846E-02 | 0.14914089E+03 |   77.236
 BASOPT|        2     |       3     | 0.43745296E-02 | 0.15240767E+02 |   72.065
 BASOPT|        3     |       1     | 0.37003648E-02 | 0.42481390E+02 |  284.190
 BASOPT|        3     |       2     | 0.62376137E-02 | 0.36268355E+02 |  190.213
 BASOPT|        3     |       3     | 0.65180779E-02 | 0.27328207E+02 |  175.850
 BASOPT| -----------------------------------------------------------------------
 BASOPT| Total residuum value: -.12428031E+04

 BASOPT| Information at iteration number:    5200
 BASOPT| Training set | Combination | Rho difference | Condition num. | Time
 BASOPT| -----------------------------------------------------------------------
 BASOPT|        1     |       1     | 0.33786978E-02 | 0.57473353E+02 |  258.030
 BASOPT|        1     |       2     | 0.59002105E-02 | 0.39133573E+02 |  171.408
 BASOPT|        1     |       3     | 0.61428968E-02 | 0.29183700E+02 |  156.083
 BASOPT|        2     |       1     | 0.26727036E-02 | 0.17151127E+03 |  110.356
 BASOPT|        2     |       2     | 0.43677289E-02 | 0.14876276E+03 |   78.748
 BASOPT|        2     |       3     | 0.44006783E-02 | 0.15255452E+02 |   73.477
 BASOPT|        3     |       1     | 0.36844461E-02 | 0.42666287E+02 |  289.759
 BASOPT|        3     |       2     | 0.62231138E-02 | 0.36171767E+02 |  193.947
 BASOPT|        3     |       3     | 0.65019325E-02 | 0.27356792E+02 |  179.298
 BASOPT| -----------------------------------------------------------------------
 BASOPT| Total residuum value: -.12428050E+04

 BASOPT| Information at iteration number:    5300
 BASOPT| Training set | Combination | Rho difference | Condition num. | Time
 BASOPT| -----------------------------------------------------------------------
 BASOPT|        1     |       1     | 0.33453813E-02 | 0.57429527E+02 |  262.986
 BASOPT|        1     |       2     | 0.58663903E-02 | 0.38955271E+02 |  174.702
 BASOPT|        1     |       3     | 0.61070055E-02 | 0.29127309E+02 |  159.080
 BASOPT|        2     |       1     | 0.26754121E-02 | 0.17135729E+03 |  112.477
 BASOPT|        2     |       2     | 0.43963324E-02 | 0.14844940E+03 |   80.261
 BASOPT|        2     |       3     | 0.44297430E-02 | 0.15268851E+02 |   74.890
 BASOPT|        3     |       1     | 0.36696397E-02 | 0.42988241E+02 |  295.328
 BASOPT|        3     |       2     | 0.62140098E-02 | 0.36065518E+02 |  197.684
 BASOPT|        3     |       3     | 0.64897185E-02 | 0.27361688E+02 |  182.745
 BASOPT| -----------------------------------------------------------------------
 BASOPT| Total residuum value: -.12428066E+04

 BASOPT| Information at iteration number:    5400
 BASOPT| Training set | Combination | Rho difference | Condition num. | Time
 BASOPT| -----------------------------------------------------------------------
 BASOPT|        1     |       1     | 0.33130908E-02 | 0.57260623E+02 |  267.941
 BASOPT|        1     |       2     | 0.58594380E-02 | 0.38728432E+02 |  177.996
 BASOPT|        1     |       3     | 0.60981319E-02 | 0.29027864E+02 |  162.076
 BASOPT|        2     |       1     | 0.26732127E-02 | 0.17118496E+03 |  114.597
 BASOPT|        2     |       2     | 0.43957311E-02 | 0.14813582E+03 |   81.774
 BASOPT|        2     |       3     | 0.44280826E-02 | 0.15280846E+02 |   76.301
 BASOPT|        3     |       1     | 0.36559355E-02 | 0.43394555E+02 |  300.897
 BASOPT|        3     |       2     | 0.62201603E-02 | 0.35950206E+02 |  201.420
 BASOPT|        3     |       3     | 0.64947603E-02 | 0.27364376E+02 |  186.191
 BASOPT| -----------------------------------------------------------------------
 BASOPT| Total residuum value: -.12428086E+04

 BASOPT| Information at iteration number:    5500
 BASOPT| Training set | Combination | Rho difference | Condition num. | Time
 BASOPT| -----------------------------------------------------------------------
 BASOPT|        1     |       1     | 0.32917907E-02 | 0.56782288E+02 |  272.895
 BASOPT|        1     |       2     | 0.59098783E-02 | 0.38752323E+02 |  181.291
 BASOPT|        1     |       3     | 0.61508962E-02 | 0.29179879E+02 |  165.075
 BASOPT|        2     |       1     | 0.26595097E-02 | 0.17085500E+03 |  116.719
 BASOPT|        2     |       2     | 0.43584321E-02 | 0.14772698E+03 |   83.287
 BASOPT|        2     |       3     | 0.43861654E-02 | 0.15298447E+02 |   77.713
 BASOPT|        3     |       1     | 0.36370815E-02 | 0.43867621E+02 |  306.466
 BASOPT|        3     |       2     | 0.62018058E-02 | 0.35767651E+02 |  205.157
 BASOPT|        3     |       3     | 0.64774104E-02 | 0.27357883E+02 |  189.637
 BASOPT| -----------------------------------------------------------------------
 BASOPT| Total residuum value: -.12428103E+04

 BASOPT| Information at iteration number:    5600
 BASOPT| Training set | Combination | Rho difference | Condition num. | Time
 BASOPT| -----------------------------------------------------------------------
 BASOPT|        1     |       1     | 0.32904171E-02 | 0.56571211E+02 |  277.848
 BASOPT|        1     |       2     | 0.59693626E-02 | 0.38881183E+02 |  184.585
 BASOPT|        1     |       3     | 0.62146694E-02 | 0.29325817E+02 |  168.072
 BASOPT|        2     |       1     | 0.26472051E-02 | 0.17078146E+03 |  118.840
 BASOPT|        2     |       2     | 0.43164984E-02 | 0.14761599E+03 |   84.799
 BASOPT|        2     |       3     | 0.43405591E-02 | 0.15306086E+02 |   79.125
 BASOPT|        3     |       1     | 0.36266559E-02 | 0.44205927E+02 |  312.033
 BASOPT|        3     |       2     | 0.61919641E-02 | 0.35697185E+02 |  208.892
 BASOPT|        3     |       3     | 0.64704112E-02 | 0.27352247E+02 |  193.083
 BASOPT| -----------------------------------------------------------------------
 BASOPT| Total residuum value: -.12428116E+04

 BASOPT| Information at iteration number:    5700
 BASOPT| Training set | Combination | Rho difference | Condition num. | Time
 BASOPT| -----------------------------------------------------------------------
 BASOPT|        1     |       1     | 0.32731775E-02 | 0.56236566E+02 |  282.803
 BASOPT|        1     |       2     | 0.59788588E-02 | 0.38910182E+02 |  187.880
 BASOPT|        1     |       3     | 0.62256082E-02 | 0.29364295E+02 |  171.070
 BASOPT|        2     |       1     | 0.26480605E-02 | 0.17069242E+03 |  120.961
 BASOPT|        2     |       2     | 0.42927262E-02 | 0.14757636E+03 |   86.311
 BASOPT|        2     |       3     | 0.43165287E-02 | 0.15300179E+02 |   80.537
 BASOPT|        3     |       1     | 0.36156934E-02 | 0.44358777E+02 |  317.601
 BASOPT|        3     |       2     | 0.62014824E-02 | 0.35683416E+02 |  212.628
 BASOPT|        3     |       3     | 0.64816678E-02 | 0.27348161E+02 |  196.528
 BASOPT| -----------------------------------------------------------------------
 BASOPT| Total residuum value: -.12428127E+04

 BASOPT| Information at iteration number:    5800
 BASOPT| Training set | Combination | Rho difference | Condition num. | Time
 BASOPT| -----------------------------------------------------------------------
 BASOPT|        1     |       1     | 0.32473389E-02 | 0.56119711E+02 |  287.758
 BASOPT|        1     |       2     | 0.59832938E-02 | 0.38936949E+02 |  191.176
 BASOPT|        1     |       3     | 0.62315986E-02 | 0.29434265E+02 |  174.067
 BASOPT|        2     |       1     | 0.26432274E-02 | 0.17062316E+03 |  123.082
 BASOPT|        2     |       2     | 0.42794674E-02 | 0.14749428E+03 |   87.823
 BASOPT|        2     |       3     | 0.43029230E-02 | 0.15305293E+02 |   81.949
 BASOPT|        3     |       1     | 0.35999995E-02 | 0.44525686E+02 |  323.169
 BASOPT|        3     |       2     | 0.62048823E-02 | 0.35672369E+02 |  216.368
 BASOPT|        3     |       3     | 0.64852830E-02 | 0.27372534E+02 |  199.974
 BASOPT| -----------------------------------------------------------------------
 BASOPT| Total residuum value: -.12428143E+04

 BASOPT| Information at iteration number:    5900
 BASOPT| Training set | Combination | Rho difference | Condition num. | Time
 BASOPT| -----------------------------------------------------------------------
 BASOPT|        1     |       1     | 0.32290113E-02 | 0.55990481E+02 |  292.714
 BASOPT|        1     |       2     | 0.59787972E-02 | 0.38902206E+02 |  194.470
 BASOPT|        1     |       3     | 0.62280644E-02 | 0.29461787E+02 |  177.064
 BASOPT|        2     |       1     | 0.26425464E-02 | 0.17048343E+03 |  125.204
 BASOPT|        2     |       2     | 0.42793645E-02 | 0.14734403E+03 |   89.337
 BASOPT|        2     |       3     | 0.43032017E-02 | 0.15310169E+02 |   83.361
 BASOPT|        3     |       1     | 0.35901682E-02 | 0.44622923E+02 |  328.738
 BASOPT|        3     |       2     | 0.62049849E-02 | 0.35621061E+02 |  220.114
 BASOPT|        3     |       3     | 0.64846340E-02 | 0.27380743E+02 |  203.420
 BASOPT| -----------------------------------------------------------------------
 BASOPT| Total residuum value: -.12428150E+04

 BASOPT| Information at iteration number:    6000
 BASOPT| Training set | Combination | Rho difference | Condition num. | Time
 BASOPT| -----------------------------------------------------------------------
 BASOPT|        1     |       1     | 0.32032577E-02 | 0.55812605E+02 |  297.671
 BASOPT|        1     |       2     | 0.59415333E-02 | 0.38683590E+02 |  197.766
 BASOPT|        1     |       3     | 0.61877209E-02 | 0.29330163E+02 |  180.061
 BASOPT|        2     |       1     | 0.26512659E-02 | 0.17031257E+03 |  127.326
 BASOPT|        2     |       2     | 0.43011419E-02 | 0.14714896E+03 |   90.849
 BASOPT|        2     |       3     | 0.43265699E-02 | 0.15307453E+02 |   84.773
 BASOPT|        3     |       1     | 0.35849115E-02 | 0.44657658E+02 |  334.306
 BASOPT|        3     |       2     | 0.62140625E-02 | 0.35572132E+02 |  223.849
 BASOPT|        3     |       3     | 0.64914116E-02 | 0.27378300E+02 |  206.865
 BASOPT| -----------------------------------------------------------------------
 BASOPT| Total residuum value: -.12428157E+04

 BASOPT| Information at iteration number:    6100
 BASOPT| Training set | Combination | Rho difference | Condition num. | Time
 BASOPT| -----------------------------------------------------------------------
 BASOPT|        1     |       1     | 0.31869247E-02 | 0.55563503E+02 |  302.626
 BASOPT|        1     |       2     | 0.59389692E-02 | 0.38664884E+02 |  201.063
 BASOPT|        1     |       3     | 0.61852275E-02 | 0.29366811E+02 |  183.058
 BASOPT|        2     |       1     | 0.26487066E-02 | 0.17016156E+03 |  129.449
 BASOPT|        2     |       2     | 0.42923320E-02 | 0.14701849E+03 |   92.363
 BASOPT|        2     |       3     | 0.43180267E-02 | 0.15308513E+02 |   86.184
 BASOPT|        3     |       1     | 0.35756797E-02 | 0.44599704E+02 |  339.875
 BASOPT|        3     |       2     | 0.62200685E-02 | 0.35501619E+02 |  227.584
 BASOPT|        3     |       3     | 0.64972719E-02 | 0.27365415E+02 |  210.311
 BASOPT| -----------------------------------------------------------------------
 BASOPT| Total residuum value: -.12428163E+04

 BASOPT| Information at iteration number:    6200
 BASOPT| Training set | Combination | Rho difference | Condition num. | Time
 BASOPT| -----------------------------------------------------------------------
 BASOPT|        1     |       1     | 0.31860987E-02 | 0.55311995E+02 |  307.581
 BASOPT|        1     |       2     | 0.59600181E-02 | 0.38809492E+02 |  204.359
 BASOPT|        1     |       3     | 0.62076896E-02 | 0.29514744E+02 |  186.055
 BASOPT|        2     |       1     | 0.26409150E-02 | 0.17018530E+03 |  131.572
 BASOPT|        2     |       2     | 0.42723527E-02 | 0.14704002E+03 |   93.875
 BASOPT|        2     |       3     | 0.42979012E-02 | 0.15309825E+02 |   87.597
 BASOPT|        3     |       1     | 0.35713575E-02 | 0.44757841E+02 |  345.444
 BASOPT|        3     |       2     | 0.62222079E-02 | 0.35479904E+02 |  231.317
 BASOPT|        3     |       3     | 0.65013380E-02 | 0.27361822E+02 |  213.757
 BASOPT| -----------------------------------------------------------------------
 BASOPT| Total residuum value: -.12428167E+04

 BASOPT| Information at iteration number:    6300
 BASOPT| Training set | Combination | Rho difference | Condition num. | Time
 BASOPT| -----------------------------------------------------------------------
 BASOPT|        1     |       1     | 0.31812268E-02 | 0.55127954E+02 |  312.538
 BASOPT|        1     |       2     | 0.59607045E-02 | 0.38978838E+02 |  207.653
 BASOPT|        1     |       3     | 0.62094956E-02 | 0.29675013E+02 |  189.052
 BASOPT|        2     |       1     | 0.26336142E-02 | 0.17013895E+03 |  133.694
 BASOPT|        2     |       2     | 0.42615537E-02 | 0.14698265E+03 |   95.388
 BASOPT|        2     |       3     | 0.42867257E-02 | 0.15308967E+02 |   89.009
 BASOPT|        3     |       1     | 0.35623745E-02 | 0.44695401E+02 |  351.012
 BASOPT|        3     |       2     | 0.62145167E-02 | 0.35450759E+02 |  235.050
 BASOPT|        3     |       3     | 0.64942221E-02 | 0.27357290E+02 |  217.204
 BASOPT| -----------------------------------------------------------------------
 BASOPT| Total residuum value: -.12428178E+04

 BASOPT| Information at iteration number:    6400
 BASOPT| Training set | Combination | Rho difference | Condition num. | Time
 BASOPT| -----------------------------------------------------------------------
 BASOPT|        1     |       1     | 0.31739927E-02 | 0.54964475E+02 |  317.495
 BASOPT|        1     |       2     | 0.59473659E-02 | 0.38980028E+02 |  210.949
 BASOPT|        1     |       3     | 0.61950731E-02 | 0.29677861E+02 |  192.050
 BASOPT|        2     |       1     | 0.26364983E-02 | 0.17027151E+03 |  135.816
 BASOPT|        2     |       2     | 0.42705648E-02 | 0.14699640E+03 |   96.902
 BASOPT|        2     |       3     | 0.42958513E-02 | 0.15307139E+02 |   90.421
 BASOPT|        3     |       1     | 0.35606944E-02 | 0.44883494E+02 |  356.578
 BASOPT|        3     |       2     | 0.62116222E-02 | 0.35447886E+02 |  238.783
 BASOPT|        3     |       3     | 0.64906038E-02 | 0.27348102E+02 |  220.650
 BASOPT| -----------------------------------------------------------------------
 BASOPT| Total residuum value: -.12428185E+04

 BASOPT| Information at iteration number:    6500
 BASOPT| Training set | Combination | Rho difference | Condition num. | Time
 BASOPT| -----------------------------------------------------------------------
 BASOPT|        1     |       1     | 0.31727221E-02 | 0.54880520E+02 |  322.454
 BASOPT|        1     |       2     | 0.59405891E-02 | 0.39033274E+02 |  214.245
 BASOPT|        1     |       3     | 0.61887602E-02 | 0.29729999E+02 |  195.048
 BASOPT|        2     |       1     | 0.26333992E-02 | 0.17029840E+03 |  137.939
 BASOPT|        2     |       2     | 0.42699757E-02 | 0.14695148E+03 |   98.414
 BASOPT|        2     |       3     | 0.42957795E-02 | 0.15304123E+02 |   91.833
 BASOPT|        3     |       1     | 0.35556066E-02 | 0.45087682E+02 |  362.146
 BASOPT|        3     |       2     | 0.62091403E-02 | 0.35433819E+02 |  242.519
 BASOPT|        3     |       3     | 0.64886340E-02 | 0.27345415E+02 |  224.097
 BASOPT| -----------------------------------------------------------------------
 BASOPT| Total residuum value: -.12428190E+04

 BASOPT| Information at iteration number:    6600
 BASOPT| Training set | Combination | Rho difference | Condition num. | Time
 BASOPT| -----------------------------------------------------------------------
 BASOPT|        1     |       1     | 0.31612831E-02 | 0.54660184E+02 |  327.414
 BASOPT|        1     |       2     | 0.59294115E-02 | 0.39003944E+02 |  217.539
 BASOPT|        1     |       3     | 0.61769987E-02 | 0.29738409E+02 |  198.046
 BASOPT|        2     |       1     | 0.26347853E-02 | 0.17022455E+03 |  140.062
 BASOPT|        2     |       2     | 0.42770331E-02 | 0.14679069E+03 |   99.928
 BASOPT|        2     |       3     | 0.43032590E-02 | 0.15302425E+02 |   93.245
 BASOPT|        3     |       1     | 0.35504932E-02 | 0.45092929E+02 |  367.715
 BASOPT|        3     |       2     | 0.62036247E-02 | 0.35375283E+02 |  246.253
 BASOPT|        3     |       3     | 0.64821867E-02 | 0.27334304E+02 |  227.547
 BASOPT| -----------------------------------------------------------------------
 BASOPT| Total residuum value: -.12428197E+04

 BASOPT| Information at iteration number:    6700
 BASOPT| Training set | Combination | Rho difference | Condition num. | Time
 BASOPT| -----------------------------------------------------------------------
[...]
 BASOPT|        1     |       2     | 0.57912044E-02 | 0.36683111E+02 | 1640.701
 BASOPT|        1     |       3     | 0.60398862E-02 | 0.28735518E+02 | 1481.777
 BASOPT|        2     |       1     | 0.24802826E-02 | 0.17110262E+03 | 1055.176
 BASOPT|        2     |       2     | 0.42774495E-02 | 0.13838368E+03 |  742.577
 BASOPT|        2     |       3     | 0.43057420E-02 | 0.14910777E+02 |  696.722
 BASOPT|        3     |       1     | 0.30625345E-02 | 0.83267032E+02 | 2755.342
 BASOPT|        3     |       2     | 0.60944403E-02 | 0.32884926E+02 | 1851.566
 BASOPT|        3     |       3     | 0.63742257E-02 | 0.27801282E+02 | 1700.990
 BASOPT| -----------------------------------------------------------------------
 BASOPT| Total residuum value: -.12428600E+04

 BASOPT| Information at iteration number:   49600
 BASOPT| Training set | Combination | Rho difference | Condition num. | Time
 BASOPT| -----------------------------------------------------------------------
 BASOPT|        1     |       1     | 0.25662233E-02 | 0.58378418E+02 | 2458.362
 BASOPT|        1     |       2     | 0.57914186E-02 | 0.36682204E+02 | 1644.016
 BASOPT|        1     |       3     | 0.60400885E-02 | 0.28734021E+02 | 1484.757
 BASOPT|        2     |       1     | 0.24802208E-02 | 0.17110243E+03 | 1057.310
 BASOPT|        2     |       2     | 0.42774505E-02 | 0.13838372E+03 |  744.074
 BASOPT|        2     |       3     | 0.43057185E-02 | 0.14910895E+02 |  698.133
 BASOPT|        3     |       1     | 0.30625077E-02 | 0.83255357E+02 | 2760.932
 BASOPT|        3     |       2     | 0.60945353E-02 | 0.32881890E+02 | 1855.307
 BASOPT|        3     |       3     | 0.63743155E-02 | 0.27800905E+02 | 1704.442
 BASOPT| -----------------------------------------------------------------------
 BASOPT| Total residuum value: -.12428600E+04

 BASOPT| Information at iteration number:   49700
 BASOPT| Training set | Combination | Rho difference | Condition num. | Time
 BASOPT| -----------------------------------------------------------------------
 BASOPT|        1     |       1     | 0.25661884E-02 | 0.58374752E+02 | 2463.348
 BASOPT|        1     |       2     | 0.57917541E-02 | 0.36681711E+02 | 1647.330
 BASOPT|        1     |       3     | 0.60404326E-02 | 0.28732542E+02 | 1487.736
 BASOPT|        2     |       1     | 0.24803406E-02 | 0.17110048E+03 | 1059.444
 BASOPT|        2     |       2     | 0.42770509E-02 | 0.13837719E+03 |  745.571
 BASOPT|        2     |       3     | 0.43053083E-02 | 0.14910073E+02 |  699.544
 BASOPT|        3     |       1     | 0.30625588E-02 | 0.83244835E+02 | 2766.522
 BASOPT|        3     |       2     | 0.60945583E-02 | 0.32880507E+02 | 1859.047
 BASOPT|        3     |       3     | 0.63743648E-02 | 0.27801100E+02 | 1707.895
 BASOPT| -----------------------------------------------------------------------
 BASOPT| Total residuum value: -.12428600E+04

 BASOPT| Information at iteration number:   49800
 BASOPT| Training set | Combination | Rho difference | Condition num. | Time
 BASOPT| -----------------------------------------------------------------------
 BASOPT|        1     |       1     | 0.25662531E-02 | 0.58388340E+02 | 2468.333
 BASOPT|        1     |       2     | 0.57905288E-02 | 0.36683815E+02 | 1650.645
 BASOPT|        1     |       3     | 0.60391509E-02 | 0.28733297E+02 | 1490.715
 BASOPT|        2     |       1     | 0.24802377E-02 | 0.17108808E+03 | 1061.579
 BASOPT|        2     |       2     | 0.42778210E-02 | 0.13836762E+03 |  747.068
 BASOPT|        2     |       3     | 0.43061694E-02 | 0.14908845E+02 |  700.955
 BASOPT|        3     |       1     | 0.30625598E-02 | 0.83257615E+02 | 2772.112
 BASOPT|        3     |       2     | 0.60946476E-02 | 0.32883690E+02 | 1862.789
 BASOPT|        3     |       3     | 0.63744416E-02 | 0.27803923E+02 | 1711.347
 BASOPT| -----------------------------------------------------------------------
 BASOPT| Total residuum value: -.12428600E+04

 BASOPT| Information at iteration number:   49900
 BASOPT| Training set | Combination | Rho difference | Condition num. | Time
 BASOPT| -----------------------------------------------------------------------
 BASOPT|        1     |       1     | 0.25661244E-02 | 0.58396171E+02 | 2473.317
 BASOPT|        1     |       2     | 0.57911666E-02 | 0.36685282E+02 | 1653.958
 BASOPT|        1     |       3     | 0.60398085E-02 | 0.28733483E+02 | 1493.694
 BASOPT|        2     |       1     | 0.24803283E-02 | 0.17107511E+03 | 1063.713
 BASOPT|        2     |       2     | 0.42777166E-02 | 0.13835263E+03 |  748.565
 BASOPT|        2     |       3     | 0.43060025E-02 | 0.14907292E+02 |  702.366
 BASOPT|        3     |       1     | 0.30625544E-02 | 0.83250459E+02 | 2777.700
 BASOPT|        3     |       2     | 0.60946002E-02 | 0.32881897E+02 | 1866.530
 BASOPT|        3     |       3     | 0.63743486E-02 | 0.27806000E+02 | 1714.799
 BASOPT| -----------------------------------------------------------------------
 BASOPT| Total residuum value: -.12428600E+04

 BASOPT| Information at iteration number:   50000
 BASOPT| Training set | Combination | Rho difference | Condition num. | Time
 BASOPT| -----------------------------------------------------------------------
 BASOPT|        1     |       1     | 0.25660200E-02 | 0.58404485E+02 | 2478.302
 BASOPT|        1     |       2     | 0.57914750E-02 | 0.36687018E+02 | 1657.271
 BASOPT|        1     |       3     | 0.60401388E-02 | 0.28733214E+02 | 1496.673
 BASOPT|        2     |       1     | 0.24803698E-02 | 0.17106609E+03 | 1065.847
 BASOPT|        2     |       2     | 0.42775310E-02 | 0.13834721E+03 |  750.062
 BASOPT|        2     |       3     | 0.43057965E-02 | 0.14906704E+02 |  703.777
 BASOPT|        3     |       1     | 0.30625676E-02 | 0.83259351E+02 | 2783.290
 BASOPT|        3     |       2     | 0.60946510E-02 | 0.32881336E+02 | 1870.271
 BASOPT|        3     |       3     | 0.63744458E-02 | 0.27807000E+02 | 1718.252
 BASOPT| -----------------------------------------------------------------------
 BASOPT| Total residuum value: -.12428600E+04


 -------------------------------------------------------------------------------
 -                                                                             -
 -                                DBCSR STATISTICS                             -
 -                                                                             -
 -------------------------------------------------------------------------------
 COUNTER                                    TOTAL       BLAS       SMM       ACC
 flops    68 x   112 x     6               274176       0.0%    100.0%      0.0%
 flops   112 x    68 x     6               274176       0.0%    100.0%      0.0%
 flops   112 x   112 x     6               451584       0.0%    100.0%      0.0%
 flops    68 x    68 x     6               499392       0.0%    100.0%      0.0%
 flops   112 x   112 x    12              1806336       0.0%    100.0%      0.0%
 flops   116 x   112 x    12              1870848       0.0%    100.0%      0.0%
 flops   112 x   116 x    12              1870848       0.0%    100.0%      0.0%
 flops   116 x   116 x    12              5812992       0.0%    100.0%      0.0%
 flops inhomo. stacks                           0       0.0%      0.0%      0.0%
 flops total                        12.860352E+06       0.0%    100.0%      0.0%
 flops max/rank                    935.808000E+03       0.0%    100.0%      0.0%
 matmuls inhomo. stacks                         0       0.0%      0.0%      0.0%
 matmuls total                                 54       0.0%    100.0%      0.0%
 number of processed stacks                    48       0.0%    100.0%      0.0%
 average stack size                                     0.0       1.1       0.0
 marketing flops                    19.254528E+06
 -------------------------------------------------------------------------------
 # multiplications                              1
 max memory usage/rank             420.446208E+06
 # max total images/rank                        1
 # max 3D layers                                1
 # MPI messages exchanged                      72
 MPI messages size (bytes):
  total size                       467.712000E+03
  min size                           0.000000E+00
  max size                          21.888000E+03
  average size                       6.496000E+03
 MPI breakdown and total messages size (bytes):
             size <=      128                  36                        0
       128 < size <=     8192                  12                    71424
      8192 < size <=    32768                  24                   396288
     32768 < size <=   131072                   0                        0
    131072 < size <=  4194304                   0                        0
   4194304 < size <= 16777216                   0                        0
  16777216 < size                               0                        0
 -------------------------------------------------------------------------------
 -                                                                             -
 -                      DBCSR MESSAGE PASSING PERFORMANCE                      -
 -                                                                             -
 -------------------------------------------------------------------------------
 ROUTINE             CALLS      AVE VOLUME [Bytes]
 MP_Bcast                9                     12.
 MP_Allreduce           42                     21.
 MP_Alltoall       3000081                  23749.
 MP_ISend                8                   2828.
 MP_IRecv                8                     41.
 -------------------------------------------------------------------------------

 -------------------------------------------------------------------------------
 -                                                                             -
 -                                GRID STATISTICS                              -
 -                                                                             -
 -------------------------------------------------------------------------------
 LP    KERNEL             BACKEND                              COUNT     PERCENT
 2     collocate ortho    REF                                   4848      12.98%
 2     integrate ortho    REF                                   4848      12.98%
 4     collocate ortho    REF                                   3768      10.09%
 4     integrate ortho    REF                                   3768      10.09%
 5     collocate ortho    REF                                   3018       8.08%
 5     integrate ortho    REF                                   3018       8.08%
 3     collocate ortho    REF                                   2166       5.80%
 3     integrate ortho    REF                                   2166       5.80%
 6     collocate ortho    REF                                   1329       3.56%
 6     integrate ortho    REF                                   1329       3.56%
 0     collocate ortho    REF                                   1215       3.25%
 0     integrate ortho    REF                                   1215       3.25%
 1     collocate ortho    REF                                   1014       2.72%
 1     integrate ortho    REF                                   1014       2.72%
 8     collocate ortho    REF                                    666       1.78%
 8     integrate ortho    REF                                    666       1.78%
 7     collocate ortho    REF                                    636       1.70%
 7     integrate ortho    REF                                    636       1.70%
 0     collocate general  REF                                     27       0.07%
 -------------------------------------------------------------------------------

 MEMORY| Estimated peak process memory [MiB]                                 686

 -------------------------------------------------------------------------------
 -                                                                             -
 -                         MESSAGE PASSING PERFORMANCE                         -
 -                                                                             -
 -------------------------------------------------------------------------------

 ROUTINE             CALLS      AVE VOLUME [Bytes]
 MP_Bcast            50036                    411.
 MP_Allreduce       350372                    105.
 MP_Sync             50001
 MP_Alltoall            18               64916608.
 MP_ISendRecv           27                4564608.
 MP_Wait                27
 MP_comm_split           1
 -------------------------------------------------------------------------------


 -------------------------------------------------------------------------------
 -                                                                             -
 -                           R E F E R E N C E S                               -
 -                                                                             -
 -------------------------------------------------------------------------------
 
 CP2K version 9.0 (Development Version), the CP2K developers group (2020).
 CP2K is freely available from https://www.cp2k.org/ .

 Kuehne,Thomas D.; Iannuzzi,Marcella; Del Ben,Mauro;
 Rybkin,Vladimir V.; Seewald,Patrick; Stein,Frederick; Laino,Teodoro;
 Khaliullin,Rustam Z.; Schuett,Ole; Schiffmann,Florian; Golze,Dorothea;
 Wilhelm,Jan; Chulkov,Sergey; Bani-Hashemian,Mohammad Hossein;
 Weber,Valery; Borstnik,Urban; Taillefumier,Mathieu;
 Jakobovits,Alice Shoshana; Lazzaro,Alfio; Pabst,Hans; Mueller,Tiziano;
 Schade,Robert; Guidon,Manuel; Andermatt,Samuel; Holmberg,Nico;
 Schenter,Gregory K.; Hehn,Anna; Bussy,Augustin; Belleflamme,Fabian;
 Tabacchi,Gloria; Gloess,Andreas; Lass,Michael; Bethune,Iain;
 Mundy,Christopher J.; Plessl,Christian; Watkins,Matt;
 VandeVondele,Joost; Krack,Matthias; Hutter,Juerg. 
 The Journal of Chemical Physics, 152 (19), (2020). 
 CP2K: An electronic structure and molecular dynamics software package -
 Quickstep: Efficient and accurate electronic structure calculations.
 https://doi.org/10.1063/5.0007045

 Schuett, Ole; Messmer, Peter; Hutter, Juerg; VandeVondele, Joost. 
 Electronic Structure Calculations on Graphics Processing Units, John
 Wiley & Sons, Ltd, 173-190 (2016). 
 GPU-Accelerated Sparse Matrix-Matrix Multiplication for
 Linear Scaling Density Functional Theory.
 https://doi.org/10.1002/9781118670712.ch8

 Borstnik, U; VandeVondele, J; Weber, V; Hutter, J. 
 PARALLEL COMPUTING, 40 (5-6), 47-58 (2014). 
 Sparse matrix multiplication: The distributed block-compressed sparse
 row library.
 https://doi.org/10.1016/j.parco.2014.03.012

 Hutter, J; Iannuzzi, M; Schiffmann, F; VandeVondele, J. 
 WIREs Comput Mol Sci., 4 (1), 15-25 (2014). 
 CP2K: atomistic simulations of condensed matter systems.
 https://doi.org/10.1002/wcms.1159

 Marek, A; Blum, V; Johanni, R; Havu, V; Lang, B; Auckenthaler, T;
 Heinecke, A; Bungartz, H; Lederer, H. 
 Journal of Physics: Condensed Matter, 26 (21), (2014). 
 The ELPA library: scalable parallel eigenvalue solutions for
 electronic structure
 theory and computational science.
 https://doi.org/10.1088/0953-8984/26/21/213201

 Guidon, M; Hutter, J; VandeVondele, J. 
 JOURNAL OF CHEMICAL THEORY AND COMPUTATION, 6 (8), 2348-2364 (2010). 
 Auxiliary Density Matrix Methods for Hartree-Fock Exchange Calculations.
 https://doi.org/10.1021/ct1002225

 VandeVondele, J; Hutter, J. 
 JOURNAL OF CHEMICAL PHYSICS, 127 (11), 114105 (2007). 
 Gaussian basis sets for accurate calculations on molecular systems in
 gas and condensed phases.
 https://doi.org/10.1063/1.2770708

 Krack, M. 
 THEORETICAL CHEMISTRY ACCOUNTS, 114 (1-3), 145-152 (2005). 
 Pseudopotentials for H to Kr optimized for gradient-corrected
 exchange-correlation functionals.
 https://doi.org/10.1007/s00214-005-0655-y

 VandeVondele, J; Krack, M; Mohamed, F; Parrinello, M; Chassaing, T;
 Hutter, J. COMPUTER PHYSICS COMMUNICATIONS, 167 (2), 103-128 (2005). 
 QUICKSTEP: Fast and accurate density functional calculations using a
 mixed Gaussian and plane waves approach.
 https://doi.org/10.1016/j.cpc.2004.12.014

 Frigo, M; Johnson, SG. 
 PROCEEDINGS OF THE IEEE, 93 (2), 216-231 (2005). 
 The design and implementation of FFTW3.
 https://doi.org/10.1109/JPROC.2004.840301

 Hartwigsen, C; Goedecker, S; Hutter, J. 
 PHYSICAL REVIEW B, 58 (7), 3641-3662 (1998). 
 Relativistic separable dual-space Gaussian pseudopotentials from H to Rn.
 https://doi.org/10.1103/PhysRevB.58.3641

 Lippert, G; Hutter, J; Parrinello, M. 
 MOLECULAR PHYSICS, 92 (3), 477-487 (1997). 
 A hybrid Gaussian and plane wave density functional scheme.
 https://doi.org/10.1080/002689797170220

 Perdew, JP; Burke, K; Ernzerhof, M. 
 PHYSICAL REVIEW LETTERS, 77 (18), 3865-3868 (1996). 
 Generalized gradient approximation made simple.
 https://doi.org/10.1103/PhysRevLett.77.3865

 Goedecker, S; Teter, M; Hutter, J. 
 PHYSICAL REVIEW B, 54 (3), 1703-1710 (1996). 
 Separable dual-space Gaussian pseudopotentials.
 https://doi.org/10.1103/PhysRevB.54.1703


 -------------------------------------------------------------------------------
 -                                                                             -
 -                                T I M I N G                                  -
 -                                                                             -
 -------------------------------------------------------------------------------
 SUBROUTINE                       CALLS  ASD         SELF TIME        TOTAL TIME
                                MAXIMUM       AVERAGE  MAXIMUM  AVERAGE  MAXIMUM
 CP2K                                 1  1.0    0.002    0.004 2806.190 2806.251
 run_optimize_basis                   1  2.0    0.002    0.003 2806.178 2806.237
 driver_para_opt_basis                1  3.0    0.000    0.000 2806.172 2806.230
 driver_optimization_para_low         1  4.0    0.480    1.108 2806.171 2806.229
 compute_residuum_vectors         50001  5.0    2.531    3.141 2786.966 2787.389
 mp_sum_dv                       250006  5.8 1172.627 2083.093 1172.627 2083.093
 cp_gemm                         600012  7.2    0.797    1.010  870.248 1516.597
 cp_gemm_fm_gemm                 600012  8.2    0.493    0.610  869.451 1515.799
 cp_fm_gemm                      600012  9.2  868.958 1515.271  868.958 1515.271
 admm_fit_mo_coeffs               50001  6.0    0.104    0.182  645.045 1381.533
 fit_mo_coeffs                    50001  7.0    0.382    0.500  525.646 1231.416
 build_overlap_matrix_low        100006  6.0  232.388  882.657  234.161  884.699
 copy_dbcsr_to_fm                250006  6.8    2.259    3.081  331.456  830.892
 dbcsr_desymmetrize_deep         250006  7.8    5.188    7.406  256.646  737.566
 mp_alltoall_i22                 500013  8.8  235.784  712.414  235.784  712.414
 cp_fm_syevd                     100002  7.0    0.282    0.358  106.118  188.132
 cp_fm_syevd_base                100002  8.0  105.739  187.768  105.739  187.768
 purify_mo_diag                   50001  7.0    0.522    0.738  119.295  150.522
 dbcsr_complete_redistribute     250007  7.8   15.159   20.465   62.840   76.934
 -------------------------------------------------------------------------------

 The number of warnings for this run is : 0
 
 -------------------------------------------------------------------------------
  **** **** ******  **  PROGRAM ENDED AT                 2021-01-19 18:36:34.977
 ***** ** ***  *** **   PROGRAM RAN ON                                   tcopt10
 **    ****   ******    PROGRAM RAN BY                                    hutter
 ***** **    ** ** **   PROGRAM PROCESS ID                                  2812
  **** **  *******  **  PROGRAM STOPPED IN /data/hutter/GITHUB/BASIS/MOLOPT/PBE/
                                           Ca
