
  **** **** ******  **  PROGRAM STARTED AT               2021-01-04 16:41:06.074
 ***** ** ***  *** **   PROGRAM STARTED ON                               tcopt10
 **    ****   ******    PROGRAM STARTED BY                                hutter
 ***** **    ** ** **   PROGRAM PROCESS ID                                 46702
  **** **  *******  **  PROGRAM STARTED IN /data/hutter/GITHUB/BASIS/MOLOPT/PBE/
                                           Ca

 CP2K| version string:                    CP2K version 9.0 (Development Version)
 CP2K| source code revision number:                                  git:3ae5de2
 CP2K| cp2kflags: omp libint fftw3 libxc elpa parallel mpi3 scalapack xsmm spgli
 CP2K|            b sirius
 CP2K| is freely available from                            https://www.cp2k.org/
 CP2K| Program compiled at                          Mon Jan  4 12:49:09 CET 2021
 CP2K| Program compiled on                                               tcopt10
 CP2K| Program compiled for                                                local
 CP2K| Data directory path                 /data/hutter/GITHUB/CURRENT/cp2k/data
 CP2K| Input file name                                              opt-dzvp.inp

 GLOBAL| Method name                                              OPTIMIZE_BASIS
 GLOBAL| Project name                                                     molopt
 GLOBAL| Preferred FFT library                                             FFTW3
 GLOBAL| Preferred diagonalization lib.                                     ELPA
 GLOBAL| Run type                                                   ENERGY_FORCE
 GLOBAL| All-to-all communication in single precision                          F
 GLOBAL| FFTs using library dependent lengths                                  F
 GLOBAL| Global print level                                               MEDIUM
 GLOBAL| MPI I/O enabled                                                       T
 GLOBAL| Total number of message passing processes                            16
 GLOBAL| Number of threads for this process                                    1
 GLOBAL| This output is from process                                           0
 GLOBAL| CPU model name                          AMD EPYC 7401 24-Core Processor
 GLOBAL| CPUID                                                              1002

 MEMORY| system memory details [Kb]
 MEMORY|                        rank 0           min           max       average
 MEMORY| MemTotal            263987256     263987256     263987256     263987256
 MEMORY| MemFree             216548744     216548744     216548744     216548744
 MEMORY| Buffers                   148           148           148           148
 MEMORY| Cached               27771684      27771684      27771684      27771684
 MEMORY| Slab                  1047632       1047632       1047632       1047632
 MEMORY| SReclaimable           460832        460832        460832        460832
 MEMORY| MemLikelyFree       244781408     244781408     244781408     244781408


 *** Fundamental physical constants (SI units) ***

 *** Literature: B. J. Mohr and B. N. Taylor,
 ***             CODATA recommended values of the fundamental physical
 ***             constants: 2006, Web Version 5.1
 ***             http://physics.nist.gov/constants

 Speed of light in vacuum [m/s]                             2.99792458000000E+08
 Magnetic constant or permeability of vacuum [N/A**2]       1.25663706143592E-06
 Electric constant or permittivity of vacuum [F/m]          8.85418781762039E-12
 Planck constant (h) [J*s]                                  6.62606896000000E-34
 Planck constant (h-bar) [J*s]                              1.05457162825177E-34
 Elementary charge [C]                                      1.60217648700000E-19
 Electron mass [kg]                                         9.10938215000000E-31
 Electron g factor [ ]                                     -2.00231930436220E+00
 Proton mass [kg]                                           1.67262163700000E-27
 Fine-structure constant                                    7.29735253760000E-03
 Rydberg constant [1/m]                                     1.09737315685270E+07
 Avogadro constant [1/mol]                                  6.02214179000000E+23
 Boltzmann constant [J/K]                                   1.38065040000000E-23
 Atomic mass unit [kg]                                      1.66053878200000E-27
 Bohr radius [m]                                            5.29177208590000E-11

 *** Conversion factors ***

 [u] -> [a.u.]                                              1.82288848426455E+03
 [Angstrom] -> [Bohr] = [a.u.]                              1.88972613288564E+00
 [a.u.] = [Bohr] -> [Angstrom]                              5.29177208590000E-01
 [a.u.] -> [s]                                              2.41888432650478E-17
 [a.u.] -> [fs]                                             2.41888432650478E-02
 [a.u.] -> [J]                                              4.35974393937059E-18
 [a.u.] -> [N]                                              8.23872205491840E-08
 [a.u.] -> [K]                                              3.15774647902944E+05
 [a.u.] -> [kJ/mol]                                         2.62549961709828E+03
 [a.u.] -> [kcal/mol]                                       6.27509468713739E+02
 [a.u.] -> [Pa]                                             2.94210107994716E+13
 [a.u.] -> [bar]                                            2.94210107994716E+08
 [a.u.] -> [atm]                                            2.90362800883016E+08
 [a.u.] -> [eV]                                             2.72113838565563E+01
 [a.u.] -> [Hz]                                             6.57968392072181E+15
 [a.u.] -> [1/cm] (wave numbers)                            2.19474631370540E+05
 [a.u./Bohr**2] -> [1/cm]                                   5.14048714338585E+03
 
 DBCSR| CPU Multiplication driver                                           XSMM
 DBCSR| Multrec recursion limit                                              512
 DBCSR| Multiplication stack size                                           1000
 DBCSR| Maximum elements for images                                    UNLIMITED
 DBCSR| Multiplicative factor virtual images                                   1
 DBCSR| Use multiplication densification                                       T
 DBCSR| Multiplication size stacks                                             3
 DBCSR| Use memory pool for CPU allocation                                     F
 DBCSR| Number of 3D layers                                               SINGLE
 DBCSR| Use MPI memory allocation                                              F
 DBCSR| Use RMA algorithm                                                      F
 DBCSR| Use Communication thread                                               T
 DBCSR| Communication thread load                                             87
 DBCSR| MPI: My node id                                                        0
 DBCSR| MPI: Number of nodes                                                  16
 DBCSR| OMP: Current number of threads                                         1
 DBCSR| OMP: Max number of threads                                             1
 DBCSR| Split modifier for TAS multiplication algorithm                  1.0E+00

 BASOPT| Total number of calculations      3

 BASOPT| Content of basis combination      1
 BASOPT|     Element:   CA    Basis set:    DZVP-MOLOPT-PBE-GTH-Q10
 BASOPT|     Element:    H    Basis set:    DZVP-MOLOPT-PBE-GTH-Q1
 BASOPT|     Element:    F    Basis set:    DZVP-MOLOPT-PBE-GTH-Q7
 BASOPT|     Element:   CL    Basis set:    DZVP-MOLOPT-PBE-GTH-Q7

 BASOPT| Information at iteration number:       0
 BASOPT| Training set | Combination | Rho difference | Condition num. | Time
 BASOPT| -----------------------------------------------------------------------
 BASOPT|        1     |       1     | 0.81085202E-02 | 0.32647392E+02 |    0.033
 BASOPT|        2     |       1     | 0.67402178E-02 | 0.17058207E+02 |    0.020
 BASOPT|        3     |       1     | 0.81862180E-02 | 0.38390439E+02 |    0.034
 BASOPT| -----------------------------------------------------------------------
 BASOPT| Total residuum value: -.41359054E+03

 BASOPT| Information at iteration number:     100
 BASOPT| Training set | Combination | Rho difference | Condition num. | Time
 BASOPT| -----------------------------------------------------------------------
 BASOPT|        1     |       1     | 0.74914335E-02 | 0.31135409E+02 |    2.967
 BASOPT|        2     |       1     | 0.47198944E-02 | 0.16935089E+02 |    1.789
 BASOPT|        3     |       1     | 0.74453866E-02 | 0.35785781E+02 |    3.337
 BASOPT| -----------------------------------------------------------------------
 BASOPT| Total residuum value: -.41403593E+03

 BASOPT| Information at iteration number:     200
 BASOPT| Training set | Combination | Rho difference | Condition num. | Time
 BASOPT| -----------------------------------------------------------------------
 BASOPT|        1     |       1     | 0.65964734E-02 | 0.33648523E+02 |    5.871
 BASOPT|        2     |       1     | 0.62625703E-02 | 0.17095380E+02 |    3.539
 BASOPT|        3     |       1     | 0.68382150E-02 | 0.40075861E+02 |    6.611
 BASOPT| -----------------------------------------------------------------------
 BASOPT| Total residuum value: -.41411318E+03

 BASOPT| Information at iteration number:     300
 BASOPT| Training set | Combination | Rho difference | Condition num. | Time
 BASOPT| -----------------------------------------------------------------------
 BASOPT|        1     |       1     | 0.66966915E-02 | 0.33319573E+02 |    8.777
 BASOPT|        2     |       1     | 0.57432639E-02 | 0.17086515E+02 |    5.289
 BASOPT|        3     |       1     | 0.68047198E-02 | 0.39579245E+02 |    9.892
 BASOPT| -----------------------------------------------------------------------
 BASOPT| Total residuum value: -.41413152E+03

 BASOPT| Information at iteration number:     400
 BASOPT| Training set | Combination | Rho difference | Condition num. | Time
 BASOPT| -----------------------------------------------------------------------
 BASOPT|        1     |       1     | 0.66202364E-02 | 0.33504876E+02 |   11.688
 BASOPT|        2     |       1     | 0.58386954E-02 | 0.17058189E+02 |    7.039
 BASOPT|        3     |       1     | 0.67577061E-02 | 0.39674429E+02 |   13.168
 BASOPT| -----------------------------------------------------------------------
 BASOPT| Total residuum value: -.41413754E+03

 BASOPT| Information at iteration number:     500
 BASOPT| Training set | Combination | Rho difference | Condition num. | Time
 BASOPT| -----------------------------------------------------------------------
 BASOPT|        1     |       1     | 0.65143245E-02 | 0.33640310E+02 |   14.595
 BASOPT|        2     |       1     | 0.58348930E-02 | 0.17040463E+02 |    8.790
 BASOPT|        3     |       1     | 0.67137849E-02 | 0.39733527E+02 |   16.442
 BASOPT| -----------------------------------------------------------------------
 BASOPT| Total residuum value: -.41414576E+03

 BASOPT| Information at iteration number:     600
 BASOPT| Training set | Combination | Rho difference | Condition num. | Time
 BASOPT| -----------------------------------------------------------------------
 BASOPT|        1     |       1     | 0.63787626E-02 | 0.33432961E+02 |   17.505
 BASOPT|        2     |       1     | 0.57355203E-02 | 0.16947478E+02 |   10.541
 BASOPT|        3     |       1     | 0.66611041E-02 | 0.39169854E+02 |   19.702
 BASOPT| -----------------------------------------------------------------------
 BASOPT| Total residuum value: -.41415479E+03

 BASOPT| Information at iteration number:     700
 BASOPT| Training set | Combination | Rho difference | Condition num. | Time
 BASOPT| -----------------------------------------------------------------------
 BASOPT|        1     |       1     | 0.61154213E-02 | 0.33000826E+02 |   20.411
 BASOPT|        2     |       1     | 0.57952158E-02 | 0.16747989E+02 |   12.293
 BASOPT|        3     |       1     | 0.66606352E-02 | 0.38159250E+02 |   22.968
 BASOPT| -----------------------------------------------------------------------
 BASOPT| Total residuum value: -.41416244E+03

 BASOPT| Information at iteration number:     800
 BASOPT| Training set | Combination | Rho difference | Condition num. | Time
 BASOPT| -----------------------------------------------------------------------
 BASOPT|        1     |       1     | 0.59706008E-02 | 0.33038111E+02 |   23.317
 BASOPT|        2     |       1     | 0.59762736E-02 | 0.16645136E+02 |   14.045
 BASOPT|        3     |       1     | 0.66544096E-02 | 0.38104403E+02 |   26.235
 BASOPT| -----------------------------------------------------------------------
 BASOPT| Total residuum value: -.41416475E+03

 BASOPT| Information at iteration number:     900
 BASOPT| Training set | Combination | Rho difference | Condition num. | Time
 BASOPT| -----------------------------------------------------------------------
 BASOPT|        1     |       1     | 0.58964803E-02 | 0.32291681E+02 |   26.224
 BASOPT|        2     |       1     | 0.58557086E-02 | 0.16497140E+02 |   15.803
 BASOPT|        3     |       1     | 0.67493531E-02 | 0.37368286E+02 |   29.503
 BASOPT| -----------------------------------------------------------------------
 BASOPT| Total residuum value: -.41416773E+03

 BASOPT| Information at iteration number:    1000
 BASOPT| Training set | Combination | Rho difference | Condition num. | Time
 BASOPT| -----------------------------------------------------------------------
 BASOPT|        1     |       1     | 0.58638608E-02 | 0.32379976E+02 |   29.135
 BASOPT|        2     |       1     | 0.58868650E-02 | 0.16505278E+02 |   17.566
 BASOPT|        3     |       1     | 0.67441296E-02 | 0.37637677E+02 |   32.770
 BASOPT| -----------------------------------------------------------------------
 BASOPT| Total residuum value: -.41416932E+03

 BASOPT| Information at iteration number:    1100
 BASOPT| Training set | Combination | Rho difference | Condition num. | Time
 BASOPT| -----------------------------------------------------------------------
 BASOPT|        1     |       1     | 0.58637316E-02 | 0.32396889E+02 |   32.044
 BASOPT|        2     |       1     | 0.58416822E-02 | 0.16528848E+02 |   19.331
 BASOPT|        3     |       1     | 0.67382701E-02 | 0.37753147E+02 |   36.038
 BASOPT| -----------------------------------------------------------------------
 BASOPT| Total residuum value: -.41417053E+03

 BASOPT| Information at iteration number:    1200
 BASOPT| Training set | Combination | Rho difference | Condition num. | Time
 BASOPT| -----------------------------------------------------------------------
 BASOPT|        1     |       1     | 0.58335886E-02 | 0.32391171E+02 |   34.954
 BASOPT|        2     |       1     | 0.58738472E-02 | 0.16523974E+02 |   21.096
 BASOPT|        3     |       1     | 0.67429434E-02 | 0.37796638E+02 |   39.303
 BASOPT| -----------------------------------------------------------------------
 BASOPT| Total residuum value: -.41417168E+03

 BASOPT| Information at iteration number:    1300
 BASOPT| Training set | Combination | Rho difference | Condition num. | Time
 BASOPT| -----------------------------------------------------------------------
 BASOPT|        1     |       1     | 0.58394467E-02 | 0.32416584E+02 |   37.861
 BASOPT|        2     |       1     | 0.58621426E-02 | 0.16484137E+02 |   22.861
 BASOPT|        3     |       1     | 0.67099902E-02 | 0.37710503E+02 |   42.568
 BASOPT| -----------------------------------------------------------------------
 BASOPT| Total residuum value: -.41417295E+03

 BASOPT| Information at iteration number:    1400
 BASOPT| Training set | Combination | Rho difference | Condition num. | Time
 BASOPT| -----------------------------------------------------------------------
 BASOPT|        1     |       1     | 0.58336730E-02 | 0.32518285E+02 |   40.769
 BASOPT|        2     |       1     | 0.59514923E-02 | 0.16337363E+02 |   24.625
 BASOPT|        3     |       1     | 0.66319243E-02 | 0.37585318E+02 |   45.835
 BASOPT| -----------------------------------------------------------------------
 BASOPT| Total residuum value: -.41417431E+03

 BASOPT| Information at iteration number:    1500
 BASOPT| Training set | Combination | Rho difference | Condition num. | Time
 BASOPT| -----------------------------------------------------------------------
 BASOPT|        1     |       1     | 0.58890245E-02 | 0.32018026E+02 |   43.679
 BASOPT|        2     |       1     | 0.57539500E-02 | 0.16185211E+02 |   26.390
 BASOPT|        3     |       1     | 0.66328162E-02 | 0.36784737E+02 |   49.100
 BASOPT| -----------------------------------------------------------------------
 BASOPT| Total residuum value: -.41417640E+03

 BASOPT| Information at iteration number:    1600
 BASOPT| Training set | Combination | Rho difference | Condition num. | Time
 BASOPT| -----------------------------------------------------------------------
 BASOPT|        1     |       1     | 0.59194862E-02 | 0.31121588E+02 |   46.589
 BASOPT|        2     |       1     | 0.55836687E-02 | 0.15902773E+02 |   28.155
 BASOPT|        3     |       1     | 0.66530986E-02 | 0.35616666E+02 |   52.366
 BASOPT| -----------------------------------------------------------------------
 BASOPT| Total residuum value: -.41417888E+03

 BASOPT| Information at iteration number:    1700
 BASOPT| Training set | Combination | Rho difference | Condition num. | Time
 BASOPT| -----------------------------------------------------------------------
 BASOPT|        1     |       1     | 0.59177102E-02 | 0.30632623E+02 |   49.501
 BASOPT|        2     |       1     | 0.55059226E-02 | 0.15734197E+02 |   29.920
 BASOPT|        3     |       1     | 0.66546276E-02 | 0.35048345E+02 |   55.630
 BASOPT| -----------------------------------------------------------------------
 BASOPT| Total residuum value: -.41418042E+03

 BASOPT| Information at iteration number:    1800
 BASOPT| Training set | Combination | Rho difference | Condition num. | Time
 BASOPT| -----------------------------------------------------------------------
 BASOPT|        1     |       1     | 0.58812028E-02 | 0.30121338E+02 |   52.412
 BASOPT|        2     |       1     | 0.55238728E-02 | 0.15501485E+02 |   31.686
 BASOPT|        3     |       1     | 0.66149518E-02 | 0.34492409E+02 |   58.896
 BASOPT| -----------------------------------------------------------------------
 BASOPT| Total residuum value: -.41418243E+03

 BASOPT| Information at iteration number:    1900
 BASOPT| Training set | Combination | Rho difference | Condition num. | Time
 BASOPT| -----------------------------------------------------------------------
 BASOPT|        1     |       1     | 0.58732547E-02 | 0.29965992E+02 |   55.324
 BASOPT|        2     |       1     | 0.55025641E-02 | 0.15455853E+02 |   33.452
 BASOPT|        3     |       1     | 0.66137522E-02 | 0.34331205E+02 |   62.160
 BASOPT| -----------------------------------------------------------------------
 BASOPT| Total residuum value: -.41418309E+03

 BASOPT| Information at iteration number:    2000
 BASOPT| Training set | Combination | Rho difference | Condition num. | Time
 BASOPT| -----------------------------------------------------------------------
 BASOPT|        1     |       1     | 0.58440818E-02 | 0.29405893E+02 |   58.237
 BASOPT|        2     |       1     | 0.54258340E-02 | 0.15338740E+02 |   35.217
 BASOPT|        3     |       1     | 0.66260028E-02 | 0.33710616E+02 |   65.424
 BASOPT| -----------------------------------------------------------------------
 BASOPT| Total residuum value: -.41418458E+03

 BASOPT| Information at iteration number:    2100
 BASOPT| Training set | Combination | Rho difference | Condition num. | Time
 BASOPT| -----------------------------------------------------------------------
 BASOPT|        1     |       1     | 0.58191072E-02 | 0.29227315E+02 |   61.150
 BASOPT|        2     |       1     | 0.54359329E-02 | 0.15342612E+02 |   36.982
 BASOPT|        3     |       1     | 0.66187854E-02 | 0.33463504E+02 |   68.690
 BASOPT| -----------------------------------------------------------------------
 BASOPT| Total residuum value: -.41418552E+03

 BASOPT| Information at iteration number:    2200
 BASOPT| Training set | Combination | Rho difference | Condition num. | Time
 BASOPT| -----------------------------------------------------------------------
 BASOPT|        1     |       1     | 0.57724494E-02 | 0.29260154E+02 |   64.066
 BASOPT|        2     |       1     | 0.55223146E-02 | 0.15349320E+02 |   38.748
 BASOPT|        3     |       1     | 0.65882245E-02 | 0.33301434E+02 |   71.957
 BASOPT| -----------------------------------------------------------------------
 BASOPT| Total residuum value: -.41418644E+03

 BASOPT| Information at iteration number:    2300
 BASOPT| Training set | Combination | Rho difference | Condition num. | Time
 BASOPT| -----------------------------------------------------------------------
 BASOPT|        1     |       1     | 0.57843378E-02 | 0.29148594E+02 |   66.981
 BASOPT|        2     |       1     | 0.54558161E-02 | 0.15355177E+02 |   40.514
 BASOPT|        3     |       1     | 0.65740153E-02 | 0.33125614E+02 |   75.222
 BASOPT| -----------------------------------------------------------------------
 BASOPT| Total residuum value: -.41418691E+03

 BASOPT| Information at iteration number:    2400
 BASOPT| Training set | Combination | Rho difference | Condition num. | Time
 BASOPT| -----------------------------------------------------------------------
 BASOPT|        1     |       1     | 0.58197609E-02 | 0.28515867E+02 |   69.897
 BASOPT|        2     |       1     | 0.52326323E-02 | 0.15343384E+02 |   42.281
 BASOPT|        3     |       1     | 0.66088345E-02 | 0.32335658E+02 |   78.531
 BASOPT| -----------------------------------------------------------------------
 BASOPT| Total residuum value: -.41418701E+03

 BASOPT| Information at iteration number:    2500
 BASOPT| Training set | Combination | Rho difference | Condition num. | Time
 BASOPT| -----------------------------------------------------------------------
 BASOPT|        1     |       1     | 0.57644256E-02 | 0.28893715E+02 |   72.811
 BASOPT|        2     |       1     | 0.54128118E-02 | 0.15361046E+02 |   44.047
 BASOPT|        3     |       1     | 0.65449484E-02 | 0.32723068E+02 |   81.856
 BASOPT| -----------------------------------------------------------------------
 BASOPT| Total residuum value: -.41418777E+03

 BASOPT| Information at iteration number:    2600
 BASOPT| Training set | Combination | Rho difference | Condition num. | Time
 BASOPT| -----------------------------------------------------------------------
 BASOPT|        1     |       1     | 0.57601557E-02 | 0.28823328E+02 |   75.727
 BASOPT|        2     |       1     | 0.53642366E-02 | 0.15366391E+02 |   45.816
 BASOPT|        3     |       1     | 0.65322884E-02 | 0.32578490E+02 |   85.195
 BASOPT| -----------------------------------------------------------------------
 BASOPT| Total residuum value: -.41418818E+03

 BASOPT| Information at iteration number:    2700
 BASOPT| Training set | Combination | Rho difference | Condition num. | Time
 BASOPT| -----------------------------------------------------------------------
 BASOPT|        1     |       1     | 0.57505571E-02 | 0.28807408E+02 |   78.642
 BASOPT|        2     |       1     | 0.53696237E-02 | 0.15369013E+02 |   47.587
 BASOPT|        3     |       1     | 0.65234221E-02 | 0.32546823E+02 |   88.542
 BASOPT| -----------------------------------------------------------------------
 BASOPT| Total residuum value: -.41418827E+03

 BASOPT| Information at iteration number:    2800
 BASOPT| Training set | Combination | Rho difference | Condition num. | Time
 BASOPT| -----------------------------------------------------------------------
 BASOPT|        1     |       1     | 0.57242518E-02 | 0.28814119E+02 |   81.556
 BASOPT|        2     |       1     | 0.54123358E-02 | 0.15371765E+02 |   49.355
 BASOPT|        3     |       1     | 0.65088471E-02 | 0.32557340E+02 |   91.886
 BASOPT| -----------------------------------------------------------------------
 BASOPT| Total residuum value: -.41418863E+03

 BASOPT| Information at iteration number:    2900
 BASOPT| Training set | Combination | Rho difference | Condition num. | Time
 BASOPT| -----------------------------------------------------------------------
 BASOPT|        1     |       1     | 0.57200337E-02 | 0.28660767E+02 |   84.472
 BASOPT|        2     |       1     | 0.53671012E-02 | 0.15365458E+02 |   51.124
 BASOPT|        3     |       1     | 0.65139624E-02 | 0.32365580E+02 |   95.230
 BASOPT| -----------------------------------------------------------------------
 BASOPT| Total residuum value: -.41418902E+03

 BASOPT| Information at iteration number:    3000
 BASOPT| Training set | Combination | Rho difference | Condition num. | Time
 BASOPT| -----------------------------------------------------------------------
 BASOPT|        1     |       1     | 0.57239042E-02 | 0.28642786E+02 |   87.388
 BASOPT|        2     |       1     | 0.53312820E-02 | 0.15367963E+02 |   52.893
 BASOPT|        3     |       1     | 0.65011934E-02 | 0.32339441E+02 |   98.575
 BASOPT| -----------------------------------------------------------------------
 BASOPT| Total residuum value: -.41418943E+03

 BASOPT| Information at iteration number:    3100
 BASOPT| Training set | Combination | Rho difference | Condition num. | Time
 BASOPT| -----------------------------------------------------------------------
 BASOPT|        1     |       1     | 0.57188962E-02 | 0.28507908E+02 |   90.303
 BASOPT|        2     |       1     | 0.53052058E-02 | 0.15368721E+02 |   54.664
 BASOPT|        3     |       1     | 0.65066524E-02 | 0.32183321E+02 |  101.920
 BASOPT| -----------------------------------------------------------------------
 BASOPT| Total residuum value: -.41418949E+03

 BASOPT| Information at iteration number:    3200
 BASOPT| Training set | Combination | Rho difference | Condition num. | Time
 BASOPT| -----------------------------------------------------------------------
 BASOPT|        1     |       1     | 0.57254602E-02 | 0.28410487E+02 |   93.220
 BASOPT|        2     |       1     | 0.52773613E-02 | 0.15371680E+02 |   56.435
 BASOPT|        3     |       1     | 0.64976443E-02 | 0.32060179E+02 |  105.265
 BASOPT| -----------------------------------------------------------------------
 BASOPT| Total residuum value: -.41418978E+03

 BASOPT| Information at iteration number:    3300
 BASOPT| Training set | Combination | Rho difference | Condition num. | Time
 BASOPT| -----------------------------------------------------------------------
 BASOPT|        1     |       1     | 0.57280642E-02 | 0.28453611E+02 |   96.135
 BASOPT|        2     |       1     | 0.52993813E-02 | 0.15375333E+02 |   58.204
 BASOPT|        3     |       1     | 0.64765298E-02 | 0.32132768E+02 |  108.610
 BASOPT| -----------------------------------------------------------------------
 BASOPT| Total residuum value: -.41418989E+03

 BASOPT| Information at iteration number:    3400
 BASOPT| Training set | Combination | Rho difference | Condition num. | Time
 BASOPT| -----------------------------------------------------------------------
 BASOPT|        1     |       1     | 0.57347715E-02 | 0.28378302E+02 |   99.052
 BASOPT|        2     |       1     | 0.52838461E-02 | 0.15379360E+02 |   59.974
 BASOPT|        3     |       1     | 0.64708490E-02 | 0.32131289E+02 |  111.957
 BASOPT| -----------------------------------------------------------------------
 BASOPT| Total residuum value: -.41419033E+03

 BASOPT| Information at iteration number:    3500
 BASOPT| Training set | Combination | Rho difference | Condition num. | Time
 BASOPT| -----------------------------------------------------------------------
 BASOPT|        1     |       1     | 0.57385287E-02 | 0.28222694E+02 |  101.967
 BASOPT|        2     |       1     | 0.52553613E-02 | 0.15376384E+02 |   61.745
 BASOPT|        3     |       1     | 0.64726637E-02 | 0.32047150E+02 |  115.302
 BASOPT| -----------------------------------------------------------------------
 BASOPT| Total residuum value: -.41419051E+03

 BASOPT| Information at iteration number:    3600
 BASOPT| Training set | Combination | Rho difference | Condition num. | Time
 BASOPT| -----------------------------------------------------------------------
 BASOPT|        1     |       1     | 0.57342511E-02 | 0.28165849E+02 |  104.884
 BASOPT|        2     |       1     | 0.52557977E-02 | 0.15377698E+02 |   63.515
 BASOPT|        3     |       1     | 0.64643623E-02 | 0.32027858E+02 |  118.645
 BASOPT| -----------------------------------------------------------------------
 BASOPT| Total residuum value: -.41419062E+03

 BASOPT| Information at iteration number:    3700
 BASOPT| Training set | Combination | Rho difference | Condition num. | Time
 BASOPT| -----------------------------------------------------------------------
 BASOPT|        1     |       1     | 0.57333510E-02 | 0.28115070E+02 |  107.801
 BASOPT|        2     |       1     | 0.52298477E-02 | 0.15379102E+02 |   65.285
 BASOPT|        3     |       1     | 0.64690463E-02 | 0.32012680E+02 |  121.992
 BASOPT| -----------------------------------------------------------------------
 BASOPT| Total residuum value: -.41419087E+03

 BASOPT| Information at iteration number:    3800
 BASOPT| Training set | Combination | Rho difference | Condition num. | Time
 BASOPT| -----------------------------------------------------------------------
 BASOPT|        1     |       1     | 0.57057494E-02 | 0.28165466E+02 |  110.719
 BASOPT|        2     |       1     | 0.52740080E-02 | 0.15381566E+02 |   67.054
 BASOPT|        3     |       1     | 0.64582828E-02 | 0.32096762E+02 |  125.339
 BASOPT| -----------------------------------------------------------------------
 BASOPT| Total residuum value: -.41419119E+03

 BASOPT| Information at iteration number:    3900
 BASOPT| Training set | Combination | Rho difference | Condition num. | Time
 BASOPT| -----------------------------------------------------------------------
 BASOPT|        1     |       1     | 0.56948328E-02 | 0.28141926E+02 |  113.634
 BASOPT|        2     |       1     | 0.52815142E-02 | 0.15382116E+02 |   68.823
 BASOPT|        3     |       1     | 0.64642369E-02 | 0.32068307E+02 |  128.687
 BASOPT| -----------------------------------------------------------------------
 BASOPT| Total residuum value: -.41419130E+03

 BASOPT| Information at iteration number:    4000
 BASOPT| Training set | Combination | Rho difference | Condition num. | Time
 BASOPT| -----------------------------------------------------------------------
 BASOPT|        1     |       1     | 0.56881622E-02 | 0.28060560E+02 |  116.550
 BASOPT|        2     |       1     | 0.52431378E-02 | 0.15376890E+02 |   70.594
 BASOPT|        3     |       1     | 0.64774516E-02 | 0.31917478E+02 |  132.036
 BASOPT| -----------------------------------------------------------------------
 BASOPT| Total residuum value: -.41419161E+03

 BASOPT| Information at iteration number:    4100
 BASOPT| Training set | Combination | Rho difference | Condition num. | Time
 BASOPT| -----------------------------------------------------------------------
 BASOPT|        1     |       1     | 0.56757264E-02 | 0.28026046E+02 |  119.466
 BASOPT|        2     |       1     | 0.52345898E-02 | 0.15376334E+02 |   72.363
 BASOPT|        3     |       1     | 0.64910363E-02 | 0.31847264E+02 |  135.385
 BASOPT| -----------------------------------------------------------------------
 BASOPT| Total residuum value: -.41419170E+03

 BASOPT| Information at iteration number:    4200
 BASOPT| Training set | Combination | Rho difference | Condition num. | Time
 BASOPT| -----------------------------------------------------------------------
 BASOPT|        1     |       1     | 0.56529874E-02 | 0.28047354E+02 |  122.388
 BASOPT|        2     |       1     | 0.52988634E-02 | 0.15379147E+02 |   74.134
 BASOPT|        3     |       1     | 0.64789813E-02 | 0.31984751E+02 |  138.731
 BASOPT| -----------------------------------------------------------------------
 BASOPT| Total residuum value: -.41419193E+03

 BASOPT| Information at iteration number:    4300
 BASOPT| Training set | Combination | Rho difference | Condition num. | Time
 BASOPT| -----------------------------------------------------------------------
 BASOPT|        1     |       1     | 0.56477955E-02 | 0.28083459E+02 |  125.312
 BASOPT|        2     |       1     | 0.53006600E-02 | 0.15378975E+02 |   75.903
 BASOPT|        3     |       1     | 0.64726188E-02 | 0.32030787E+02 |  142.076
 BASOPT| -----------------------------------------------------------------------
 BASOPT| Total residuum value: -.41419211E+03

 BASOPT| Information at iteration number:    4400
 BASOPT| Training set | Combination | Rho difference | Condition num. | Time
 BASOPT| -----------------------------------------------------------------------
 BASOPT|        1     |       1     | 0.56504025E-02 | 0.28117455E+02 |  128.237
 BASOPT|        2     |       1     | 0.52817209E-02 | 0.15376072E+02 |   77.671
 BASOPT|        3     |       1     | 0.64661747E-02 | 0.31968126E+02 |  145.422
 BASOPT| -----------------------------------------------------------------------
 BASOPT| Total residuum value: -.41419242E+03

 BASOPT| Information at iteration number:    4500
 BASOPT| Training set | Combination | Rho difference | Condition num. | Time
 BASOPT| -----------------------------------------------------------------------
 BASOPT|        1     |       1     | 0.56556111E-02 | 0.28159475E+02 |  131.169
 BASOPT|        2     |       1     | 0.52730114E-02 | 0.15378094E+02 |   79.442
 BASOPT|        3     |       1     | 0.64646591E-02 | 0.31974985E+02 |  148.770
 BASOPT| -----------------------------------------------------------------------
 BASOPT| Total residuum value: -.41419257E+03

 BASOPT| Information at iteration number:    4600
 BASOPT| Training set | Combination | Rho difference | Condition num. | Time
 BASOPT| -----------------------------------------------------------------------
 BASOPT|        1     |       1     | 0.56477794E-02 | 0.28151303E+02 |  134.094
 BASOPT|        2     |       1     | 0.52885898E-02 | 0.15377101E+02 |   81.211
 BASOPT|        3     |       1     | 0.64616433E-02 | 0.32011065E+02 |  152.118
 BASOPT| -----------------------------------------------------------------------
 BASOPT| Total residuum value: -.41419273E+03

 BASOPT| Information at iteration number:    4700
 BASOPT| Training set | Combination | Rho difference | Condition num. | Time
 BASOPT| -----------------------------------------------------------------------
 BASOPT|        1     |       1     | 0.56513209E-02 | 0.28144929E+02 |  137.018
 BASOPT|        2     |       1     | 0.52576938E-02 | 0.15373772E+02 |   82.984
 BASOPT|        3     |       1     | 0.64623788E-02 | 0.31976324E+02 |  155.467
 BASOPT| -----------------------------------------------------------------------
 BASOPT| Total residuum value: -.41419288E+03

 BASOPT| Information at iteration number:    4800
 BASOPT| Training set | Combination | Rho difference | Condition num. | Time
 BASOPT| -----------------------------------------------------------------------
 BASOPT|        1     |       1     | 0.56655809E-02 | 0.28112446E+02 |  139.916
 BASOPT|        2     |       1     | 0.52035943E-02 | 0.15366722E+02 |   84.756
 BASOPT|        3     |       1     | 0.64690417E-02 | 0.31918118E+02 |  158.818
 BASOPT| -----------------------------------------------------------------------
 BASOPT| Total residuum value: -.41419301E+03

 BASOPT| Information at iteration number:    4900
 BASOPT| Training set | Combination | Rho difference | Condition num. | Time
 BASOPT| -----------------------------------------------------------------------
 BASOPT|        1     |       1     | 0.57077895E-02 | 0.27947898E+02 |  142.813
 BASOPT|        2     |       1     | 0.50294308E-02 | 0.15349077E+02 |   86.528
 BASOPT|        3     |       1     | 0.65024702E-02 | 0.31578581E+02 |  162.170
 BASOPT| -----------------------------------------------------------------------
 BASOPT| Total residuum value: -.41419278E+03

 BASOPT| Information at iteration number:    5000
 BASOPT| Training set | Combination | Rho difference | Condition num. | Time
 BASOPT| -----------------------------------------------------------------------
 BASOPT|        1     |       1     | 0.56637138E-02 | 0.28190619E+02 |  145.715
 BASOPT|        2     |       1     | 0.51987247E-02 | 0.15360946E+02 |   88.300
 BASOPT|        3     |       1     | 0.64457854E-02 | 0.32067221E+02 |  165.519
 BASOPT| -----------------------------------------------------------------------
 BASOPT| Total residuum value: -.41419341E+03

 BASOPT| Information at iteration number:    5100
 BASOPT| Training set | Combination | Rho difference | Condition num. | Time
 BASOPT| -----------------------------------------------------------------------
 BASOPT|        1     |       1     | 0.56703401E-02 | 0.28208295E+02 |  148.612
 BASOPT|        2     |       1     | 0.51888310E-02 | 0.15358535E+02 |   90.073
 BASOPT|        3     |       1     | 0.64389926E-02 | 0.32063204E+02 |  168.868
 BASOPT| -----------------------------------------------------------------------
 BASOPT| Total residuum value: -.41419335E+03

 BASOPT| Information at iteration number:    5200
 BASOPT| Training set | Combination | Rho difference | Condition num. | Time
 BASOPT| -----------------------------------------------------------------------
 BASOPT|        1     |       1     | 0.56849246E-02 | 0.28300071E+02 |  151.527
 BASOPT|        2     |       1     | 0.51442305E-02 | 0.15358477E+02 |   91.844
 BASOPT|        3     |       1     | 0.64255650E-02 | 0.32024457E+02 |  172.217
 BASOPT| -----------------------------------------------------------------------
 BASOPT| Total residuum value: -.41419373E+03

 BASOPT| Information at iteration number:    5300
 BASOPT| Training set | Combination | Rho difference | Condition num. | Time
 BASOPT| -----------------------------------------------------------------------
 BASOPT|        1     |       1     | 0.56851217E-02 | 0.28347520E+02 |  154.437
 BASOPT|        2     |       1     | 0.51539700E-02 | 0.15358113E+02 |   93.617
 BASOPT|        3     |       1     | 0.64162514E-02 | 0.32107948E+02 |  175.566
 BASOPT| -----------------------------------------------------------------------
 BASOPT| Total residuum value: -.41419392E+03

 BASOPT| Information at iteration number:    5400
 BASOPT| Training set | Combination | Rho difference | Condition num. | Time
 BASOPT| -----------------------------------------------------------------------
 BASOPT|        1     |       1     | 0.56861034E-02 | 0.28343200E+02 |  157.349
 BASOPT|        2     |       1     | 0.51382140E-02 | 0.15358326E+02 |   95.390
 BASOPT|        3     |       1     | 0.64177771E-02 | 0.32094404E+02 |  178.918
 BASOPT| -----------------------------------------------------------------------
 BASOPT| Total residuum value: -.41419411E+03

 BASOPT| Information at iteration number:    5500
 BASOPT| Training set | Combination | Rho difference | Condition num. | Time
 BASOPT| -----------------------------------------------------------------------
 BASOPT|        1     |       1     | 0.56671680E-02 | 0.28312074E+02 |  160.255
 BASOPT|        2     |       1     | 0.51725552E-02 | 0.15357690E+02 |   97.164
 BASOPT|        3     |       1     | 0.64152921E-02 | 0.32132719E+02 |  182.271
 BASOPT| -----------------------------------------------------------------------
 BASOPT| Total residuum value: -.41419438E+03

 BASOPT| Information at iteration number:    5600
 BASOPT| Training set | Combination | Rho difference | Condition num. | Time
 BASOPT| -----------------------------------------------------------------------
 BASOPT|        1     |       1     | 0.56556412E-02 | 0.28286969E+02 |  163.154
 BASOPT|        2     |       1     | 0.51537606E-02 | 0.15355405E+02 |   98.939
 BASOPT|        3     |       1     | 0.64218526E-02 | 0.32074905E+02 |  185.623
 BASOPT| -----------------------------------------------------------------------
 BASOPT| Total residuum value: -.41419464E+03

 BASOPT| Information at iteration number:    5700
 BASOPT| Training set | Combination | Rho difference | Condition num. | Time
 BASOPT| -----------------------------------------------------------------------
 BASOPT|        1     |       1     | 0.56448819E-02 | 0.28280030E+02 |  166.054
 BASOPT|        2     |       1     | 0.51442328E-02 | 0.15354396E+02 |  100.715
 BASOPT|        3     |       1     | 0.64232212E-02 | 0.32081651E+02 |  188.979
 BASOPT| -----------------------------------------------------------------------
 BASOPT| Total residuum value: -.41419493E+03

 BASOPT| Information at iteration number:    5800
 BASOPT| Training set | Combination | Rho difference | Condition num. | Time
 BASOPT| -----------------------------------------------------------------------
 BASOPT|        1     |       1     | 0.56266376E-02 | 0.28307613E+02 |  168.953
 BASOPT|        2     |       1     | 0.51749699E-02 | 0.15356204E+02 |  102.490
 BASOPT|        3     |       1     | 0.64162787E-02 | 0.32176189E+02 |  192.333
 BASOPT| -----------------------------------------------------------------------
 BASOPT| Total residuum value: -.41419517E+03

 BASOPT| Information at iteration number:    5900
 BASOPT| Training set | Combination | Rho difference | Condition num. | Time
 BASOPT| -----------------------------------------------------------------------
 BASOPT|        1     |       1     | 0.56084628E-02 | 0.28392482E+02 |  171.851
 BASOPT|        2     |       1     | 0.52139431E-02 | 0.15358812E+02 |  104.265
 BASOPT|        3     |       1     | 0.64031878E-02 | 0.32264405E+02 |  195.691
 BASOPT| -----------------------------------------------------------------------
 BASOPT| Total residuum value: -.41419533E+03

 BASOPT| Information at iteration number:    6000
 BASOPT| Training set | Combination | Rho difference | Condition num. | Time
 BASOPT| -----------------------------------------------------------------------
 BASOPT|        1     |       1     | 0.56198041E-02 | 0.28328836E+02 |  174.751
 BASOPT|        2     |       1     | 0.51507282E-02 | 0.15350849E+02 |  106.040
 BASOPT|        3     |       1     | 0.64091356E-02 | 0.32130998E+02 |  199.049
 BASOPT| -----------------------------------------------------------------------
 BASOPT| Total residuum value: -.41419576E+03

 BASOPT| Information at iteration number:    6100
 BASOPT| Training set | Combination | Rho difference | Condition num. | Time
 BASOPT| -----------------------------------------------------------------------
 BASOPT|        1     |       1     | 0.56276018E-02 | 0.28388473E+02 |  177.648
 BASOPT|        2     |       1     | 0.51362703E-02 | 0.15349993E+02 |  107.813
 BASOPT|        3     |       1     | 0.63974065E-02 | 0.32114080E+02 |  202.408
 BASOPT| -----------------------------------------------------------------------
 BASOPT| Total residuum value: -.41419593E+03

 BASOPT| Information at iteration number:    6200
 BASOPT| Training set | Combination | Rho difference | Condition num. | Time
 BASOPT| -----------------------------------------------------------------------
 BASOPT|        1     |       1     | 0.56449066E-02 | 0.28428720E+02 |  180.548
 BASOPT|        2     |       1     | 0.50772628E-02 | 0.15347936E+02 |  109.588
 BASOPT|        3     |       1     | 0.63964896E-02 | 0.32006291E+02 |  205.767
 BASOPT| -----------------------------------------------------------------------
 BASOPT| Total residuum value: -.41419598E+03

 BASOPT| Information at iteration number:    6300
 BASOPT| Training set | Combination | Rho difference | Condition num. | Time
 BASOPT| -----------------------------------------------------------------------
 BASOPT|        1     |       1     | 0.56481018E-02 | 0.28507137E+02 |  183.447
 BASOPT|        2     |       1     | 0.50662893E-02 | 0.15349558E+02 |  111.364
 BASOPT|        3     |       1     | 0.63925453E-02 | 0.31981385E+02 |  209.127
 BASOPT| -----------------------------------------------------------------------
 BASOPT| Total residuum value: -.41419632E+03

 BASOPT| Information at iteration number:    6400
 BASOPT| Training set | Combination | Rho difference | Condition num. | Time
 BASOPT| -----------------------------------------------------------------------
 BASOPT|        1     |       1     | 0.56358440E-02 | 0.28553931E+02 |  186.348
 BASOPT|        2     |       1     | 0.50854004E-02 | 0.15351859E+02 |  113.139
 BASOPT|        3     |       1     | 0.63801616E-02 | 0.32006915E+02 |  212.485
 BASOPT| -----------------------------------------------------------------------
 BASOPT| Total residuum value: -.41419661E+03

 BASOPT| Information at iteration number:    6500
 BASOPT| Training set | Combination | Rho difference | Condition num. | Time
 BASOPT| -----------------------------------------------------------------------
 BASOPT|        1     |       1     | 0.56398168E-02 | 0.28530834E+02 |  189.248
 BASOPT|        2     |       1     | 0.50617118E-02 | 0.15351933E+02 |  114.913
 BASOPT|        3     |       1     | 0.63804718E-02 | 0.31921177E+02 |  215.843
 BASOPT| -----------------------------------------------------------------------
 BASOPT| Total residuum value: -.41419665E+03

 BASOPT| Information at iteration number:    6600
 BASOPT| Training set | Combination | Rho difference | Condition num. | Time
 BASOPT| -----------------------------------------------------------------------
 BASOPT|        1     |       1     | 0.56267180E-02 | 0.28713568E+02 |  192.157
 BASOPT|        2     |       1     | 0.51493715E-02 | 0.15364171E+02 |  116.686
 BASOPT|        3     |       1     | 0.63534301E-02 | 0.32156647E+02 |  219.200
 BASOPT| -----------------------------------------------------------------------
 BASOPT| Total residuum value: -.41419668E+03

 BASOPT| Information at iteration number:    6700
 BASOPT| Training set | Combination | Rho difference | Condition num. | Time
 BASOPT| -----------------------------------------------------------------------
 BASOPT|        1     |       1     | 0.56405704E-02 | 0.28655029E+02 |  195.072
 BASOPT|        2     |       1     | 0.50568219E-02 | 0.15359258E+02 |  118.459
 BASOPT|        3     |       1     | 0.63700527E-02 | 0.31905847E+02 |  222.557
 BASOPT| -----------------------------------------------------------------------
 BASOPT| Total residuum value: -.41419702E+03

 BASOPT| Information at iteration number:    6800
 BASOPT| Training set | Combination | Rho difference | Condition num. | Time
 BASOPT| -----------------------------------------------------------------------
 BASOPT|        1     |       1     | 0.56121956E-02 | 0.28493318E+02 |  197.981
 BASOPT|        2     |       1     | 0.50571520E-02 | 0.15364796E+02 |  120.233
 BASOPT|        3     |       1     | 0.63882060E-02 | 0.31813915E+02 |  225.916
 BASOPT| -----------------------------------------------------------------------
 BASOPT| Total residuum value: -.41419723E+03

 BASOPT| Information at iteration number:    6900
 BASOPT| Training set | Combination | Rho difference | Condition num. | Time
 BASOPT| -----------------------------------------------------------------------
 BASOPT|        1     |       1     | 0.55783756E-02 | 0.28336008E+02 |  200.882
 BASOPT|        2     |       1     | 0.50497866E-02 | 0.15376837E+02 |  122.005
 BASOPT|        3     |       1     | 0.64089453E-02 | 0.31592270E+02 |  229.274
 BASOPT| -----------------------------------------------------------------------
 BASOPT| Total residuum value: -.41419773E+03

 BASOPT| Information at iteration number:    7000
 BASOPT| Training set | Combination | Rho difference | Condition num. | Time
 BASOPT| -----------------------------------------------------------------------
 BASOPT|        1     |       1     | 0.55586694E-02 | 0.28446376E+02 |  203.785
 BASOPT|        2     |       1     | 0.51544747E-02 | 0.15387043E+02 |  123.779
 BASOPT|        3     |       1     | 0.63822304E-02 | 0.31876706E+02 |  232.633
 BASOPT| -----------------------------------------------------------------------
 BASOPT| Total residuum value: -.41419780E+03

 BASOPT| Information at iteration number:    7100
 BASOPT| Training set | Combination | Rho difference | Condition num. | Time
 BASOPT| -----------------------------------------------------------------------
 BASOPT|        1     |       1     | 0.55827262E-02 | 0.28448888E+02 |  206.682
 BASOPT|        2     |       1     | 0.50496985E-02 | 0.15382296E+02 |  125.551
 BASOPT|        3     |       1     | 0.63997552E-02 | 0.31657393E+02 |  235.990
 BASOPT| -----------------------------------------------------------------------
 BASOPT| Total residuum value: -.41419794E+03

 BASOPT| Information at iteration number:    7200
 BASOPT| Training set | Combination | Rho difference | Condition num. | Time
 BASOPT| -----------------------------------------------------------------------
 BASOPT|        1     |       1     | 0.55967914E-02 | 0.28512728E+02 |  209.580
 BASOPT|        2     |       1     | 0.50351188E-02 | 0.15383900E+02 |  127.323
 BASOPT|        3     |       1     | 0.63858224E-02 | 0.31654596E+02 |  239.349
 BASOPT| -----------------------------------------------------------------------
 BASOPT| Total residuum value: -.41419814E+03

 BASOPT| Information at iteration number:    7300
 BASOPT| Training set | Combination | Rho difference | Condition num. | Time
 BASOPT| -----------------------------------------------------------------------
 BASOPT|        1     |       1     | 0.56096909E-02 | 0.28519982E+02 |  212.478
 BASOPT|        2     |       1     | 0.49838925E-02 | 0.15384121E+02 |  129.097
 BASOPT|        3     |       1     | 0.63913240E-02 | 0.31526106E+02 |  242.705
 BASOPT| -----------------------------------------------------------------------
 BASOPT| Total residuum value: -.41419822E+03

 BASOPT| Information at iteration number:    7400
 BASOPT| Training set | Combination | Rho difference | Condition num. | Time
 BASOPT| -----------------------------------------------------------------------
 BASOPT|        1     |       1     | 0.55900290E-02 | 0.28676540E+02 |  215.375
 BASOPT|        2     |       1     | 0.50931403E-02 | 0.15399152E+02 |  130.871
 BASOPT|        3     |       1     | 0.63548271E-02 | 0.31808553E+02 |  246.062
 BASOPT| -----------------------------------------------------------------------
 BASOPT| Total residuum value: -.41419823E+03

 BASOPT| Information at iteration number:    7500
 BASOPT| Training set | Combination | Rho difference | Condition num. | Time
 BASOPT| -----------------------------------------------------------------------
 BASOPT|        1     |       1     | 0.56122438E-02 | 0.28523188E+02 |  218.273
 BASOPT|        2     |       1     | 0.49781964E-02 | 0.15392196E+02 |  132.646
 BASOPT|        3     |       1     | 0.63806427E-02 | 0.31495993E+02 |  249.417
 BASOPT| -----------------------------------------------------------------------
 BASOPT| Total residuum value: -.41419831E+03

 BASOPT| Information at iteration number:    7600
 BASOPT| Training set | Combination | Rho difference | Condition num. | Time
 BASOPT| -----------------------------------------------------------------------
 BASOPT|        1     |       1     | 0.56196440E-02 | 0.28555985E+02 |  221.170
 BASOPT|        2     |       1     | 0.49594716E-02 | 0.15394971E+02 |  134.421
 BASOPT|        3     |       1     | 0.63755842E-02 | 0.31444220E+02 |  252.773
 BASOPT| -----------------------------------------------------------------------
 BASOPT| Total residuum value: -.41419847E+03

 BASOPT| Information at iteration number:    7700
 BASOPT| Training set | Combination | Rho difference | Condition num. | Time
 BASOPT| -----------------------------------------------------------------------
 BASOPT|        1     |       1     | 0.56039144E-02 | 0.28640674E+02 |  224.066
 BASOPT|        2     |       1     | 0.50215514E-02 | 0.15405660E+02 |  136.193
 BASOPT|        3     |       1     | 0.63619371E-02 | 0.31577583E+02 |  256.130
 BASOPT| -----------------------------------------------------------------------
 BASOPT| Total residuum value: -.41419793E+03

 BASOPT| Information at iteration number:    7800
 BASOPT| Training set | Combination | Rho difference | Condition num. | Time
 BASOPT| -----------------------------------------------------------------------
 BASOPT|        1     |       1     | 0.56048275E-02 | 0.28637091E+02 |  226.966
 BASOPT|        2     |       1     | 0.49845688E-02 | 0.15406469E+02 |  137.968
 BASOPT|        3     |       1     | 0.63705179E-02 | 0.31437345E+02 |  259.486
 BASOPT| -----------------------------------------------------------------------
 BASOPT| Total residuum value: -.41419861E+03

 BASOPT| Information at iteration number:    7900
 BASOPT| Training set | Combination | Rho difference | Condition num. | Time
 BASOPT| -----------------------------------------------------------------------
 BASOPT|        1     |       1     | 0.56056865E-02 | 0.28653062E+02 |  229.863
 BASOPT|        2     |       1     | 0.49833448E-02 | 0.15408629E+02 |  139.744
 BASOPT|        3     |       1     | 0.63698903E-02 | 0.31460592E+02 |  262.843
 BASOPT| -----------------------------------------------------------------------
 BASOPT| Total residuum value: -.41419863E+03

 BASOPT| Information at iteration number:    8000
 BASOPT| Training set | Combination | Rho difference | Condition num. | Time
 BASOPT| -----------------------------------------------------------------------
 BASOPT|        1     |       1     | 0.56084488E-02 | 0.28689350E+02 |  232.763
 BASOPT|        2     |       1     | 0.49809767E-02 | 0.15410962E+02 |  141.519
 BASOPT|        3     |       1     | 0.63669418E-02 | 0.31456620E+02 |  266.202
 BASOPT| -----------------------------------------------------------------------
 BASOPT| Total residuum value: -.41419868E+03

 BASOPT| Information at iteration number:    8100
 BASOPT| Training set | Combination | Rho difference | Condition num. | Time
 BASOPT| -----------------------------------------------------------------------
 BASOPT|        1     |       1     | 0.56051696E-02 | 0.28689449E+02 |  235.665
 BASOPT|        2     |       1     | 0.49821278E-02 | 0.15413851E+02 |  143.294
 BASOPT|        3     |       1     | 0.63682601E-02 | 0.31419079E+02 |  269.557
 BASOPT| -----------------------------------------------------------------------
 BASOPT| Total residuum value: -.41419873E+03

 BASOPT| Information at iteration number:    8200
 BASOPT| Training set | Combination | Rho difference | Condition num. | Time
 BASOPT| -----------------------------------------------------------------------
 BASOPT|        1     |       1     | 0.56049051E-02 | 0.28725559E+02 |  238.562
 BASOPT|        2     |       1     | 0.49819454E-02 | 0.15421013E+02 |  145.068
 BASOPT|        3     |       1     | 0.63646944E-02 | 0.31400655E+02 |  272.914
 BASOPT| -----------------------------------------------------------------------
 BASOPT| Total residuum value: -.41419880E+03

 BASOPT| Information at iteration number:    8300
 BASOPT| Training set | Combination | Rho difference | Condition num. | Time
 BASOPT| -----------------------------------------------------------------------
 BASOPT|        1     |       1     | 0.56000233E-02 | 0.28715821E+02 |  241.461
 BASOPT|        2     |       1     | 0.49800079E-02 | 0.15426652E+02 |  146.843
 BASOPT|        3     |       1     | 0.63661743E-02 | 0.31336815E+02 |  276.271
 BASOPT| -----------------------------------------------------------------------
 BASOPT| Total residuum value: -.41419886E+03

 BASOPT| Information at iteration number:    8400
 BASOPT| Training set | Combination | Rho difference | Condition num. | Time
 BASOPT| -----------------------------------------------------------------------
 BASOPT|        1     |       1     | 0.55968755E-02 | 0.28753146E+02 |  244.361
 BASOPT|        2     |       1     | 0.49837205E-02 | 0.15428187E+02 |  148.617
 BASOPT|        3     |       1     | 0.63639351E-02 | 0.31339731E+02 |  279.630
 BASOPT| -----------------------------------------------------------------------
 BASOPT| Total residuum value: -.41419890E+03

 BASOPT| Information at iteration number:    8500
 BASOPT| Training set | Combination | Rho difference | Condition num. | Time
 BASOPT| -----------------------------------------------------------------------
 BASOPT|        1     |       1     | 0.55893952E-02 | 0.28724525E+02 |  247.260
 BASOPT|        2     |       1     | 0.49778246E-02 | 0.15432034E+02 |  150.390
 BASOPT|        3     |       1     | 0.63644402E-02 | 0.31282733E+02 |  282.986
 BASOPT| -----------------------------------------------------------------------
 BASOPT| Total residuum value: -.41419902E+03

 BASOPT| Information at iteration number:    8600
 BASOPT| Training set | Combination | Rho difference | Condition num. | Time
 BASOPT| -----------------------------------------------------------------------
 BASOPT|        1     |       1     | 0.55817813E-02 | 0.28744885E+02 |  250.160
 BASOPT|        2     |       1     | 0.49680355E-02 | 0.15444413E+02 |  152.164
 BASOPT|        3     |       1     | 0.63580683E-02 | 0.31219836E+02 |  286.344
 BASOPT| -----------------------------------------------------------------------
 BASOPT| Total residuum value: -.41419920E+03

 BASOPT| Information at iteration number:    8700
 BASOPT| Training set | Combination | Rho difference | Condition num. | Time
 BASOPT| -----------------------------------------------------------------------
 BASOPT|        1     |       1     | 0.55802078E-02 | 0.28764895E+02 |  253.059
 BASOPT|        2     |       1     | 0.49649252E-02 | 0.15446609E+02 |  153.937
 BASOPT|        3     |       1     | 0.63534389E-02 | 0.31192208E+02 |  289.703
 BASOPT| -----------------------------------------------------------------------
 BASOPT| Total residuum value: -.41419925E+03

 BASOPT| Information at iteration number:    8800
 BASOPT| Training set | Combination | Rho difference | Condition num. | Time
 BASOPT| -----------------------------------------------------------------------
 BASOPT|        1     |       1     | 0.55804076E-02 | 0.28793389E+02 |  255.960
 BASOPT|        2     |       1     | 0.49546039E-02 | 0.15448896E+02 |  155.711
 BASOPT|        3     |       1     | 0.63499929E-02 | 0.31172765E+02 |  293.061
 BASOPT| -----------------------------------------------------------------------
 BASOPT| Total residuum value: -.41419932E+03

 BASOPT| Information at iteration number:    8900
 BASOPT| Training set | Combination | Rho difference | Condition num. | Time
 BASOPT| -----------------------------------------------------------------------
 BASOPT|        1     |       1     | 0.55796968E-02 | 0.28768449E+02 |  258.859
 BASOPT|        2     |       1     | 0.49487607E-02 | 0.15450170E+02 |  157.486
 BASOPT|        3     |       1     | 0.63481520E-02 | 0.31135707E+02 |  296.420
 BASOPT| -----------------------------------------------------------------------
 BASOPT| Total residuum value: -.41419938E+03

 BASOPT| Information at iteration number:    9000
 BASOPT| Training set | Combination | Rho difference | Condition num. | Time
 BASOPT| -----------------------------------------------------------------------
 BASOPT|        1     |       1     | 0.55752014E-02 | 0.28772527E+02 |  261.760
 BASOPT|        2     |       1     | 0.49438658E-02 | 0.15453224E+02 |  159.261
 BASOPT|        3     |       1     | 0.63445941E-02 | 0.31087629E+02 |  299.778
 BASOPT| -----------------------------------------------------------------------
 BASOPT| Total residuum value: -.41419945E+03

 BASOPT| Information at iteration number:    9100
 BASOPT| Training set | Combination | Rho difference | Condition num. | Time
 BASOPT| -----------------------------------------------------------------------
 BASOPT|        1     |       1     | 0.55662357E-02 | 0.28754059E+02 |  264.664
 BASOPT|        2     |       1     | 0.49522203E-02 | 0.15454829E+02 |  161.036
 BASOPT|        3     |       1     | 0.63419278E-02 | 0.31068738E+02 |  303.138
 BASOPT| -----------------------------------------------------------------------
 BASOPT| Total residuum value: -.41419952E+03

 BASOPT| Information at iteration number:    9200
 BASOPT| Training set | Combination | Rho difference | Condition num. | Time
 BASOPT| -----------------------------------------------------------------------
 BASOPT|        1     |       1     | 0.55618298E-02 | 0.28763976E+02 |  267.565
 BASOPT|        2     |       1     | 0.49506761E-02 | 0.15456665E+02 |  162.811
 BASOPT|        3     |       1     | 0.63408853E-02 | 0.31061372E+02 |  306.498
 BASOPT| -----------------------------------------------------------------------
 BASOPT| Total residuum value: -.41419957E+03

 BASOPT| Information at iteration number:    9300
 BASOPT| Training set | Combination | Rho difference | Condition num. | Time
 BASOPT| -----------------------------------------------------------------------
 BASOPT|        1     |       1     | 0.55568348E-02 | 0.28760493E+02 |  270.469
 BASOPT|        2     |       1     | 0.49375391E-02 | 0.15459148E+02 |  164.585
 BASOPT|        3     |       1     | 0.63433513E-02 | 0.31024628E+02 |  309.857
 BASOPT| -----------------------------------------------------------------------
 BASOPT| Total residuum value: -.41419962E+03

 BASOPT| Information at iteration number:    9400
 BASOPT| Training set | Combination | Rho difference | Condition num. | Time
 BASOPT| -----------------------------------------------------------------------
 BASOPT|        1     |       1     | 0.55579103E-02 | 0.28765682E+02 |  273.374
 BASOPT|        2     |       1     | 0.49289440E-02 | 0.15459955E+02 |  166.359
 BASOPT|        3     |       1     | 0.63430198E-02 | 0.31001566E+02 |  313.215
 BASOPT| -----------------------------------------------------------------------
 BASOPT| Total residuum value: -.41419963E+03

 BASOPT| Information at iteration number:    9500
 BASOPT| Training set | Combination | Rho difference | Condition num. | Time
 BASOPT| -----------------------------------------------------------------------
 BASOPT|        1     |       1     | 0.55573297E-02 | 0.28796829E+02 |  276.279
 BASOPT|        2     |       1     | 0.49338507E-02 | 0.15462419E+02 |  168.132
 BASOPT|        3     |       1     | 0.63389195E-02 | 0.31008993E+02 |  316.573
 BASOPT| -----------------------------------------------------------------------
 BASOPT| Total residuum value: -.41419966E+03

 BASOPT| Information at iteration number:    9600
 BASOPT| Training set | Combination | Rho difference | Condition num. | Time
 BASOPT| -----------------------------------------------------------------------
 BASOPT|        1     |       1     | 0.55570947E-02 | 0.28808014E+02 |  279.184
 BASOPT|        2     |       1     | 0.49239989E-02 | 0.15462777E+02 |  169.904
 BASOPT|        3     |       1     | 0.63404795E-02 | 0.30961945E+02 |  319.931
 BASOPT| -----------------------------------------------------------------------
 BASOPT| Total residuum value: -.41419969E+03

 BASOPT| Information at iteration number:    9700
 BASOPT| Training set | Combination | Rho difference | Condition num. | Time
 BASOPT| -----------------------------------------------------------------------
 BASOPT|        1     |       1     | 0.55509703E-02 | 0.28824881E+02 |  282.087
 BASOPT|        2     |       1     | 0.49239682E-02 | 0.15466533E+02 |  171.679
 BASOPT|        3     |       1     | 0.63397296E-02 | 0.30866783E+02 |  323.290
 BASOPT| -----------------------------------------------------------------------
 BASOPT| Total residuum value: -.41419974E+03

 BASOPT| Information at iteration number:    9800
 BASOPT| Training set | Combination | Rho difference | Condition num. | Time
 BASOPT| -----------------------------------------------------------------------
 BASOPT|        1     |       1     | 0.55513924E-02 | 0.28841449E+02 |  284.988
 BASOPT|        2     |       1     | 0.49232239E-02 | 0.15467400E+02 |  173.455
 BASOPT|        3     |       1     | 0.63401287E-02 | 0.30865017E+02 |  326.651
 BASOPT| -----------------------------------------------------------------------
 BASOPT| Total residuum value: -.41419975E+03

 BASOPT| Information at iteration number:    9900
 BASOPT| Training set | Combination | Rho difference | Condition num. | Time
 BASOPT| -----------------------------------------------------------------------
 BASOPT|        1     |       1     | 0.55522991E-02 | 0.28859490E+02 |  287.888
 BASOPT|        2     |       1     | 0.49236545E-02 | 0.15469386E+02 |  175.230
 BASOPT|        3     |       1     | 0.63391727E-02 | 0.30857097E+02 |  330.011
 BASOPT| -----------------------------------------------------------------------
 BASOPT| Total residuum value: -.41419977E+03

 BASOPT| Information at iteration number:   10000
 BASOPT| Training set | Combination | Rho difference | Condition num. | Time
 BASOPT| -----------------------------------------------------------------------
 BASOPT|        1     |       1     | 0.55507579E-02 | 0.28844101E+02 |  290.786
 BASOPT|        2     |       1     | 0.49244654E-02 | 0.15471451E+02 |  177.007
 BASOPT|        3     |       1     | 0.63412152E-02 | 0.30835243E+02 |  333.366
 BASOPT| -----------------------------------------------------------------------
 BASOPT| Total residuum value: -.41419979E+03

 BASOPT| Information at iteration number:   10100
 BASOPT| Training set | Combination | Rho difference | Condition num. | Time
 BASOPT| -----------------------------------------------------------------------
 BASOPT|        1     |       1     | 0.55506009E-02 | 0.28821836E+02 |  293.688
 BASOPT|        2     |       1     | 0.49211355E-02 | 0.15472621E+02 |  178.783
 BASOPT|        3     |       1     | 0.63430321E-02 | 0.30813642E+02 |  336.724
 BASOPT| -----------------------------------------------------------------------
 BASOPT| Total residuum value: -.41419980E+03

 BASOPT| Information at iteration number:   10200
 BASOPT| Training set | Combination | Rho difference | Condition num. | Time
 BASOPT| -----------------------------------------------------------------------
 BASOPT|        1     |       1     | 0.55540817E-02 | 0.28801334E+02 |  296.589
 BASOPT|        2     |       1     | 0.49154035E-02 | 0.15475463E+02 |  180.562
 BASOPT|        3     |       1     | 0.63427502E-02 | 0.30800122E+02 |  340.084
 BASOPT| -----------------------------------------------------------------------
 BASOPT| Total residuum value: -.41419982E+03

 BASOPT| Information at iteration number:   10300
 BASOPT| Training set | Combination | Rho difference | Condition num. | Time
 BASOPT| -----------------------------------------------------------------------
 BASOPT|        1     |       1     | 0.55583535E-02 | 0.28767179E+02 |  299.489
 BASOPT|        2     |       1     | 0.49118394E-02 | 0.15477843E+02 |  182.338
 BASOPT|        3     |       1     | 0.63415654E-02 | 0.30779349E+02 |  343.446
 BASOPT| -----------------------------------------------------------------------
 BASOPT| Total residuum value: -.41419985E+03

 BASOPT| Information at iteration number:   10400
 BASOPT| Training set | Combination | Rho difference | Condition num. | Time
 BASOPT| -----------------------------------------------------------------------
 BASOPT|        1     |       1     | 0.55583099E-02 | 0.28734825E+02 |  302.391
 BASOPT|        2     |       1     | 0.49062943E-02 | 0.15478171E+02 |  184.113
 BASOPT|        3     |       1     | 0.63450628E-02 | 0.30756533E+02 |  346.814
 BASOPT| -----------------------------------------------------------------------
 BASOPT| Total residuum value: -.41419987E+03

 BASOPT| Information at iteration number:   10500
 BASOPT| Training set | Combination | Rho difference | Condition num. | Time
 BASOPT| -----------------------------------------------------------------------
 BASOPT|        1     |       1     | 0.55575172E-02 | 0.28737461E+02 |  305.291
 BASOPT|        2     |       1     | 0.49142195E-02 | 0.15481234E+02 |  185.888
 BASOPT|        3     |       1     | 0.63433843E-02 | 0.30782449E+02 |  350.180
 BASOPT| -----------------------------------------------------------------------
 BASOPT| Total residuum value: -.41419988E+03

 BASOPT| Information at iteration number:   10600
 BASOPT| Training set | Combination | Rho difference | Condition num. | Time
 BASOPT| -----------------------------------------------------------------------
 BASOPT|        1     |       1     | 0.55607634E-02 | 0.28734039E+02 |  308.193
 BASOPT|        2     |       1     | 0.49046253E-02 | 0.15481325E+02 |  187.664
 BASOPT|        3     |       1     | 0.63437563E-02 | 0.30758912E+02 |  353.545
 BASOPT| -----------------------------------------------------------------------
 BASOPT| Total residuum value: -.41419989E+03

 BASOPT| Information at iteration number:   10700
 BASOPT| Training set | Combination | Rho difference | Condition num. | Time
 BASOPT| -----------------------------------------------------------------------
 BASOPT|        1     |       1     | 0.55599691E-02 | 0.28733621E+02 |  311.099
 BASOPT|        2     |       1     | 0.49047350E-02 | 0.15482834E+02 |  189.440
 BASOPT|        3     |       1     | 0.63441007E-02 | 0.30755467E+02 |  356.912
 BASOPT| -----------------------------------------------------------------------
 BASOPT| Total residuum value: -.41419990E+03

 BASOPT| Information at iteration number:   10800
 BASOPT| Training set | Combination | Rho difference | Condition num. | Time
 BASOPT| -----------------------------------------------------------------------
 BASOPT|        1     |       1     | 0.55568551E-02 | 0.28715153E+02 |  314.002
 BASOPT|        2     |       1     | 0.49082303E-02 | 0.15485679E+02 |  191.218
 BASOPT|        3     |       1     | 0.63450501E-02 | 0.30737922E+02 |  360.279
 BASOPT| -----------------------------------------------------------------------
 BASOPT| Total residuum value: -.41419991E+03

 BASOPT| Information at iteration number:   10900
 BASOPT| Training set | Combination | Rho difference | Condition num. | Time
 BASOPT| -----------------------------------------------------------------------
 BASOPT|        1     |       1     | 0.55541751E-02 | 0.28712888E+02 |  316.907
 BASOPT|        2     |       1     | 0.49136189E-02 | 0.15486528E+02 |  192.995
 BASOPT|        3     |       1     | 0.63446798E-02 | 0.30730399E+02 |  363.641
 BASOPT| -----------------------------------------------------------------------
 BASOPT| Total residuum value: -.41419992E+03

 BASOPT| Information at iteration number:   11000
 BASOPT| Training set | Combination | Rho difference | Condition num. | Time
 BASOPT| -----------------------------------------------------------------------
 BASOPT|        1     |       1     | 0.55521488E-02 | 0.28720870E+02 |  319.810
 BASOPT|        2     |       1     | 0.49171509E-02 | 0.15487129E+02 |  194.772
 BASOPT|        3     |       1     | 0.63447148E-02 | 0.30710940E+02 |  367.002
 BASOPT| -----------------------------------------------------------------------
 BASOPT| Total residuum value: -.41419993E+03

 BASOPT| Information at iteration number:   11100
 BASOPT| Training set | Combination | Rho difference | Condition num. | Time
 BASOPT| -----------------------------------------------------------------------
 BASOPT|        1     |       1     | 0.55544269E-02 | 0.28742833E+02 |  322.715
 BASOPT|        2     |       1     | 0.49099077E-02 | 0.15488008E+02 |  196.549
 BASOPT|        3     |       1     | 0.63452150E-02 | 0.30678560E+02 |  370.365
 BASOPT| -----------------------------------------------------------------------
 BASOPT| Total residuum value: -.41419994E+03

 BASOPT| Information at iteration number:   11200
 BASOPT| Training set | Combination | Rho difference | Condition num. | Time
 BASOPT| -----------------------------------------------------------------------
 BASOPT|        1     |       1     | 0.55511063E-02 | 0.28750804E+02 |  325.623
 BASOPT|        2     |       1     | 0.49182752E-02 | 0.15489851E+02 |  198.326
 BASOPT|        3     |       1     | 0.63438824E-02 | 0.30671426E+02 |  373.727
 BASOPT| -----------------------------------------------------------------------
 BASOPT| Total residuum value: -.41419995E+03

 BASOPT| Information at iteration number:   11300
 BASOPT| Training set | Combination | Rho difference | Condition num. | Time
 BASOPT| -----------------------------------------------------------------------
 BASOPT|        1     |       1     | 0.55499937E-02 | 0.28751496E+02 |  328.532
 BASOPT|        2     |       1     | 0.49197577E-02 | 0.15490869E+02 |  200.104
 BASOPT|        3     |       1     | 0.63442594E-02 | 0.30666870E+02 |  377.089
 BASOPT| -----------------------------------------------------------------------
 BASOPT| Total residuum value: -.41419996E+03

 BASOPT| Information at iteration number:   11400
 BASOPT| Training set | Combination | Rho difference | Condition num. | Time
 BASOPT| -----------------------------------------------------------------------
 BASOPT|        1     |       1     | 0.55492585E-02 | 0.28730855E+02 |  331.438
 BASOPT|        2     |       1     | 0.49179995E-02 | 0.15491503E+02 |  201.881
 BASOPT|        3     |       1     | 0.63460177E-02 | 0.30649746E+02 |  380.449
 BASOPT| -----------------------------------------------------------------------
 BASOPT| Total residuum value: -.41419997E+03

 BASOPT| Information at iteration number:   11500
 BASOPT| Training set | Combination | Rho difference | Condition num. | Time
 BASOPT| -----------------------------------------------------------------------
 BASOPT|        1     |       1     | 0.55430834E-02 | 0.28656520E+02 |  334.343
 BASOPT|        2     |       1     | 0.49249015E-02 | 0.15495355E+02 |  203.658
 BASOPT|        3     |       1     | 0.63487436E-02 | 0.30627395E+02 |  383.809
 BASOPT| -----------------------------------------------------------------------
 BASOPT| Total residuum value: -.41420000E+03

 BASOPT| Information at iteration number:   11600
 BASOPT| Training set | Combination | Rho difference | Condition num. | Time
 BASOPT| -----------------------------------------------------------------------
 BASOPT|        1     |       1     | 0.55436587E-02 | 0.28702159E+02 |  337.250
 BASOPT|        2     |       1     | 0.49336646E-02 | 0.15497164E+02 |  205.435
 BASOPT|        3     |       1     | 0.63431504E-02 | 0.30655860E+02 |  387.172
 BASOPT| -----------------------------------------------------------------------
 BASOPT| Total residuum value: -.41420001E+03

 BASOPT| Information at iteration number:   11700
 BASOPT| Training set | Combination | Rho difference | Condition num. | Time
 BASOPT| -----------------------------------------------------------------------
 BASOPT|        1     |       1     | 0.55533830E-02 | 0.28731325E+02 |  340.156
 BASOPT|        2     |       1     | 0.49119798E-02 | 0.15501494E+02 |  207.213
 BASOPT|        3     |       1     | 0.63406853E-02 | 0.30609880E+02 |  390.533
 BASOPT| -----------------------------------------------------------------------
 BASOPT| Total residuum value: -.41420003E+03

 BASOPT| Information at iteration number:   11800
 BASOPT| Training set | Combination | Rho difference | Condition num. | Time
 BASOPT| -----------------------------------------------------------------------
 BASOPT|        1     |       1     | 0.55507377E-02 | 0.28695383E+02 |  343.068
 BASOPT|        2     |       1     | 0.49102689E-02 | 0.15501114E+02 |  208.992
 BASOPT|        3     |       1     | 0.63436697E-02 | 0.30571782E+02 |  393.892
 BASOPT| -----------------------------------------------------------------------
 BASOPT| Total residuum value: -.41420005E+03

 BASOPT| Information at iteration number:   11900
 BASOPT| Training set | Combination | Rho difference | Condition num. | Time
 BASOPT| -----------------------------------------------------------------------
 BASOPT|        1     |       1     | 0.55537275E-02 | 0.28717877E+02 |  345.997
 BASOPT|        2     |       1     | 0.49055999E-02 | 0.15503269E+02 |  210.775
 BASOPT|        3     |       1     | 0.63420862E-02 | 0.30561023E+02 |  397.254
 BASOPT| -----------------------------------------------------------------------
 BASOPT| Total residuum value: -.41420006E+03

 BASOPT| Information at iteration number:   12000
 BASOPT| Training set | Combination | Rho difference | Condition num. | Time
 BASOPT| -----------------------------------------------------------------------
 BASOPT|        1     |       1     | 0.55534646E-02 | 0.28736358E+02 |  348.915
 BASOPT|        2     |       1     | 0.49082443E-02 | 0.15504624E+02 |  212.554
 BASOPT|        3     |       1     | 0.63409108E-02 | 0.30553494E+02 |  400.613
 BASOPT| -----------------------------------------------------------------------
 BASOPT| Total residuum value: -.41420007E+03

 BASOPT| Information at iteration number:   12100
 BASOPT| Training set | Combination | Rho difference | Condition num. | Time
 BASOPT| -----------------------------------------------------------------------
 BASOPT|        1     |       1     | 0.55555599E-02 | 0.28763677E+02 |  351.826
 BASOPT|        2     |       1     | 0.49037866E-02 | 0.15506479E+02 |  214.334
 BASOPT|        3     |       1     | 0.63390821E-02 | 0.30508074E+02 |  403.974
 BASOPT| -----------------------------------------------------------------------
 BASOPT| Total residuum value: -.41420009E+03

 BASOPT| Information at iteration number:   12200
 BASOPT| Training set | Combination | Rho difference | Condition num. | Time
 BASOPT| -----------------------------------------------------------------------
 BASOPT|        1     |       1     | 0.55538476E-02 | 0.28778423E+02 |  354.737
 BASOPT|        2     |       1     | 0.49105797E-02 | 0.15508497E+02 |  216.113
 BASOPT|        3     |       1     | 0.63368559E-02 | 0.30522437E+02 |  407.336
 BASOPT| -----------------------------------------------------------------------
 BASOPT| Total residuum value: -.41420009E+03

 BASOPT| Information at iteration number:   12300
 BASOPT| Training set | Combination | Rho difference | Condition num. | Time
 BASOPT| -----------------------------------------------------------------------
 BASOPT|        1     |       1     | 0.55526115E-02 | 0.28761709E+02 |  357.648
 BASOPT|        2     |       1     | 0.49028174E-02 | 0.15509446E+02 |  217.891
 BASOPT|        3     |       1     | 0.63397396E-02 | 0.30474019E+02 |  410.698
 BASOPT| -----------------------------------------------------------------------
 BASOPT| Total residuum value: -.41420010E+03

 BASOPT| Information at iteration number:   12400
 BASOPT| Training set | Combination | Rho difference | Condition num. | Time
 BASOPT| -----------------------------------------------------------------------
 BASOPT|        1     |       1     | 0.55508796E-02 | 0.28757217E+02 |  360.559
 BASOPT|        2     |       1     | 0.49011046E-02 | 0.15511697E+02 |  219.669
 BASOPT|        3     |       1     | 0.63403919E-02 | 0.30434554E+02 |  414.059
[...]
 BASOPT|        3     |       1     | 0.63405065E-02 | 0.29093745E+02 | 1650.221
 BASOPT| -----------------------------------------------------------------------
 BASOPT| Total residuum value: -.41420169E+03

 BASOPT| Information at iteration number:   49200
 BASOPT| Training set | Combination | Rho difference | Condition num. | Time
 BASOPT| -----------------------------------------------------------------------
 BASOPT|        1     |       1     | 0.55531206E-02 | 0.27984095E+02 | 1437.148
 BASOPT|        2     |       1     | 0.49104124E-02 | 0.14992872E+02 |  875.073
 BASOPT|        3     |       1     | 0.63406372E-02 | 0.29093119E+02 | 1653.589
 BASOPT| -----------------------------------------------------------------------
 BASOPT| Total residuum value: -.41420169E+03

 BASOPT| Information at iteration number:   49300
 BASOPT| Training set | Combination | Rho difference | Condition num. | Time
 BASOPT| -----------------------------------------------------------------------
 BASOPT|        1     |       1     | 0.55531813E-02 | 0.27984675E+02 | 1440.083
 BASOPT|        2     |       1     | 0.49101718E-02 | 0.14992577E+02 |  876.848
 BASOPT|        3     |       1     | 0.63406703E-02 | 0.29093907E+02 | 1656.959
 BASOPT| -----------------------------------------------------------------------
 BASOPT| Total residuum value: -.41420169E+03

 BASOPT| Information at iteration number:   49400
 BASOPT| Training set | Combination | Rho difference | Condition num. | Time
 BASOPT| -----------------------------------------------------------------------
 BASOPT|        1     |       1     | 0.55529115E-02 | 0.27984469E+02 | 1443.018
 BASOPT|        2     |       1     | 0.49108136E-02 | 0.14992501E+02 |  878.623
 BASOPT|        3     |       1     | 0.63406100E-02 | 0.29095212E+02 | 1660.330
 BASOPT| -----------------------------------------------------------------------
 BASOPT| Total residuum value: -.41420169E+03

 BASOPT| Information at iteration number:   49500
 BASOPT| Training set | Combination | Rho difference | Condition num. | Time
 BASOPT| -----------------------------------------------------------------------
 BASOPT|        1     |       1     | 0.55528790E-02 | 0.27983723E+02 | 1445.953
 BASOPT|        2     |       1     | 0.49105182E-02 | 0.14992379E+02 |  880.397
 BASOPT|        3     |       1     | 0.63407027E-02 | 0.29094430E+02 | 1663.702
 BASOPT| -----------------------------------------------------------------------
 BASOPT| Total residuum value: -.41420169E+03

 BASOPT| Information at iteration number:   49600
 BASOPT| Training set | Combination | Rho difference | Condition num. | Time
 BASOPT| -----------------------------------------------------------------------
 BASOPT|        1     |       1     | 0.55525604E-02 | 0.27982264E+02 | 1448.890
 BASOPT|        2     |       1     | 0.49106074E-02 | 0.14992081E+02 |  882.171
 BASOPT|        3     |       1     | 0.63408747E-02 | 0.29094102E+02 | 1667.072
 BASOPT| -----------------------------------------------------------------------
 BASOPT| Total residuum value: -.41420169E+03

 BASOPT| Information at iteration number:   49700
 BASOPT| Training set | Combination | Rho difference | Condition num. | Time
 BASOPT| -----------------------------------------------------------------------
 BASOPT|        1     |       1     | 0.55522877E-02 | 0.27981288E+02 | 1451.827
 BASOPT|        2     |       1     | 0.49107221E-02 | 0.14991462E+02 |  883.944
 BASOPT|        3     |       1     | 0.63408992E-02 | 0.29093907E+02 | 1670.440
 BASOPT| -----------------------------------------------------------------------
 BASOPT| Total residuum value: -.41420169E+03

 BASOPT| Information at iteration number:   49800
 BASOPT| Training set | Combination | Rho difference | Condition num. | Time
 BASOPT| -----------------------------------------------------------------------
 BASOPT|        1     |       1     | 0.55534279E-02 | 0.27987335E+02 | 1454.763
 BASOPT|        2     |       1     | 0.49090967E-02 | 0.14991048E+02 |  885.719
 BASOPT|        3     |       1     | 0.63406192E-02 | 0.29093924E+02 | 1673.810
 BASOPT| -----------------------------------------------------------------------
 BASOPT| Total residuum value: -.41420169E+03

 BASOPT| Information at iteration number:   49900
 BASOPT| Training set | Combination | Rho difference | Condition num. | Time
 BASOPT| -----------------------------------------------------------------------
 BASOPT|        1     |       1     | 0.55532513E-02 | 0.27988414E+02 | 1457.696
 BASOPT|        2     |       1     | 0.49103816E-02 | 0.14990788E+02 |  887.497
 BASOPT|        3     |       1     | 0.63402939E-02 | 0.29096677E+02 | 1677.190
 BASOPT| -----------------------------------------------------------------------
 BASOPT| Total residuum value: -.41420169E+03

 BASOPT| Information at iteration number:   50000
 BASOPT| Training set | Combination | Rho difference | Condition num. | Time
 BASOPT| -----------------------------------------------------------------------
 BASOPT|        1     |       1     | 0.55538241E-02 | 0.27992358E+02 | 1460.631
 BASOPT|        2     |       1     | 0.49091200E-02 | 0.14990278E+02 |  889.271
 BASOPT|        3     |       1     | 0.63403234E-02 | 0.29096418E+02 | 1680.559
 BASOPT| -----------------------------------------------------------------------
 BASOPT| Total residuum value: -.41420169E+03


 -------------------------------------------------------------------------------
 -                                                                             -
 -                                DBCSR STATISTICS                             -
 -                                                                             -
 -------------------------------------------------------------------------------
 COUNTER                                    TOTAL       BLAS       SMM       ACC
 flops   112 x    68 x     6                91392       0.0%    100.0%      0.0%
 flops    68 x   112 x     6                91392       0.0%    100.0%      0.0%
 flops   112 x   112 x     6               150528       0.0%    100.0%      0.0%
 flops    68 x    68 x     6               166464       0.0%    100.0%      0.0%
 flops   112 x   112 x    12               602112       0.0%    100.0%      0.0%
 flops   116 x   112 x    12               623616       0.0%    100.0%      0.0%
 flops   112 x   116 x    12               623616       0.0%    100.0%      0.0%
 flops   116 x   116 x    12              1937664       0.0%    100.0%      0.0%
 flops inhomo. stacks                           0       0.0%      0.0%      0.0%
 flops total                         4.286784E+06       0.0%    100.0%      0.0%
 flops max/rank                    968.832000E+03       0.0%    100.0%      0.0%
 matmuls inhomo. stacks                         0       0.0%      0.0%      0.0%
 matmuls total                                 18       0.0%    100.0%      0.0%
 number of processed stacks                    14       0.0%    100.0%      0.0%
 average stack size                                     0.0       1.3       0.0
 marketing flops                     6.418176E+06
 -------------------------------------------------------------------------------
 # multiplications                              1
 max memory usage/rank             377.397248E+06
 # max total images/rank                        3
 # max 3D layers                                1
 # MPI messages exchanged                      82
 MPI messages size (bytes):
  total size                       278.784000E+03
  min size                           0.000000E+00
  max size                          33.024000E+03
  average size                       3.399805E+03
 MPI breakdown and total messages size (bytes):
             size <=      128                  68                        0
       128 < size <=     8192                   0                        0
      8192 < size <=    32768                  10                   146688
     32768 < size <=   131072                   4                   132096
    131072 < size <=  4194304                   0                        0
   4194304 < size <= 16777216                   0                        0
  16777216 < size                               0                        0
 -------------------------------------------------------------------------------

 *** WARNING in dbcsr_mm.F:294 :: Using a non-square number of MPI ranks ***
 *** might lead to poor performance. Used ranks: 6 Suggested: 4 9        ***

 -------------------------------------------------------------------------------
 -                                                                             -
 -                      DBCSR MESSAGE PASSING PERFORMANCE                      -
 -                                                                             -
 -------------------------------------------------------------------------------
 ROUTINE             CALLS      AVE VOLUME [Bytes]
 MP_Bcast                9                     12.
 MP_Allreduce           42                     21.
 MP_Alltoall       3000081                  51519.
 MP_ISend               18                   2534.
 MP_IRecv               18                     57.
 -------------------------------------------------------------------------------

 -------------------------------------------------------------------------------
 -                                                                             -
 -                                GRID STATISTICS                              -
 -                                                                             -
 -------------------------------------------------------------------------------
 LP    KERNEL             BACKEND                              COUNT     PERCENT
 2     collocate ortho    REF                                   1616      12.97%
 2     integrate ortho    REF                                   1616      12.97%
 4     collocate ortho    REF                                   1256      10.08%
 4     integrate ortho    REF                                   1256      10.08%
 5     collocate ortho    REF                                   1006       8.07%
 5     integrate ortho    REF                                   1006       8.07%
 3     collocate ortho    REF                                    722       5.79%
 3     integrate ortho    REF                                    722       5.79%
 6     collocate ortho    REF                                    443       3.55%
 6     integrate ortho    REF                                    443       3.55%
 0     collocate ortho    REF                                    405       3.25%
 0     integrate ortho    REF                                    405       3.25%
 1     collocate ortho    REF                                    338       2.71%
 1     integrate ortho    REF                                    338       2.71%
 8     collocate ortho    REF                                    222       1.78%
 8     integrate ortho    REF                                    222       1.78%
 7     collocate ortho    REF                                    212       1.70%
 7     integrate ortho    REF                                    212       1.70%
 0     collocate general  REF                                     24       0.19%
 -------------------------------------------------------------------------------

 MEMORY| Estimated peak process memory [MiB]                                 713

 -------------------------------------------------------------------------------
 -                                                                             -
 -                         MESSAGE PASSING PERFORMANCE                         -
 -                                                                             -
 -------------------------------------------------------------------------------

 ROUTINE             CALLS      AVE VOLUME [Bytes]
 MP_Bcast           150040                    218.
 MP_Allreduce       650382                     39.
 MP_Sync            150003
 MP_Alltoall            44               17755292.
 MP_ISendRecv           30                 676608.
 MP_Wait                60
 MP_comm_split      100003
 MP_ISend               24                2851200.
 MP_IRecv               24                2851200.
 -------------------------------------------------------------------------------


 -------------------------------------------------------------------------------
 -                                                                             -
 -                           R E F E R E N C E S                               -
 -                                                                             -
 -------------------------------------------------------------------------------
 
 CP2K version 9.0 (Development Version), the CP2K developers group (2020).
 CP2K is freely available from https://www.cp2k.org/ .

 Kuehne,Thomas D.; Iannuzzi,Marcella; Del Ben,Mauro;
 Rybkin,Vladimir V.; Seewald,Patrick; Stein,Frederick; Laino,Teodoro;
 Khaliullin,Rustam Z.; Schuett,Ole; Schiffmann,Florian; Golze,Dorothea;
 Wilhelm,Jan; Chulkov,Sergey; Bani-Hashemian,Mohammad Hossein;
 Weber,Valery; Borstnik,Urban; Taillefumier,Mathieu;
 Jakobovits,Alice Shoshana; Lazzaro,Alfio; Pabst,Hans; Mueller,Tiziano;
 Schade,Robert; Guidon,Manuel; Andermatt,Samuel; Holmberg,Nico;
 Schenter,Gregory K.; Hehn,Anna; Bussy,Augustin; Belleflamme,Fabian;
 Tabacchi,Gloria; Gloess,Andreas; Lass,Michael; Bethune,Iain;
 Mundy,Christopher J.; Plessl,Christian; Watkins,Matt;
 VandeVondele,Joost; Krack,Matthias; Hutter,Juerg. 
 The Journal of Chemical Physics, 152 (19), (2020). 
 CP2K: An electronic structure and molecular dynamics software package -
 Quickstep: Efficient and accurate electronic structure calculations.
 https://doi.org/10.1063/5.0007045

 Schuett, Ole; Messmer, Peter; Hutter, Juerg; VandeVondele, Joost. 
 Electronic Structure Calculations on Graphics Processing Units, John
 Wiley & Sons, Ltd, 173-190 (2016). 
 GPU-Accelerated Sparse Matrix-Matrix Multiplication for
 Linear Scaling Density Functional Theory.
 https://doi.org/10.1002/9781118670712.ch8

 Borstnik, U; VandeVondele, J; Weber, V; Hutter, J. 
 PARALLEL COMPUTING, 40 (5-6), 47-58 (2014). 
 Sparse matrix multiplication: The distributed block-compressed sparse
 row library.
 https://doi.org/10.1016/j.parco.2014.03.012

 Hutter, J; Iannuzzi, M; Schiffmann, F; VandeVondele, J. 
 WIREs Comput Mol Sci., 4 (1), 15-25 (2014). 
 CP2K: atomistic simulations of condensed matter systems.
 https://doi.org/10.1002/wcms.1159

 Marek, A; Blum, V; Johanni, R; Havu, V; Lang, B; Auckenthaler, T;
 Heinecke, A; Bungartz, H; Lederer, H. 
 Journal of Physics: Condensed Matter, 26 (21), (2014). 
 The ELPA library: scalable parallel eigenvalue solutions for
 electronic structure
 theory and computational science.
 https://doi.org/10.1088/0953-8984/26/21/213201

 Guidon, M; Hutter, J; VandeVondele, J. 
 JOURNAL OF CHEMICAL THEORY AND COMPUTATION, 6 (8), 2348-2364 (2010). 
 Auxiliary Density Matrix Methods for Hartree-Fock Exchange Calculations.
 https://doi.org/10.1021/ct1002225

 VandeVondele, J; Hutter, J. 
 JOURNAL OF CHEMICAL PHYSICS, 127 (11), 114105 (2007). 
 Gaussian basis sets for accurate calculations on molecular systems in
 gas and condensed phases.
 https://doi.org/10.1063/1.2770708

 Krack, M. 
 THEORETICAL CHEMISTRY ACCOUNTS, 114 (1-3), 145-152 (2005). 
 Pseudopotentials for H to Kr optimized for gradient-corrected
 exchange-correlation functionals.
 https://doi.org/10.1007/s00214-005-0655-y

 VandeVondele, J; Krack, M; Mohamed, F; Parrinello, M; Chassaing, T;
 Hutter, J. COMPUTER PHYSICS COMMUNICATIONS, 167 (2), 103-128 (2005). 
 QUICKSTEP: Fast and accurate density functional calculations using a
 mixed Gaussian and plane waves approach.
 https://doi.org/10.1016/j.cpc.2004.12.014

 Frigo, M; Johnson, SG. 
 PROCEEDINGS OF THE IEEE, 93 (2), 216-231 (2005). 
 The design and implementation of FFTW3.
 https://doi.org/10.1109/JPROC.2004.840301

 Hartwigsen, C; Goedecker, S; Hutter, J. 
 PHYSICAL REVIEW B, 58 (7), 3641-3662 (1998). 
 Relativistic separable dual-space Gaussian pseudopotentials from H to Rn.
 https://doi.org/10.1103/PhysRevB.58.3641

 Lippert, G; Hutter, J; Parrinello, M. 
 MOLECULAR PHYSICS, 92 (3), 477-487 (1997). 
 A hybrid Gaussian and plane wave density functional scheme.
 https://doi.org/10.1080/002689797170220

 Perdew, JP; Burke, K; Ernzerhof, M. 
 PHYSICAL REVIEW LETTERS, 77 (18), 3865-3868 (1996). 
 Generalized gradient approximation made simple.
 https://doi.org/10.1103/PhysRevLett.77.3865

 Goedecker, S; Teter, M; Hutter, J. 
 PHYSICAL REVIEW B, 54 (3), 1703-1710 (1996). 
 Separable dual-space Gaussian pseudopotentials.
 https://doi.org/10.1103/PhysRevB.54.1703


 -------------------------------------------------------------------------------
 -                                                                             -
 -                                T I M I N G                                  -
 -                                                                             -
 -------------------------------------------------------------------------------
 SUBROUTINE                       CALLS  ASD         SELF TIME        TOTAL TIME
                                MAXIMUM       AVERAGE  MAXIMUM  AVERAGE  MAXIMUM
 CP2K                                 1  1.0    0.002    0.005 1697.479 1697.499
 run_optimize_basis                   1  2.0    0.001    0.002 1697.470 1697.489
 driver_para_opt_basis                1  3.0    0.000    0.000 1697.462 1697.483
 driver_optimization_para_low         1  4.0    0.242    0.543 1697.462 1697.483
 compute_residuum_vectors         50001  5.0    2.236    2.714 1683.409 1683.931
 admm_fit_mo_coeffs               50001  6.0    0.101    0.140  560.422  904.584
 cp_gemm                         600012  7.2    0.800    0.901  707.211  893.713
 cp_gemm_fm_gemm                 600012  8.2    0.518    0.554  706.411  892.886
 cp_fm_gemm                      600012  9.2  705.893  892.360  705.893  892.360
 mp_sum_dv                       250006  5.8  332.274  793.895  332.274  793.895
 fit_mo_coeffs                    50001  7.0    0.431    0.515  407.833  727.925
 copy_dbcsr_to_fm                250006  6.8    2.319    2.715  266.574  536.782
 dbcsr_desymmetrize_deep         250006  7.8    4.540    6.583  180.438  446.984
 mp_alltoall_i22                 500013  8.8  157.876  423.392  157.876  423.392
 build_overlap_matrix_low        100006  6.0  142.590  410.821  144.219  412.833
 purify_mo_diag                   50001  7.0    0.528    0.668  152.489  177.539
 cp_fm_syevd                     100002  7.0    0.272    0.359  126.933  147.263
 cp_fm_redistribute_end          100002  8.0   31.175  111.905   32.247  113.191
 cp_fm_syevd_base                100002  8.0   65.847   99.425   65.847   99.425
 dbcsr_complete_redistribute     250007  7.8   12.772   17.706   74.833   81.291
 cp_fm_upper_to_full             150005  7.3   42.948   57.441   42.948   57.441
 cp_fm_redistribute_start        100002  8.0   20.145   28.686   28.567   45.709
 mp_alltoall_d11v               1500041  9.3   28.144   35.663   28.144   35.663
 -------------------------------------------------------------------------------

 The number of warnings for this run is : 1
 
 -------------------------------------------------------------------------------
  **** **** ******  **  PROGRAM ENDED AT                 2021-01-04 17:09:24.186
 ***** ** ***  *** **   PROGRAM RAN ON                                   tcopt10
 **    ****   ******    PROGRAM RAN BY                                    hutter
 ***** **    ** ** **   PROGRAM PROCESS ID                                 46702
  **** **  *******  **  PROGRAM STOPPED IN /data/hutter/GITHUB/BASIS/MOLOPT/PBE/
                                           Ca
