 DBCSR| CPU Multiplication driver                                           XSMM
 DBCSR| Multrec recursion limit                                              512
 DBCSR| Multiplication stack size                                           1000
 DBCSR| Maximum elements for images                                    UNLIMITED
 DBCSR| Multiplicative factor virtual images                                   1
 DBCSR| Use multiplication densification                                       T
 DBCSR| Multiplication size stacks                                             3
 DBCSR| Use memory pool for CPU allocation                                     F
 DBCSR| Number of 3D layers                                               SINGLE
 DBCSR| Use MPI memory allocation                                              F
 DBCSR| Use RMA algorithm                                                      F
 DBCSR| Use Communication thread                                               T
 DBCSR| Communication thread load                                             87
 DBCSR| MPI: My node id                                                        0
 DBCSR| MPI: Number of nodes                                                  36
 DBCSR| OMP: Current number of threads                                         1
 DBCSR| OMP: Max number of threads                                             1
 DBCSR| Split modifier for TAS multiplication algorithm                  1.0E+00


  **** **** ******  **  PROGRAM STARTED AT               2022-06-07 16:34:24.865
 ***** ** ***  *** **   PROGRAM STARTED ON                               tcopt10
 **    ****   ******    PROGRAM STARTED BY                                hutter
 ***** **    ** ** **   PROGRAM PROCESS ID                                 69199
  **** **  *******  **  PROGRAM STARTED IN /data/hutter/GITHUB/BASIS/scMOLOPT/PB
                                           E/Cs

 CP2K| version string:                   CP2K version 10.0 (Development Version)
 CP2K| source code revision number:                                  git:d19b00a
 CP2K| cp2kflags: omp libint fftw3 libxc elpa parallel mpi3 scalapack cosma xsmm
 CP2K|             spglib sirius libvori libbqb
 CP2K| is freely available from                            https://www.cp2k.org/
 CP2K| Program compiled at                      Wed 18 May 2022 12:15:59 PM CEST
 CP2K| Program compiled on                                               tcopt10
 CP2K| Program compiled for                                                local
 CP2K| Data directory path                   /data/hutter/GITHUB/TDLRI/cp2k/data
 CP2K| Input file name                                               CsH-ref.inp

 GLOBAL| Force Environment number                                              1
 GLOBAL| Basis set file name                                        ../def2QZVPP
 GLOBAL| Potential file name                                        ../POTENTIAL
 GLOBAL| MM Potential file name                                     MM_POTENTIAL
 GLOBAL| Coordinate file name                                      __STD_INPUT__
 GLOBAL| Method name                                                        CP2K
 GLOBAL| Project name                                                     refCsH
 GLOBAL| Run type                                                         ENERGY
 GLOBAL| FFT library                                                       FFTW3
 GLOBAL| Diagonalization library                                            ELPA
 GLOBAL| Minimum number of eigenvectors for ELPA usage                        16
 GLOBAL| Orthonormality check for eigenvectors                          DISABLED
 GLOBAL| Matrix multiplication library                                     COSMA
 GLOBAL| All-to-all communication in single precision                          F
 GLOBAL| FFTs using library dependent lengths                                  F
 GLOBAL| Grid backend                                                       AUTO
 GLOBAL| Global print level                                                  LOW
 GLOBAL| MPI I/O enabled                                                       T
 GLOBAL| Total number of message passing processes                            36
 GLOBAL| Number of threads for this process                                    1
 GLOBAL| This output is from process                                           0
 GLOBAL| Stack size for threads created by OpenMP (OMP_STACKSIZE)        default
 GLOBAL| CPU model name                          AMD EPYC 7401 24-Core Processor
 GLOBAL| CPUID                                                              1002

 MEMORY| system memory details [Kb]
 MEMORY|                        rank 0           min           max       average
 MEMORY| MemTotal            263969132     263969132     263969132     263969132
 MEMORY| MemFree             237159004     237158752     237159004     237158759
 MEMORY| Buffers                  2836          2836          2836          2836
 MEMORY| Cached               20317392      20317324      20317392      20317359
 MEMORY| Slab                  1468724       1468716       1468724       1468720
 MEMORY| SReclaimable           876172        876172        876172        876172
 MEMORY| MemLikelyFree       258355404     258355084     258355404     258355126


 GENERATE|  Preliminary Number of Bonds generated:                             0
 GENERATE|  Achieved consistency in connectivity generation.

 *******************************************************************************
 *******************************************************************************
 **                                                                           **
 **     #####                         ##              ##                      **
 **    ##   ##            ##          ##              ##                      **
 **   ##     ##                       ##            ######                    **
 **   ##     ##  ##   ##  ##   #####  ##  ##   ####   ##    #####    #####    **
 **   ##     ##  ##   ##  ##  ##      ## ##   ##      ##   ##   ##  ##   ##   **
 **   ##  ## ##  ##   ##  ##  ##      ####     ###    ##   ######   ######    **
 **    ##  ###   ##   ##  ##  ##      ## ##      ##   ##   ##       ##        **
 **     #######   #####   ##   #####  ##  ##  ####    ##    #####   ##        **
 **           ##                                                    ##        **
 **                                                                           **
 **                                                ... make the atoms dance   **
 **                                                                           **
 **            Copyright (C) by CP2K developers group (2000-2022)             **
 **                      J. Chem. Phys. 152, 194103 (2020)                    **
 **                                                                           **
 *******************************************************************************


 TOTAL NUMBERS AND MAXIMUM NUMBERS

  Total number of            - Atomic kinds:                                   2
                             - Atoms:                                          2
                             - Shell sets:                                    28
                             - Shells:                                        28
                             - Primitive Cartesian functions:                 36
                             - Cartesian basis functions:                    110
                             - Spherical basis functions:                     92

  Maximum angular momentum of- Orbital basis functions:                        3
                             - Local part of the GTH pseudopotential:          2
                             - Non-local part of the GTH pseudopotential:      3


 SCF PARAMETERS         Density guess:                                    ATOMIC
                        --------------------------------------------------------
                        max_scf:                                              20
                        max_scf_history:                                       0
                        max_diis:                                              4
                        --------------------------------------------------------
                        eps_scf:                                        1.00E-07
                        eps_scf_history:                                0.00E+00
                        eps_diis:                                       1.00E-01
                        eps_eigval:                                     1.00E-05
                        --------------------------------------------------------
                        level_shift [a.u.]:                             0.000000
                        --------------------------------------------------------
                        Outer loop SCF in use 
                        No variables optimised in outer loop
                        eps_scf                                         1.00E-07
                        max_scf                                                5
                        No outer loop optimization
                        step_size                                       5.00E-01

 Number of electrons:                                                         10
 Number of occupied orbitals:                                                  5
 Number of molecular orbitals:                                                 5

 Number of orbital functions:                                                 92
 Number of independent orbital functions:                                     92

 Extrapolation method: initial_guess


 SCF WAVEFUNCTION OPTIMIZATION

  ----------------------------------- OT ---------------------------------------
  Minimizer      : DIIS                : direct inversion
                                         in the iterative subspace
                                         using   7 DIIS vectors
                                         safer DIIS on
  Preconditioner : FULL_ALL            : diagonalization, state selective
  Precond_solver : DEFAULT
  stepsize       :    0.10000000                  energy_gap     :    0.08000000
  eps_taylor     :   0.10000E-15                  max_taylor     :             4
  ----------------------------------- OT ---------------------------------------

  Step     Update method      Time    Convergence         Total energy    Change
  ------------------------------------------------------------------------------
     1 OT DIIS     0.10E+00    0.6     0.25895750       -19.6927254575 -1.97E+01
     2 OT DIIS     0.10E+00    0.8     0.18019546       -19.9363526596 -2.44E-01
     3 OT DIIS     0.10E+00    0.8     0.08730015       -20.4760202771 -5.40E-01
     4 OT DIIS     0.10E+00    0.8     0.08189097       -20.4917158535 -1.57E-02
     5 OT DIIS     0.10E+00    0.8     0.01690891       -20.6007309048 -1.09E-01
     6 OT DIIS     0.10E+00    0.8     0.01456561       -20.6050403192 -4.31E-03
     7 OT DIIS     0.10E+00    0.8     0.00625200       -20.6106554761 -5.62E-03
     8 OT DIIS     0.10E+00    0.8     0.00481203       -20.6118418584 -1.19E-03
     9 OT DIIS     0.10E+00    0.8     0.00374306       -20.6123736715 -5.32E-04
    10 OT DIIS     0.10E+00    0.8     0.00114906       -20.6126342062 -2.61E-04
    11 OT DIIS     0.10E+00    0.8     0.00030432       -20.6126783898 -4.42E-05
    12 OT DIIS     0.10E+00    0.8     0.00016041       -20.6126841176 -5.73E-06
    13 OT DIIS     0.10E+00    0.8     0.00006758       -20.6126856257 -1.51E-06
    14 OT DIIS     0.10E+00    0.8     0.00003403       -20.6126858703 -2.45E-07
    15 OT DIIS     0.10E+00    0.8     0.00001303       -20.6126859223 -5.20E-08
    16 OT DIIS     0.10E+00    0.8     0.00000587       -20.6126859317 -9.41E-09
    17 OT DIIS     0.10E+00    0.8     0.00000328       -20.6126859334 -1.76E-09
    18 OT DIIS     0.10E+00    0.8     0.00000114       -20.6126859339 -4.97E-10
    19 OT DIIS     0.10E+00    0.8     0.00000039       -20.6126859340 -7.85E-11
    20 OT DIIS     0.10E+00    0.8     0.00000016       -20.6126859340 -9.38E-12

  Leaving inner SCF loop after reaching    20 steps.


  Electronic density on regular grids:         -9.9539267148        0.0460732852
  Core density on regular grids:               10.0000000000       -0.0000000000
  Hard and soft densities (Lebedev):          -10.2426273383      -10.1965540458
  Total Rho_soft + Rho1_hard - Rho1_soft      -10.0000000073
  Total charge density (r-space):              -0.0000000073
  Total Rho_soft + Rho0_soft (g-space):        -0.0000000382

  Overlap energy of the core charge distribution:               0.00000000000000
  Self energy of the core charge distribution:                -43.76835633267614
  Core Hamiltonian energy:                                      8.39181139753390
  Hartree energy:                                              76.03952557939363
  Exchange-correlation energy:                                 -3.44640871566222

  GAPW| Exc from hard and soft atomic rho1:                    -0.01977590409742
  GAPW| local Eh = 1 center integrals:                        -57.80948195850756

  Total energy:                                               -20.61268593401581

  outer SCF iter =    1 RMS gradient =   0.16E-06 energy =        -20.6126859340

  ----------------------------------- OT ---------------------------------------
  Minimizer      : DIIS                : direct inversion
                                         in the iterative subspace
                                         using   7 DIIS vectors
                                         safer DIIS on
  Preconditioner : FULL_ALL            : diagonalization, state selective
  Precond_solver : DEFAULT
  stepsize       :    0.10000000                  energy_gap     :    0.08000000
  eps_taylor     :   0.10000E-15                  max_taylor     :             4
  ----------------------------------- OT ---------------------------------------

  Step     Update method      Time    Convergence         Total energy    Change
  ------------------------------------------------------------------------------
     1 OT DIIS     0.10E+00    1.7     0.00000010       -20.6126859340 -1.31E-12

  *** SCF run converged in     1 steps ***


  Electronic density on regular grids:         -9.9539267176        0.0460732824
  Core density on regular grids:               10.0000000000       -0.0000000000
  Hard and soft densities (Lebedev):          -10.2426280102      -10.1965547205
  Total Rho_soft + Rho1_hard - Rho1_soft      -10.0000000073
  Total charge density (r-space):              -0.0000000073
  Total Rho_soft + Rho0_soft (g-space):        -0.0000000382

  Overlap energy of the core charge distribution:               0.00000000000000
  Self energy of the core charge distribution:                -43.76835633267614
  Core Hamiltonian energy:                                      8.39181144638513
  Hartree energy:                                              76.03952557603861
  Exchange-correlation energy:                                 -3.44640875251136

  GAPW| Exc from hard and soft atomic rho1:                    -0.01977590298094
  GAPW| local Eh = 1 center integrals:                        -57.80948196827242

  Total energy:                                               -20.61268593401713

  outer SCF iter =    2 RMS gradient =   0.99E-07 energy =        -20.6126859340
  outer SCF loop converged in   2 iterations or   21 steps


 ENERGY| Total FORCE_EVAL ( QS ) energy [a.u.]:              -20.612685934017126

 -------------------------------------------------------------------------------
 -                                                                             -
 -                                DBCSR STATISTICS                             -
 -                                                                             -
 -------------------------------------------------------------------------------
 COUNTER                                    TOTAL       BLAS       SMM       ACC
 flops     5 x     5 x     5                43750       0.0%    100.0%      0.0%
 flops     5 x     5 x    30               129000       0.0%    100.0%      0.0%
 flops    30 x     5 x     5               160500       0.0%    100.0%      0.0%
 flops    30 x    30 x     5               198000       0.0%    100.0%      0.0%
 flops     5 x     5 x    62               266600       0.0%    100.0%      0.0%
 flops    62 x     5 x     5               331700       0.0%    100.0%      0.0%
 flops    30 x    62 x     5               409200       0.0%    100.0%      0.0%
 flops    62 x    62 x     5               845680       0.0%    100.0%      0.0%
 flops    30 x     5 x    30               918000       0.0%    100.0%      0.0%
 flops    62 x     5 x    30              1897200       0.0%    100.0%      0.0%
 flops    30 x     5 x    62              1897200       0.0%    100.0%      0.0%
 flops    62 x     5 x    62              3920880       0.0%    100.0%      0.0%
 flops inhomo. stacks                           0       0.0%      0.0%      0.0%
 flops total                        11.017710E+06       0.0%    100.0%      0.0%
 flops max/rank                      7.434810E+06       0.0%    100.0%      0.0%
 matmuls inhomo. stacks                         0       0.0%      0.0%      0.0%
 matmuls total                               1035       0.0%    100.0%      0.0%
 number of processed stacks                  1035       0.0%    100.0%      0.0%
 average stack size                                     0.0       1.0       0.0
 marketing flops                    11.436110E+06
 -------------------------------------------------------------------------------
 # multiplications                            494
 max memory usage/rank             330.280960E+06
 # max total images/rank                        1
 # max 3D layers                                1
 # MPI messages exchanged                  177840
 MPI messages size (bytes):
  total size                        42.810120E+06
  min size                           0.000000E+00
  max size                          30.752000E+03
  average size                     240.722672E+00
 MPI breakdown and total messages size (bytes):
             size <=      128              169265                        0
       128 < size <=     8192                7045                 11949000
      8192 < size <=    32768                1530                 30861120
     32768 < size <=   131072                   0                        0
    131072 < size <=  4194304                   0                        0
   4194304 < size <= 16777216                   0                        0
  16777216 < size                               0                        0
 -------------------------------------------------------------------------------
 -                                                                             -
 -                      DBCSR MESSAGE PASSING PERFORMANCE                      -
 -                                                                             -
 -------------------------------------------------------------------------------
 ROUTINE             CALLS      AVE VOLUME [Bytes]
 MP_Bcast               13                     12.
 MP_Allreduce         2646                      8.
 MP_Alltoall          1986                   2449.
 MP_ISend            11848                    574.
 MP_IRecv            11848                    211.
 -------------------------------------------------------------------------------

 -------------------------------------------------------------------------------
 -                                                                             -
 -                                GRID STATISTICS                              -
 -                                                                             -
 -------------------------------------------------------------------------------
 LP    KERNEL             BACKEND                              COUNT     PERCENT
 2     collocate ortho    REF                                  59026      14.57%
 2     integrate ortho    REF                                  56343      13.90%
 3     collocate ortho    REF                                  43824      10.82%
 1     collocate ortho    REF                                  43780      10.80%
 3     integrate ortho    REF                                  41832      10.32%
 1     integrate ortho    REF                                  41790      10.31%
 4     collocate ortho    REF                                  25652       6.33%
 4     integrate ortho    REF                                  24486       6.04%
 0     collocate ortho    REF                                  23650       5.84%
 0     integrate ortho    REF                                  22575       5.57%
 5     collocate ortho    REF                                   8866       2.19%
 5     integrate ortho    REF                                   8463       2.09%
 2     collocate general  REF                                   1512       0.37%
 2     integrate general  REF                                   1512       0.37%
 6     collocate ortho    REF                                    968       0.24%
 6     integrate ortho    REF                                    924       0.23%
 -------------------------------------------------------------------------------

 MEMORY| Estimated peak process memory [MiB]                                 315

 -------------------------------------------------------------------------------
 -                                                                             -
 -                         MESSAGE PASSING PERFORMANCE                         -
 -                                                                             -
 -------------------------------------------------------------------------------

 ROUTINE             CALLS      AVE VOLUME [Bytes]
 MP_Group                4
 MP_Bcast              346                 809478.
 MP_Allreduce         1215                  20501.
 MP_Sync                56
 MP_Alltoall           438                6394693.
 MP_ISendRecv         4515                 115968.
 MP_Wait              8680
 MP_comm_split          26
 MP_ISend             3740                 367724.
 MP_IRecv             3740                 367724.
 MP_Recv                 8                    736.
 -------------------------------------------------------------------------------


 -------------------------------------------------------------------------------
 -                                                                             -
 -                           R E F E R E N C E S                               -
 -                                                                             -
 -------------------------------------------------------------------------------
 
 CP2K version 10.0 (Development Version), the CP2K developers group (2022).
 CP2K is freely available from https://www.cp2k.org/ .

 Kuehne,Thomas D.; Iannuzzi,Marcella; Del Ben,Mauro;
 Rybkin,Vladimir V.; Seewald,Patrick; Stein,Frederick; Laino,Teodoro;
 Khaliullin,Rustam Z.; Schuett,Ole; Schiffmann,Florian; Golze,Dorothea;
 Wilhelm,Jan; Chulkov,Sergey; Bani-Hashemian,Mohammad Hossein;
 Weber,Valery; Borstnik,Urban; Taillefumier,Mathieu;
 Jakobovits,Alice Shoshana; Lazzaro,Alfio; Pabst,Hans; Mueller,Tiziano;
 Schade,Robert; Guidon,Manuel; Andermatt,Samuel; Holmberg,Nico;
 Schenter,Gregory K.; Hehn,Anna; Bussy,Augustin; Belleflamme,Fabian;
 Tabacchi,Gloria; Gloess,Andreas; Lass,Michael; Bethune,Iain;
 Mundy,Christopher J.; Plessl,Christian; Watkins,Matt;
 VandeVondele,Joost; Krack,Matthias; Hutter,Juerg. 
 The Journal of Chemical Physics, 152 (19), (2020). 
 CP2K: An electronic structure and molecular dynamics software package -
 Quickstep: Efficient and accurate electronic structure calculations.
 https://doi.org/10.1063/5.0007045

 Schuett, Ole; Messmer, Peter; Hutter, Juerg; VandeVondele, Joost. 
 Electronic Structure Calculations on Graphics Processing Units, John
 Wiley & Sons, Ltd, 173-190 (2016). 
 GPU-Accelerated Sparse Matrix-Matrix Multiplication for
 Linear Scaling Density Functional Theory.
 https://doi.org/10.1002/9781118670712.ch8

 Heinecke, A; Henry, G; Hutchinson, M; Pabst, H. 
 Proceedings of Intl. Supercomputing Conference, 981-991 (2016). 
 LIBXSMM: Accelerating Small Matrix Multiplications
 by Runtime Code Generation.
 https://doi.org/10.1109/SC.2016.83

 Borstnik, U; VandeVondele, J; Weber, V; Hutter, J. 
 PARALLEL COMPUTING, 40 (5-6), 47-58 (2014). 
 Sparse matrix multiplication: The distributed block-compressed sparse
 row library.
 https://doi.org/10.1016/j.parco.2014.03.012

 Hutter, J; Iannuzzi, M; Schiffmann, F; VandeVondele, J. 
 WIREs Comput Mol Sci., 4 (1), 15-25 (2014). 
 CP2K: atomistic simulations of condensed matter systems.
 https://doi.org/10.1002/wcms.1159

 Marek, A; Blum, V; Johanni, R; Havu, V; Lang, B; Auckenthaler, T;
 Heinecke, A; Bungartz, H; Lederer, H. 
 Journal of Physics: Condensed Matter, 26 (21), (2014). 
 The ELPA library: scalable parallel eigenvalue solutions for
 electronic structure
 theory and computational science.
 https://doi.org/10.1088/0953-8984/26/21/213201

 Krack, M. 
 THEORETICAL CHEMISTRY ACCOUNTS, 114 (1-3), 145-152 (2005). 
 Pseudopotentials for H to Kr optimized for gradient-corrected
 exchange-correlation functionals.
 https://doi.org/10.1007/s00214-005-0655-y

 Frigo, M; Johnson, SG. 
 PROCEEDINGS OF THE IEEE, 93 (2), 216-231 (2005). 
 The design and implementation of FFTW3.
 https://doi.org/10.1109/JPROC.2004.840301

 VandeVondele, J; Hutter, J. 
 JOURNAL OF CHEMICAL PHYSICS, 118 (10), 4365-4369 (2003). 
 An efficient orbital transformation method for electronic structure
 calculations.
 https://doi.org/10.1063/1.1543154

 Lippert, G; Hutter, J; Parrinello, M. 
 THEORETICAL CHEMISTRY ACCOUNTS, 103 (2), 124-140 (1999). 
 The Gaussian and augmented-plane-wave density functional method for ab
 initio molecular dynamics simulations.
 https://doi.org/10.1007/s002140050523

 Krack, M; Parrinello, M. 
 PHYSICAL CHEMISTRY CHEMICAL PHYSICS, 2 (10), 2105-2112 (2000). 
 All-electron ab-initio molecular dynamics.
 https://doi.org/10.1039/b001167n

 Hartwigsen, C; Goedecker, S; Hutter, J. 
 PHYSICAL REVIEW B, 58 (7), 3641-3662 (1998). 
 Relativistic separable dual-space Gaussian pseudopotentials from H to Rn.
 https://doi.org/10.1103/PhysRevB.58.3641

 Perdew, JP; Burke, K; Ernzerhof, M. 
 PHYSICAL REVIEW LETTERS, 77 (18), 3865-3868 (1996). 
 Generalized gradient approximation made simple.
 https://doi.org/10.1103/PhysRevLett.77.3865

 Goedecker, S; Teter, M; Hutter, J. 
 PHYSICAL REVIEW B, 54 (3), 1703-1710 (1996). 
 Separable dual-space Gaussian pseudopotentials.
 https://doi.org/10.1103/PhysRevB.54.1703


 -------------------------------------------------------------------------------
 -                                                                             -
 -                                T I M I N G                                  -
 -                                                                             -
 -------------------------------------------------------------------------------
 SUBROUTINE                       CALLS  ASD         SELF TIME        TOTAL TIME
                                MAXIMUM       AVERAGE  MAXIMUM  AVERAGE  MAXIMUM
 CP2K                                 1  1.0    0.011    0.026   17.356   17.361
 qs_energies                          1  2.0    0.000    0.000   17.184   17.189
 scf_env_do_scf                       1  3.0    0.000    0.000   16.518   16.522
 scf_env_do_scf_inner_loop           21  4.0    0.000    0.001   15.352   15.356
 qs_ks_update_qs_env                 23  5.0    0.000    0.000   12.126   12.128
 rebuild_ks_matrix                   21  6.0    0.000    0.000   12.124   12.126
 qs_ks_build_kohn_sham_matrix        21  7.0    0.004    0.005   12.124   12.126
 pw_transfer                        446 10.1    0.048    0.058    5.152    5.266
 fft_wrap_pw1pw2                    383 11.2    0.005    0.006    5.056    5.186
 fft_wrap_pw1pw2_300                254 12.6    0.333    0.380    4.676    4.836
 qs_vxc_create                       21  8.0    0.001    0.001    4.389    4.390
 xc_vxc_pw_create                    21  9.0    0.036    0.045    4.389    4.390
 rs_pw_transfer                     214  9.5    0.005    0.007    4.105    4.258
 qs_rho_update_rho                   22  5.0    0.000    0.001    4.141    4.142
 fft3d_ps                           383 13.2    1.962    2.439    3.869    4.054
 calculate_rho_elec                  22  6.0    0.016    0.016    3.645    3.646
 sum_up_and_integrate                21  8.0    0.011    0.015    3.109    3.115
 integrate_v_rspace                  21  9.0    0.001    0.001    3.098    3.100
 xc_pw_derive                       126 11.0    0.001    0.002    2.613    2.658
 density_rs2pw                       22  7.0    0.001    0.001    2.229    2.433
 xc_rho_set_and_dset_create          21 10.0    0.033    0.045    2.363    2.406
 mp_alltoall_z22v                   383 15.2    1.509    1.963    1.509    1.963
 xc_pw_divergence                    21 10.0    0.001    0.001    1.896    1.929
 rs_pw_transfer_RS2PW_300            43 10.0    0.914    1.127    1.644    1.868
 potential_pw2rs                     21 10.0    0.002    0.003    1.827    1.830
 prepare_gapw_den                    21  8.0    0.000    0.001    1.728    1.760
 rs_pw_transfer_PW2RS_300            42 11.0    0.918    1.102    1.675    1.755
 mp_waitany                        3740 11.5    1.158    1.607    1.158    1.607
 grid_collocate_task_list            22  7.0    1.277    1.384    1.277    1.384
 put_rho0_on_grid                    21  9.0    0.017    0.019    1.317    1.349
 yz_to_x                            193 13.8    0.186    0.243    1.023    1.287
 grid_integrate_task_list            21 10.0    1.236    1.263    1.236    1.263
 integrate_vhg0_rspace               21  8.0    0.029    0.037    1.171    1.180
 init_scf_loop                        2  4.0    0.000    0.000    1.165    1.165
 xc_functional_eval                 105 10.9    0.000    0.000    1.089    1.149
 pbe_lda_eval                       105 11.9    1.088    1.149    1.088    1.149
 x_to_yz                            190 14.7    0.197    0.226    0.869    1.005
 mp_sum_d                           994  6.0    0.898    0.986    0.898    0.986
 dbcsr_multiply_generic             494 10.1    0.012    0.013    0.789    0.803
 mp_waitall_1                     36556 13.9    0.571    0.750    0.571    0.750
 mp_sum_dm                          130  7.6    0.583    0.679    0.583    0.679
 pw_gather_p                        193 12.8    0.437    0.544    0.437    0.544
 calculate_vxc_atom                  21  8.0    0.008    0.086    0.539    0.539
 calculate_rho_atom_coeff            22  6.0    0.018    0.481    0.496    0.496
 mp_sum_l                          2705 10.0    0.473    0.492    0.473    0.492
 update_ks_atom                      21  8.0    0.014    0.449    0.032    0.470
 qs_energies_init_hamiltonians        1  3.0    0.000    0.000    0.461    0.462
 qs_env_update_s_mstruct              1  4.0    0.000    0.000    0.442    0.461
 qs_create_task_list                  1  5.0    0.000    0.000    0.441    0.461
 generate_qs_task_list                1  6.0    0.000    0.009    0.441    0.461
 distribute_tasks                     1  7.0    0.000    0.000    0.441    0.461
 rs_grid_zero                        84 10.8    0.386    0.460    0.386    0.460
 get_current_loads                   10  8.8    0.000    0.000    0.440    0.459
 mp_alltoall_l                       11  9.7    0.440    0.459    0.440    0.459
 load_balance_distributed             1  8.0    0.000    0.000    0.440    0.459
 compute_load_list                    2  9.0    0.000    0.000    0.439    0.459
 rs_pw_transfer_PW2RS_100            21 12.0    0.081    0.098    0.360    0.451
 pw_scatter_p                       190 13.7    0.399    0.450    0.399    0.450
 build_core_hamiltonian_matrix        1  4.0    0.000    0.000    0.019    0.450
 qs_scf_new_mos                      21  5.0    0.000    0.000    0.391    0.393
 qs_scf_loop_do_ot                   21  6.0    0.000    0.000    0.391    0.392
 gaVxcgb_GC                          42  9.0    0.011    0.383    0.011    0.383
 ot_scf_mini                         21  7.0    0.000    0.000    0.376    0.377
 calculate_rho_atom                  42  9.0    0.141    0.374    0.141    0.374
 fft_wrap_pw1pw2_100                 43 11.5    0.010    0.011    0.293    0.349
 -------------------------------------------------------------------------------

 The number of warnings for this run is : 0
 
 -------------------------------------------------------------------------------
  **** **** ******  **  PROGRAM ENDED AT                 2022-06-07 16:34:42.581
 ***** ** ***  *** **   PROGRAM RAN ON                                   tcopt10
 **    ****   ******    PROGRAM RAN BY                                    hutter
 ***** **    ** ** **   PROGRAM PROCESS ID                                 69199
  **** **  *******  **  PROGRAM STOPPED IN /data/hutter/GITHUB/BASIS/scMOLOPT/PB
                                           E/Cs
