 DBCSR| CPU Multiplication driver                                           XSMM
 DBCSR| Multrec recursion limit                                              512
 DBCSR| Multiplication stack size                                           1000
 DBCSR| Maximum elements for images                                    UNLIMITED
 DBCSR| Multiplicative factor virtual images                                   1
 DBCSR| Use multiplication densification                                       T
 DBCSR| Multiplication size stacks                                             3
 DBCSR| Use memory pool for CPU allocation                                     F
 DBCSR| Number of 3D layers                                               SINGLE
 DBCSR| Use MPI memory allocation                                              F
 DBCSR| Use RMA algorithm                                                      F
 DBCSR| Use Communication thread                                               T
 DBCSR| Communication thread load                                             87
 DBCSR| MPI: My node id                                                        0
 DBCSR| MPI: Number of nodes                                                  36
 DBCSR| OMP: Current number of threads                                         1
 DBCSR| OMP: Max number of threads                                             1
 DBCSR| Split modifier for TAS multiplication algorithm                  1.0E+00


  **** **** ******  **  PROGRAM STARTED AT               2022-06-07 16:39:56.617
 ***** ** ***  *** **   PROGRAM STARTED ON                               tcopt10
 **    ****   ******    PROGRAM STARTED BY                                hutter
 ***** **    ** ** **   PROGRAM PROCESS ID                                 70186
  **** **  *******  **  PROGRAM STARTED IN /data/hutter/GITHUB/BASIS/scMOLOPT/PB
                                           E/Cs

 CP2K| version string:                   CP2K version 10.0 (Development Version)
 CP2K| source code revision number:                                  git:d19b00a
 CP2K| cp2kflags: omp libint fftw3 libxc elpa parallel mpi3 scalapack cosma xsmm
 CP2K|             spglib sirius libvori libbqb
 CP2K| is freely available from                            https://www.cp2k.org/
 CP2K| Program compiled at                      Wed 18 May 2022 12:15:59 PM CEST
 CP2K| Program compiled on                                               tcopt10
 CP2K| Program compiled for                                                local
 CP2K| Data directory path                   /data/hutter/GITHUB/TDLRI/cp2k/data
 CP2K| Input file name                                               CsO-ref.inp

 GLOBAL| Force Environment number                                              1
 GLOBAL| Basis set file name                                        ../def2QZVPP
 GLOBAL| Potential file name                                        ../POTENTIAL
 GLOBAL| MM Potential file name                                     MM_POTENTIAL
 GLOBAL| Coordinate file name                                      __STD_INPUT__
 GLOBAL| Method name                                                        CP2K
 GLOBAL| Project name                                                     refCsO
 GLOBAL| Run type                                                         ENERGY
 GLOBAL| FFT library                                                       FFTW3
 GLOBAL| Diagonalization library                                            ELPA
 GLOBAL| Minimum number of eigenvectors for ELPA usage                        16
 GLOBAL| Orthonormality check for eigenvectors                          DISABLED
 GLOBAL| Matrix multiplication library                                     COSMA
 GLOBAL| All-to-all communication in single precision                          F
 GLOBAL| FFTs using library dependent lengths                                  F
 GLOBAL| Grid backend                                                       AUTO
 GLOBAL| Global print level                                                  LOW
 GLOBAL| MPI I/O enabled                                                       T
 GLOBAL| Total number of message passing processes                            36
 GLOBAL| Number of threads for this process                                    1
 GLOBAL| This output is from process                                           0
 GLOBAL| Stack size for threads created by OpenMP (OMP_STACKSIZE)        default
 GLOBAL| CPU model name                          AMD EPYC 7401 24-Core Processor
 GLOBAL| CPUID                                                              1002

 MEMORY| system memory details [Kb]
 MEMORY|                        rank 0           min           max       average
 MEMORY| MemTotal            263969132     263969132     263969132     263969132
 MEMORY| MemFree             237108512     237108512     237108512     237108512
 MEMORY| Buffers                  2836          2836          2836          2836
 MEMORY| Cached               20318188      20318188      20318188      20318188
 MEMORY| Slab                  1473160       1473160       1473160       1473160
 MEMORY| SReclaimable           875916        875916        875916        875916
 MEMORY| MemLikelyFree       258305452     258305452     258305452     258305452


 GENERATE|  Preliminary Number of Bonds generated:                             0
 GENERATE|  Achieved consistency in connectivity generation.

 *******************************************************************************
 *******************************************************************************
 **                                                                           **
 **     #####                         ##              ##                      **
 **    ##   ##            ##          ##              ##                      **
 **   ##     ##                       ##            ######                    **
 **   ##     ##  ##   ##  ##   #####  ##  ##   ####   ##    #####    #####    **
 **   ##     ##  ##   ##  ##  ##      ## ##   ##      ##   ##   ##  ##   ##   **
 **   ##  ## ##  ##   ##  ##  ##      ####     ###    ##   ######   ######    **
 **    ##  ###   ##   ##  ##  ##      ## ##      ##   ##   ##       ##        **
 **     #######   #####   ##   #####  ##  ##  ####    ##    #####   ##        **
 **           ##                                                    ##        **
 **                                                                           **
 **                                                ... make the atoms dance   **
 **                                                                           **
 **            Copyright (C) by CP2K developers group (2000-2022)             **
 **                      J. Chem. Phys. 152, 194103 (2020)                    **
 **                                                                           **
 *******************************************************************************


 TOTAL NUMBERS AND MAXIMUM NUMBERS

  Total number of            - Atomic kinds:                                   2
                             - Atoms:                                          2
                             - Shell sets:                                    35
                             - Shells:                                        35
                             - Primitive Cartesian functions:                 52
                             - Cartesian basis functions:                    147
                             - Spherical basis functions:                    119

  Maximum angular momentum of- Orbital basis functions:                        4
                             - Local part of the GTH pseudopotential:          2
                             - Non-local part of the GTH pseudopotential:      3


 SCF PARAMETERS         Density guess:                                   RESTART
                        --------------------------------------------------------
                        max_scf:                                              20
                        max_scf_history:                                       0
                        max_diis:                                              4
                        --------------------------------------------------------
                        eps_scf:                                        5.00E-07
                        eps_scf_history:                                0.00E+00
                        eps_diis:                                       1.00E-01
                        eps_eigval:                                     1.00E-05
                        --------------------------------------------------------
                        level_shift [a.u.]:                             0.000000
                        --------------------------------------------------------
                        Outer loop SCF in use 
                        No variables optimised in outer loop
                        eps_scf                                         5.00E-07
                        max_scf                                                5
                        No outer loop optimization
                        step_size                                       5.00E-01

 Spin 1

 Number of electrons:                                                          9
 Number of occupied orbitals:                                                  9
 Number of molecular orbitals:                                                 9

 Spin 2

 Number of electrons:                                                          8
 Number of occupied orbitals:                                                  8
 Number of molecular orbitals:                                                 8

 Number of orbital functions:                                                119
 Number of independent orbital functions:                                    119

 Extrapolation method: initial_guess


 SCF WAVEFUNCTION OPTIMIZATION

  ----------------------------------- OT ---------------------------------------
  Minimizer      : DIIS                : direct inversion
                                         in the iterative subspace
                                         using   7 DIIS vectors
                                         safer DIIS on
  Preconditioner : FULL_ALL            : diagonalization, state selective
  Precond_solver : DEFAULT
  stepsize       :    0.10000000                  energy_gap     :    0.08000000
  eps_taylor     :   0.10000E-15                  max_taylor     :             4
  ----------------------------------- OT ---------------------------------------

  Step     Update method      Time    Convergence         Total energy    Change
  ------------------------------------------------------------------------------
     1 OT DIIS     0.10E+00    1.2     0.00000228       -95.1788090599 -9.52E+01
     2 OT DIIS     0.10E+00    1.6     0.00000167       -95.1788090608 -8.93E-10
     3 OT DIIS     0.10E+00    1.6     0.00000095       -95.1788090618 -9.46E-10
     4 OT DIIS     0.10E+00    1.6     0.00000031       -95.1788090622 -4.56E-10

  *** SCF run converged in     4 steps ***


  Electronic density on regular grids:        -14.7180247755        2.2819752245
  Core density on regular grids:               17.0000000000        0.0000000000
  Hard and soft densities (Lebedev):          -17.2259859562      -14.9440104697
  Total Rho_soft + Rho1_hard - Rho1_soft      -17.0000002620
  Total charge density (r-space):              -0.0000002620
  Total Rho_soft + Rho0_soft (g-space):        -0.0000003968

  Overlap energy of the core charge distribution:               0.00000000000000
  Self energy of the core charge distribution:               -115.26800260167529
  Core Hamiltonian energy:                                      1.36919284604542
  Hartree energy:                                              68.84100686441072
  Exchange-correlation energy:                                 -6.33229437947726

  GAPW| Exc from hard and soft atomic rho1:                    -5.29033022678792
  GAPW| local Eh = 1 center integrals:                        -38.49838156475940

  Total energy:                                               -95.17880906224373

  outer SCF iter =    1 RMS gradient =   0.31E-06 energy =        -95.1788090622
  outer SCF loop converged in   1 iterations or    4 steps


  Integrated absolute spin density  :                               0.9600035702
  Ideal and single determinant S**2 :                    0.750000       0.756193

 ENERGY| Total FORCE_EVAL ( QS ) energy [a.u.]:              -95.178809062243729

 -------------------------------------------------------------------------------
 -                                                                             -
 -                                DBCSR STATISTICS                             -
 -                                                                             -
 -------------------------------------------------------------------------------
 COUNTER                                    TOTAL       BLAS       SMM       ACC
 flops     8 x     8 x     8                 4096       0.0%    100.0%      0.0%
 flops     9 x     9 x     9                 5832       0.0%    100.0%      0.0%
 flops     8 x     8 x    57               124032       0.0%    100.0%      0.0%
 flops     8 x     8 x    62               134912       0.0%    100.0%      0.0%
 flops    57 x     8 x     8               153216       0.0%    100.0%      0.0%
 flops     9 x     9 x    57               156978       0.0%    100.0%      0.0%
 flops    62 x     8 x     8               166656       0.0%    100.0%      0.0%
 flops     9 x     9 x    62               170748       0.0%    100.0%      0.0%
 flops    57 x     9 x     9               193914       0.0%    100.0%      0.0%
 flops    62 x     9 x     9               210924       0.0%    100.0%      0.0%
 flops    57 x    57 x     8               259920       0.0%    100.0%      0.0%
 flops    62 x    57 x     8               282720       0.0%    100.0%      0.0%
 flops    57 x    57 x     9               292410       0.0%    100.0%      0.0%
 flops    62 x    62 x     8               307520       0.0%    100.0%      0.0%
 flops    62 x    57 x     9               318060       0.0%    100.0%      0.0%
 flops    62 x    62 x     9               345960       0.0%    100.0%      0.0%
 flops    57 x     8 x    57              1299600       0.0%    100.0%      0.0%
 flops    57 x     9 x    57              1403568       0.0%    100.0%      0.0%
 flops    62 x     8 x    57              1413600       0.0%    100.0%      0.0%
 flops    57 x     8 x    62              1413600       0.0%    100.0%      0.0%
 flops    62 x     9 x    57              1526688       0.0%    100.0%      0.0%
 flops    57 x     9 x    62              1526688       0.0%    100.0%      0.0%
 flops    62 x     8 x    62              1537600       0.0%    100.0%      0.0%
 flops    62 x     9 x    62              1660608       0.0%    100.0%      0.0%
 flops inhomo. stacks                           0       0.0%      0.0%      0.0%
 flops total                        14.909850E+06       0.0%    100.0%      0.0%
 flops max/rank                      7.766154E+06       0.0%    100.0%      0.0%
 matmuls inhomo. stacks                         0       0.0%      0.0%      0.0%
 matmuls total                                386       0.0%    100.0%      0.0%
 number of processed stacks                   386       0.0%    100.0%      0.0%
 average stack size                                     0.0       1.0       0.0
 marketing flops                    15.545150E+06
 -------------------------------------------------------------------------------
 # multiplications                            145
 max memory usage/rank             371.576832E+06
 # max total images/rank                        1
 # max 3D layers                                1
 # MPI messages exchanged                   52200
 MPI messages size (bytes):
  total size                        35.163720E+06
  min size                           0.000000E+00
  max size                          30.752000E+03
  average size                     673.634460E+00
 MPI breakdown and total messages size (bytes):
             size <=      128               49140                        0
       128 < size <=     8192                2080                  7408160
      8192 < size <=    32768                 980                 27755560
     32768 < size <=   131072                   0                        0
    131072 < size <=  4194304                   0                        0
   4194304 < size <= 16777216                   0                        0
  16777216 < size                               0                        0
 -------------------------------------------------------------------------------
 -                                                                             -
 -                      DBCSR MESSAGE PASSING PERFORMANCE                      -
 -                                                                             -
 -------------------------------------------------------------------------------
 ROUTINE             CALLS      AVE VOLUME [Bytes]
 MP_Bcast               25                     12.
 MP_Allreduce          800                      9.
 MP_Alltoall           873                   3694.
 MP_ISend             3472                   1247.
 MP_IRecv             3472                    585.
 -------------------------------------------------------------------------------

 -------------------------------------------------------------------------------
 -                                                                             -
 -                                GRID STATISTICS                              -
 -                                                                             -
 -------------------------------------------------------------------------------
 LP    KERNEL             BACKEND                              COUNT     PERCENT
 2     collocate ortho    REF                                  27130      15.42%
 2     integrate ortho    REF                                  21704      12.33%
 3     collocate ortho    REF                                  21370      12.14%
 1     collocate ortho    REF                                  19910      11.31%
 3     integrate ortho    REF                                  17096       9.71%
 1     integrate ortho    REF                                  15928       9.05%
 4     collocate ortho    REF                                  13140       7.47%
 4     integrate ortho    REF                                  10512       5.97%
 0     collocate ortho    REF                                   9910       5.63%
 0     integrate ortho    REF                                   7928       4.50%
 5     collocate ortho    REF                                   5000       2.84%
 5     integrate ortho    REF                                   4000       2.27%
 6     collocate ortho    REF                                    900       0.51%
 6     integrate ortho    REF                                    720       0.41%
 2     collocate general  REF                                    288       0.16%
 2     integrate general  REF                                    288       0.16%
 7     collocate ortho    REF                                     80       0.05%
 7     integrate ortho    REF                                     64       0.04%
 8     collocate ortho    REF                                     10       0.01%
 8     integrate ortho    REF                                      8       0.00%
 -------------------------------------------------------------------------------

 MEMORY| Estimated peak process memory [MiB]                                 355

 -------------------------------------------------------------------------------
 -                                                                             -
 -                         MESSAGE PASSING PERFORMANCE                         -
 -                                                                             -
 -------------------------------------------------------------------------------

 ROUTINE             CALLS      AVE VOLUME [Bytes]
 MP_Group                4
 MP_Bcast              166                1681966.
 MP_Allreduce          600                  19312.
 MP_Sync                16
 MP_Alltoall           176                5818272.
 MP_ISendRecv         1890                 115968.
 MP_Wait              3164
 MP_comm_split           6
 MP_ISend             1144                 367724.
 MP_IRecv             1144                 367724.
 MP_Recv                 7                   1904.
 -------------------------------------------------------------------------------


 -------------------------------------------------------------------------------
 -                                                                             -
 -                           R E F E R E N C E S                               -
 -                                                                             -
 -------------------------------------------------------------------------------
 
 CP2K version 10.0 (Development Version), the CP2K developers group (2022).
 CP2K is freely available from https://www.cp2k.org/ .

 Kuehne,Thomas D.; Iannuzzi,Marcella; Del Ben,Mauro;
 Rybkin,Vladimir V.; Seewald,Patrick; Stein,Frederick; Laino,Teodoro;
 Khaliullin,Rustam Z.; Schuett,Ole; Schiffmann,Florian; Golze,Dorothea;
 Wilhelm,Jan; Chulkov,Sergey; Bani-Hashemian,Mohammad Hossein;
 Weber,Valery; Borstnik,Urban; Taillefumier,Mathieu;
 Jakobovits,Alice Shoshana; Lazzaro,Alfio; Pabst,Hans; Mueller,Tiziano;
 Schade,Robert; Guidon,Manuel; Andermatt,Samuel; Holmberg,Nico;
 Schenter,Gregory K.; Hehn,Anna; Bussy,Augustin; Belleflamme,Fabian;
 Tabacchi,Gloria; Gloess,Andreas; Lass,Michael; Bethune,Iain;
 Mundy,Christopher J.; Plessl,Christian; Watkins,Matt;
 VandeVondele,Joost; Krack,Matthias; Hutter,Juerg. 
 The Journal of Chemical Physics, 152 (19), (2020). 
 CP2K: An electronic structure and molecular dynamics software package -
 Quickstep: Efficient and accurate electronic structure calculations.
 https://doi.org/10.1063/5.0007045

 Schuett, Ole; Messmer, Peter; Hutter, Juerg; VandeVondele, Joost. 
 Electronic Structure Calculations on Graphics Processing Units, John
 Wiley & Sons, Ltd, 173-190 (2016). 
 GPU-Accelerated Sparse Matrix-Matrix Multiplication for
 Linear Scaling Density Functional Theory.
 https://doi.org/10.1002/9781118670712.ch8

 Heinecke, A; Henry, G; Hutchinson, M; Pabst, H. 
 Proceedings of Intl. Supercomputing Conference, 981-991 (2016). 
 LIBXSMM: Accelerating Small Matrix Multiplications
 by Runtime Code Generation.
 https://doi.org/10.1109/SC.2016.83

 Borstnik, U; VandeVondele, J; Weber, V; Hutter, J. 
 PARALLEL COMPUTING, 40 (5-6), 47-58 (2014). 
 Sparse matrix multiplication: The distributed block-compressed sparse
 row library.
 https://doi.org/10.1016/j.parco.2014.03.012

 Hutter, J; Iannuzzi, M; Schiffmann, F; VandeVondele, J. 
 WIREs Comput Mol Sci., 4 (1), 15-25 (2014). 
 CP2K: atomistic simulations of condensed matter systems.
 https://doi.org/10.1002/wcms.1159

 Marek, A; Blum, V; Johanni, R; Havu, V; Lang, B; Auckenthaler, T;
 Heinecke, A; Bungartz, H; Lederer, H. 
 Journal of Physics: Condensed Matter, 26 (21), (2014). 
 The ELPA library: scalable parallel eigenvalue solutions for
 electronic structure
 theory and computational science.
 https://doi.org/10.1088/0953-8984/26/21/213201

 Krack, M. 
 THEORETICAL CHEMISTRY ACCOUNTS, 114 (1-3), 145-152 (2005). 
 Pseudopotentials for H to Kr optimized for gradient-corrected
 exchange-correlation functionals.
 https://doi.org/10.1007/s00214-005-0655-y

 Frigo, M; Johnson, SG. 
 PROCEEDINGS OF THE IEEE, 93 (2), 216-231 (2005). 
 The design and implementation of FFTW3.
 https://doi.org/10.1109/JPROC.2004.840301

 VandeVondele, J; Hutter, J. 
 JOURNAL OF CHEMICAL PHYSICS, 118 (10), 4365-4369 (2003). 
 An efficient orbital transformation method for electronic structure
 calculations.
 https://doi.org/10.1063/1.1543154

 Lippert, G; Hutter, J; Parrinello, M. 
 THEORETICAL CHEMISTRY ACCOUNTS, 103 (2), 124-140 (1999). 
 The Gaussian and augmented-plane-wave density functional method for ab
 initio molecular dynamics simulations.
 https://doi.org/10.1007/s002140050523

 Krack, M; Parrinello, M. 
 PHYSICAL CHEMISTRY CHEMICAL PHYSICS, 2 (10), 2105-2112 (2000). 
 All-electron ab-initio molecular dynamics.
 https://doi.org/10.1039/b001167n

 Hartwigsen, C; Goedecker, S; Hutter, J. 
 PHYSICAL REVIEW B, 58 (7), 3641-3662 (1998). 
 Relativistic separable dual-space Gaussian pseudopotentials from H to Rn.
 https://doi.org/10.1103/PhysRevB.58.3641

 Perdew, JP; Burke, K; Ernzerhof, M. 
 PHYSICAL REVIEW LETTERS, 77 (18), 3865-3868 (1996). 
 Generalized gradient approximation made simple.
 https://doi.org/10.1103/PhysRevLett.77.3865

 Goedecker, S; Teter, M; Hutter, J. 
 PHYSICAL REVIEW B, 54 (3), 1703-1710 (1996). 
 Separable dual-space Gaussian pseudopotentials.
 https://doi.org/10.1103/PhysRevB.54.1703


 -------------------------------------------------------------------------------
 -                                                                             -
 -                                T I M I N G                                  -
 -                                                                             -
 -------------------------------------------------------------------------------
 SUBROUTINE                       CALLS  ASD         SELF TIME        TOTAL TIME
                                MAXIMUM       AVERAGE  MAXIMUM  AVERAGE  MAXIMUM
 CP2K                                 1  1.0    0.010    0.035    7.590    7.591
 qs_energies                          1  2.0    0.000    0.000    7.359    7.359
 scf_env_do_scf                       1  3.0    0.000    0.000    6.425    6.425
 scf_env_do_scf_inner_loop            4  4.0    0.000    0.000    5.253    5.253
 qs_ks_update_qs_env                  5  5.0    0.000    0.000    4.631    4.631
 rebuild_ks_matrix                    4  6.0    0.000    0.000    4.630    4.630
 qs_ks_build_kohn_sham_matrix         4  7.0    0.001    0.001    4.630    4.630
 qs_rho_update_rho                    5  5.0    0.000    0.000    2.049    2.049
 pw_transfer                        158 10.1    0.016    0.020    1.894    1.936
 fft_wrap_pw1pw2                    146 11.2    0.002    0.003    1.869    1.913
 fft_wrap_pw1pw2_300                 92 12.7    0.130    0.144    1.732    1.770
 calculate_rho_elec                  10  6.0    0.007    0.007    1.699    1.699
 qs_vxc_create                        4  8.0    0.000    0.000    1.646    1.646
 xc_vxc_pw_create                     4  9.0    0.031    0.039    1.646    1.646
 fft3d_ps                           146 13.2    0.753    0.835    1.423    1.505
 rs_pw_transfer                      80  9.3    0.002    0.002    1.358    1.485
 sum_up_and_integrate                 4  8.0    0.004    0.005    1.273    1.274
 integrate_v_rspace                   8  9.0    0.000    0.000    1.269    1.270
 init_scf_loop                        1  4.0    0.000    0.000    1.171    1.171
 density_rs2pw                       10  7.0    0.000    0.001    0.990    1.125
 xc_pw_derive                        48 11.0    0.001    0.001    1.031    1.052
 xc_rho_set_and_dset_create           4 10.0    0.022    0.029    0.867    0.878
 xc_pw_divergence                     8 10.0    0.000    0.000    0.717    0.733
 potential_pw2rs                      8 10.0    0.001    0.001    0.718    0.718
 grid_collocate_task_list            10  7.0    0.647    0.695    0.647    0.695
 rs_pw_transfer_RS2PW_300            14  9.6    0.294    0.362    0.537    0.675
 mp_alltoall_z22v                   146 15.2    0.497    0.642    0.497    0.642
 mp_sum_d                           608  3.2    0.562    0.599    0.562    0.599
 prepare_gapw_den                     4  8.0    0.000    0.000    0.581    0.587
 grid_integrate_task_list             8 10.0    0.535    0.551    0.535    0.551
 mp_waitany                        1144 11.4    0.359    0.545    0.359    0.545
 qs_energies_init_hamiltonians        1  3.0    0.000    0.000    0.511    0.511
 qs_env_update_s_mstruct              1  4.0    0.000    0.000    0.484    0.510
 qs_create_task_list                  1  5.0    0.000    0.000    0.484    0.510
 generate_qs_task_list                1  6.0    0.000    0.010    0.484    0.510
 distribute_tasks                     1  7.0    0.000    0.000    0.484    0.509
 get_current_loads                   10  8.8    0.000    0.000    0.482    0.508
 mp_alltoall_l                       11  9.7    0.482    0.508    0.482    0.508
 load_balance_distributed             1  8.0    0.000    0.000    0.482    0.508
 compute_load_list                    2  9.0    0.000    0.000    0.482    0.507
 rs_pw_transfer_PW2RS_300            12 11.3    0.265    0.320    0.475    0.502
 build_core_hamiltonian_matrix        1  4.0    0.000    0.001    0.026    0.497
 calculate_vxc_atom                   4  8.0    0.003    0.050    0.458    0.458
 yz_to_x                             76 13.7    0.080    0.099    0.366    0.440
 init_scf_run                         1  3.0    0.000    0.000    0.418    0.418
 scf_env_initial_rho_setup            1  4.0    0.000    0.000    0.418    0.418
 mp_sum_dm                           48  7.3    0.365    0.392    0.365    0.392
 gaVxcgb_GC                           8  9.0    0.011    0.385    0.011    0.385
 dbcsr_multiply_generic             145  9.6    0.004    0.004    0.362    0.371
 xc_functional_eval                  20 10.9    0.000    0.000    0.342    0.359
 pbe_lsd_eval                        20 11.9    0.341    0.359    0.341    0.359
 calculate_rho_atom_coeff             5  6.0    0.014    0.339    0.350    0.350
 x_to_yz                             70 14.7    0.085    0.099    0.297    0.350
 mp_waitall_1                     11300 13.3    0.240    0.300    0.240    0.300
 calculate_rho_atom                   8  9.0    0.072    0.296    0.072    0.296
 mp_sum_l                          1014  7.8    0.267    0.276    0.267    0.276
 update_ks_atom                       4  8.0    0.008    0.259    0.015    0.265
 put_rho0_on_grid                     4  9.0    0.003    0.004    0.254    0.260
 integrate_vhg0_rspace                4  8.0    0.013    0.021    0.241    0.243
 build_core_ppl                       1  5.0    0.008    0.220    0.008    0.220
 build_core_ae                        1  5.0    0.008    0.219    0.008    0.219
 mp_sum_dv                           30 11.7    0.193    0.207    0.193    0.207
 pw_gather_p                         76 12.7    0.157    0.196    0.157    0.196
 rs_pw_transfer_PW2RS_100             8 12.0    0.031    0.034    0.151    0.189
 pw_scatter_p                        70 13.7    0.150    0.169    0.150    0.169
 -------------------------------------------------------------------------------

 The number of warnings for this run is : 0
 
 -------------------------------------------------------------------------------
  **** **** ******  **  PROGRAM ENDED AT                 2022-06-07 16:40:04.603
 ***** ** ***  *** **   PROGRAM RAN ON                                   tcopt10
 **    ****   ******    PROGRAM RAN BY                                    hutter
 ***** **    ** ** **   PROGRAM PROCESS ID                                 70186
  **** **  *******  **  PROGRAM STOPPED IN /data/hutter/GITHUB/BASIS/scMOLOPT/PB
                                           E/Cs
