       2
 i =        1, E =        -8.5736663431
 Po        -0.0000030356        0.0000016238        0.0127526895
  H         0.0000030356       -0.0000016238        1.7692483185
       2
 i =        2, E =        -8.5736925349
 Po        -0.0000030593        0.0000016444        0.0074779782
  H         0.0000030590       -0.0000016444        1.7745227014
       2
 i =        3, E =        -8.5736925798
 Po        -0.0000030694        0.0000016441        0.0076203344
  H         0.0000030687       -0.0000016440        1.7743804988
       2
 i =        4, E =        -8.5736926117
 Po        -0.0000030694        0.0000016441        0.0076203344
  H         0.0000030687       -0.0000016440        1.7743804988
