 DBCSR| CPU Multiplication driver                                           XSMM
 DBCSR| Multrec recursion limit                                              512
 DBCSR| Multiplication stack size                                           1000
 DBCSR| Maximum elements for images                                    UNLIMITED
 DBCSR| Multiplicative factor virtual images                                   1
 DBCSR| Use multiplication densification                                       T
 DBCSR| Multiplication size stacks                                             3
 DBCSR| Use memory pool for CPU allocation                                     F
 DBCSR| Number of 3D layers                                               SINGLE
 DBCSR| Use MPI memory allocation                                              F
 DBCSR| Use RMA algorithm                                                      F
 DBCSR| Use Communication thread                                               T
 DBCSR| Communication thread load                                             87
 DBCSR| MPI: My node id                                                        0
 DBCSR| MPI: Number of nodes                                                  48
 DBCSR| OMP: Current number of threads                                         1
 DBCSR| OMP: Max number of threads                                             1
 DBCSR| Split modifier for TAS multiplication algorithm                  1.0E+00


  **** **** ******  **  PROGRAM STARTED AT               2022-06-07 18:05:41.889
 ***** ** ***  *** **   PROGRAM STARTED ON                               tcopt10
 **    ****   ******    PROGRAM STARTED BY                                hutter
 ***** **    ** ** **   PROGRAM PROCESS ID                                 84312
  **** **  *******  **  PROGRAM STARTED IN /data/hutter/GITHUB/BASIS/scMOLOPT/PB
                                           E/Hg

 CP2K| version string:                   CP2K version 10.0 (Development Version)
 CP2K| source code revision number:                                  git:d19b00a
 CP2K| cp2kflags: omp libint fftw3 libxc elpa parallel mpi3 scalapack cosma xsmm
 CP2K|             spglib sirius libvori libbqb
 CP2K| is freely available from                            https://www.cp2k.org/
 CP2K| Program compiled at                      Wed 18 May 2022 12:15:59 PM CEST
 CP2K| Program compiled on                                               tcopt10
 CP2K| Program compiled for                                                local
 CP2K| Data directory path                   /data/hutter/GITHUB/TDLRI/cp2k/data
 CP2K| Input file name                                              HgF2-ref.inp

 GLOBAL| Force Environment number                                              1
 GLOBAL| Basis set file name                                        ../def2QZVPP
 GLOBAL| Potential file name                                        ../POTENTIAL
 GLOBAL| MM Potential file name                                     MM_POTENTIAL
 GLOBAL| Coordinate file name                                      __STD_INPUT__
 GLOBAL| Method name                                                        CP2K
 GLOBAL| Project name                                                    refHgF2
 GLOBAL| Run type                                                         ENERGY
 GLOBAL| FFT library                                                       FFTW3
 GLOBAL| Diagonalization library                                            ELPA
 GLOBAL| Minimum number of eigenvectors for ELPA usage                        16
 GLOBAL| Orthonormality check for eigenvectors                          DISABLED
 GLOBAL| Matrix multiplication library                                     COSMA
 GLOBAL| All-to-all communication in single precision                          F
 GLOBAL| FFTs using library dependent lengths                                  F
 GLOBAL| Grid backend                                                       AUTO
 GLOBAL| Global print level                                                  LOW
 GLOBAL| MPI I/O enabled                                                       T
 GLOBAL| Total number of message passing processes                            48
 GLOBAL| Number of threads for this process                                    1
 GLOBAL| This output is from process                                           0
 GLOBAL| Stack size for threads created by OpenMP (OMP_STACKSIZE)        default
 GLOBAL| CPU model name                          AMD EPYC 7401 24-Core Processor
 GLOBAL| CPUID                                                              1002

 MEMORY| system memory details [Kb]
 MEMORY|                        rank 0           min           max       average
 MEMORY| MemTotal            263969132     263969132     263969132     263969132
 MEMORY| MemFree             236081256     236081256     236081256     236081256
 MEMORY| Buffers                  2836          2836          2836          2836
 MEMORY| Cached               20349136      20349136      20349136      20349136
 MEMORY| Slab                  1475560       1475560       1475560       1475560
 MEMORY| SReclaimable           874292        874292        874292        874292
 MEMORY| MemLikelyFree       257307520     257307520     257307520     257307520


 GENERATE|  Preliminary Number of Bonds generated:                             0
 GENERATE|  Achieved consistency in connectivity generation.

 *******************************************************************************
 *******************************************************************************
 **                                                                           **
 **     #####                         ##              ##                      **
 **    ##   ##            ##          ##              ##                      **
 **   ##     ##                       ##            ######                    **
 **   ##     ##  ##   ##  ##   #####  ##  ##   ####   ##    #####    #####    **
 **   ##     ##  ##   ##  ##  ##      ## ##   ##      ##   ##   ##  ##   ##   **
 **   ##  ## ##  ##   ##  ##  ##      ####     ###    ##   ######   ######    **
 **    ##  ###   ##   ##  ##  ##      ## ##      ##   ##   ##       ##        **
 **     #######   #####   ##   #####  ##  ##  ####    ##    #####   ##        **
 **           ##                                                    ##        **
 **                                                                           **
 **                                                ... make the atoms dance   **
 **                                                                           **
 **            Copyright (C) by CP2K developers group (2000-2022)             **
 **                      J. Chem. Phys. 152, 194103 (2020)                    **
 **                                                                           **
 *******************************************************************************


 TOTAL NUMBERS AND MAXIMUM NUMBERS

  Total number of            - Atomic kinds:                                   2
                             - Atoms:                                          3
                             - Shell sets:                                    56
                             - Shells:                                        56
                             - Primitive Cartesian functions:                 88
                             - Cartesian basis functions:                    260
                             - Spherical basis functions:                    202

  Maximum angular momentum of- Orbital basis functions:                        4
                             - Local part of the GTH pseudopotential:          0
                             - Non-local part of the GTH pseudopotential:      4


 SCF PARAMETERS         Density guess:                                    ATOMIC
                        --------------------------------------------------------
                        max_scf:                                              20
                        max_scf_history:                                       0
                        max_diis:                                              4
                        --------------------------------------------------------
                        eps_scf:                                        1.00E-07
                        eps_scf_history:                                0.00E+00
                        eps_diis:                                       1.00E-01
                        eps_eigval:                                     1.00E-05
                        --------------------------------------------------------
                        level_shift [a.u.]:                             0.000000
                        --------------------------------------------------------
                        Outer loop SCF in use 
                        No variables optimised in outer loop
                        eps_scf                                         1.00E-07
                        max_scf                                                5
                        No outer loop optimization
                        step_size                                       5.00E-01

 Number of electrons:                                                         30
 Number of occupied orbitals:                                                 15
 Number of molecular orbitals:                                                15

 Number of orbital functions:                                                202
 Number of independent orbital functions:                                    202

 Extrapolation method: initial_guess


 SCF WAVEFUNCTION OPTIMIZATION

  ----------------------------------- OT ---------------------------------------
  Minimizer      : DIIS                : direct inversion
                                         in the iterative subspace
                                         using   7 DIIS vectors
                                         safer DIIS on
  Preconditioner : FULL_ALL            : diagonalization, state selective
  Precond_solver : DEFAULT
  stepsize       :    0.10000000                  energy_gap     :    0.08000000
  eps_taylor     :   0.10000E-15                  max_taylor     :             4
  ----------------------------------- OT ---------------------------------------

  Step     Update method      Time    Convergence         Total energy    Change
  ------------------------------------------------------------------------------
     1 OT DIIS     0.10E+00    0.7     0.06460079      -238.3284754862 -2.38E+02
     2 OT DIIS     0.10E+00    0.8     0.04091231      -239.3441574353 -1.02E+00
     3 OT DIIS     0.10E+00    0.8     0.01602992      -239.9688420975 -6.25E-01
     4 OT DIIS     0.10E+00    0.8     0.01235160      -240.0623873783 -9.35E-02
     5 OT DIIS     0.10E+00    0.8     0.01068902      -240.1444774363 -8.21E-02
     6 OT DIIS     0.10E+00    0.8     0.00910543      -240.2077510516 -6.33E-02
     7 OT DIIS     0.10E+00    0.8     0.00748185      -240.2914436809 -8.37E-02
     8 OT DIIS     0.10E+00    0.8     0.00490287      -240.3363386399 -4.49E-02
     9 OT DIIS     0.10E+00    0.9     0.00611931      -240.3389558152 -2.62E-03
    10 OT DIIS     0.10E+00    0.8     0.00383546      -240.3666025408 -2.76E-02
    11 OT DIIS     0.10E+00    0.8     0.00194155      -240.3806822120 -1.41E-02
    12 OT DIIS     0.10E+00    0.9     0.00135182      -240.3853521473 -4.67E-03
    13 OT DIIS     0.10E+00    0.8     0.00082897      -240.3873700133 -2.02E-03
    14 OT DIIS     0.10E+00    0.8     0.00075156      -240.3881228309 -7.53E-04
    15 OT DIIS     0.10E+00    0.8     0.00055992      -240.3882766511 -1.54E-04
    16 OT DIIS     0.10E+00    0.8     0.00038018      -240.3884919768 -2.15E-04
    17 OT DIIS     0.10E+00    0.8     0.00024459      -240.3886097874 -1.18E-04
    18 OT DIIS     0.10E+00    0.8     0.00010858      -240.3886470635 -3.73E-05
    19 OT DIIS     0.10E+00    0.8     0.00006493      -240.3886584848 -1.14E-05
    20 OT DIIS     0.10E+00    0.8     0.00004752      -240.3886613824 -2.90E-06

  Leaving inner SCF loop after reaching    20 steps.


  Electronic density on regular grids:        -25.4055896058        4.5944103942
  Core density on regular grids:               30.0000000000        0.0000000000
  Hard and soft densities (Lebedev):          -34.6408506308      -30.0464387014
  Total Rho_soft + Rho1_hard - Rho1_soft      -30.0000015353
  Total charge density (r-space):              -0.0000015353
  Total Rho_soft + Rho0_soft (g-space):        -0.0000018109

  Overlap energy of the core charge distribution:               0.00000008135584
  Self energy of the core charge distribution:               -280.39007095816135
  Core Hamiltonian energy:                                     12.14325047007545
  Hartree energy:                                             113.33706303237523
  Exchange-correlation energy:                                -14.34007833899131

  GAPW| Exc from hard and soft atomic rho1:                   -12.24761274666698
  GAPW| local Eh = 1 center integrals:                        -58.89121292241049

  Total energy:                                              -240.38866138242363

  outer SCF iter =    1 RMS gradient =   0.48E-04 energy =       -240.3886613824

  ----------------------------------- OT ---------------------------------------
  Minimizer      : DIIS                : direct inversion
                                         in the iterative subspace
                                         using   7 DIIS vectors
                                         safer DIIS on
  Preconditioner : FULL_ALL            : diagonalization, state selective
  Precond_solver : DEFAULT
  stepsize       :    0.10000000                  energy_gap     :    0.08000000
  eps_taylor     :   0.10000E-15                  max_taylor     :             4
  ----------------------------------- OT ---------------------------------------

  Step     Update method      Time    Convergence         Total energy    Change
  ------------------------------------------------------------------------------
     1 OT DIIS     0.10E+00    1.7     0.00006652      -240.3886636761 -2.29E-06
     2 OT DIIS     0.10E+00    0.8     0.00003759      -240.3886647041 -1.03E-06
     3 OT DIIS     0.10E+00    0.8     0.00001732      -240.3886651534 -4.49E-07
     4 OT DIIS     0.10E+00    0.8     0.00000350      -240.3886651967 -4.32E-08
     5 OT DIIS     0.10E+00    0.8     0.00000108      -240.3886652001 -3.48E-09
     6 OT DIIS     0.10E+00    0.8     0.00000036      -240.3886652004 -2.87E-10
     7 OT DIIS     0.10E+00    0.8     0.00000010      -240.3886652005 -3.29E-11

  *** SCF run converged in     7 steps ***


  Electronic density on regular grids:        -25.4055923330        4.5944076670
  Core density on regular grids:               30.0000000000        0.0000000000
  Hard and soft densities (Lebedev):          -34.6430832899      -30.0486740880
  Total Rho_soft + Rho1_hard - Rho1_soft      -30.0000015349
  Total charge density (r-space):              -0.0000015349
  Total Rho_soft + Rho0_soft (g-space):        -0.0000018105

  Overlap energy of the core charge distribution:               0.00000008135584
  Self energy of the core charge distribution:               -280.39007095816135
  Core Hamiltonian energy:                                     12.14441430194671
  Hartree energy:                                             113.33586959765294
  Exchange-correlation energy:                                -14.34030705643814

  GAPW| Exc from hard and soft atomic rho1:                   -12.24760664599925
  GAPW| local Eh = 1 center integrals:                        -58.89096452082142

  Total energy:                                              -240.38866520046466

  outer SCF iter =    2 RMS gradient =   0.96E-07 energy =       -240.3886652005
  outer SCF loop converged in   2 iterations or   27 steps


 ENERGY| Total FORCE_EVAL ( QS ) energy [a.u.]:             -240.388665200464658

 -------------------------------------------------------------------------------
 -                                                                             -
 -                                DBCSR STATISTICS                             -
 -                                                                             -
 -------------------------------------------------------------------------------
 COUNTER                                    TOTAL       BLAS       SMM       ACC
 flops    15 x    15 x    15              1363500       0.0%    100.0%      0.0%
 flops    57 x    15 x    15              3514050       0.0%    100.0%      0.0%
 flops    57 x    88 x    15              4213440       0.0%    100.0%      0.0%
 flops    88 x    57 x    15              4213440       0.0%    100.0%      0.0%
 flops    15 x    15 x    88              4356000       0.0%    100.0%      0.0%
 flops    15 x    15 x    57              5643000       0.0%    100.0%      0.0%
 flops    88 x    88 x    15              6504960       0.0%    100.0%      0.0%
 flops    57 x    57 x    15              8187480       0.0%    100.0%      0.0%
 flops   145 x    15 x    15              8939250       0.0%    100.0%      0.0%
 flops    88 x    15 x    88             15797760       0.0%    100.0%      0.0%
 flops    88 x    15 x    57             20465280       0.0%    100.0%      0.0%
 flops   145 x    15 x    88             22202400       0.0%    100.0%      0.0%
 flops   145 x    15 x    57             28762200       0.0%    100.0%      0.0%
 flops    57 x    15 x    88             29193120       0.0%    100.0%      0.0%
 flops    57 x    15 x    57             37818360       0.0%    100.0%      0.0%
 flops inhomo. stacks                           0       0.0%      0.0%      0.0%
 flops total                       201.174240E+06       0.0%    100.0%      0.0%
 flops max/rank                    137.522910E+06       0.0%    100.0%      0.0%
 matmuls inhomo. stacks                         0       0.0%      0.0%      0.0%
 matmuls total                               1934       0.0%    100.0%      0.0%
 number of processed stacks                  1934       0.0%    100.0%      0.0%
 average stack size                                     0.0       1.0       0.0
 marketing flops                   212.511712E+06
 -------------------------------------------------------------------------------
 # multiplications                            605
 max memory usage/rank             398.540800E+06
 # max total images/rank                        3
 # max 3D layers                                1
 # MPI messages exchanged                  580800
 MPI messages size (bytes):
  total size                       550.789056E+06
  min size                           0.000000E+00
  max size                         102.080000E+03
  average size                     948.328247E+00
 MPI breakdown and total messages size (bytes):
             size <=      128              559609                        0
       128 < size <=     8192                9058                 45632160
      8192 < size <=    32768                6589                124771944
     32768 < size <=   131072                5544                380384928
    131072 < size <=  4194304                   0                        0
   4194304 < size <= 16777216                   0                        0
  16777216 < size                               0                        0
 -------------------------------------------------------------------------------

 *** WARNING in dbcsr_mm.F:290 :: Using a non-square number of MPI ranks ***
 *** might lead to poor performance. Used ranks: 48 Suggested: 49 100    ***

 -------------------------------------------------------------------------------
 -                                                                             -
 -                      DBCSR MESSAGE PASSING PERFORMANCE                      -
 -                                                                             -
 -------------------------------------------------------------------------------
 ROUTINE             CALLS      AVE VOLUME [Bytes]
 MP_Bcast               16                     12.
 MP_Allreduce         3246                      8.
 MP_Alltoall          2292                   5337.
 MP_ISend            26946                   1698.
 MP_IRecv            26806                    942.
 -------------------------------------------------------------------------------

 -------------------------------------------------------------------------------
 -                                                                             -
 -                                GRID STATISTICS                              -
 -                                                                             -
 -------------------------------------------------------------------------------
 LP    KERNEL             BACKEND                              COUNT     PERCENT
 2     collocate ortho    REF                                  13076      10.18%
 3     collocate ortho    REF                                  12768       9.94%
 2     integrate ortho    REF                                  12609       9.82%
 3     integrate ortho    REF                                  12312       9.59%
 1     collocate ortho    REF                                  11088       8.63%
 1     integrate ortho    REF                                  10692       8.32%
 4     collocate ortho    REF                                  10472       8.15%
 4     integrate ortho    REF                                  10098       7.86%
 5     collocate ortho    REF                                   5880       4.58%
 5     integrate ortho    REF                                   5670       4.41%
 0     collocate ortho    REF                                   4088       3.18%
 0     integrate ortho    REF                                   3942       3.07%
 2     collocate general  REF                                   3888       3.03%
 2     integrate general  REF                                   3888       3.03%
 6     collocate ortho    REF                                   2660       2.07%
 6     integrate ortho    REF                                   2565       2.00%
 7     collocate ortho    REF                                   1120       0.87%
 7     integrate ortho    REF                                   1080       0.84%
 8     collocate ortho    REF                                    280       0.22%
 8     integrate ortho    REF                                    270       0.21%
 -------------------------------------------------------------------------------

 MEMORY| Estimated peak process memory [MiB]                                 381

 -------------------------------------------------------------------------------
 -                                                                             -
 -                         MESSAGE PASSING PERFORMANCE                         -
 -                                                                             -
 -------------------------------------------------------------------------------

 ROUTINE             CALLS      AVE VOLUME [Bytes]
 MP_Group                4
 MP_Bcast              692                 498225.
 MP_Allreduce         2000                 112658.
 MP_Sync                56
 MP_Alltoall           614                3864222.
 MP_ISendRecv         7755                 115392.
 MP_Wait             14404
 MP_comm_split          26
 MP_ISend             6104                 294528.
 MP_IRecv             6104                 294587.
 MP_Recv                14                   3232.
 -------------------------------------------------------------------------------


 -------------------------------------------------------------------------------
 -                                                                             -
 -                           R E F E R E N C E S                               -
 -                                                                             -
 -------------------------------------------------------------------------------
 
 CP2K version 10.0 (Development Version), the CP2K developers group (2022).
 CP2K is freely available from https://www.cp2k.org/ .

 Kuehne,Thomas D.; Iannuzzi,Marcella; Del Ben,Mauro;
 Rybkin,Vladimir V.; Seewald,Patrick; Stein,Frederick; Laino,Teodoro;
 Khaliullin,Rustam Z.; Schuett,Ole; Schiffmann,Florian; Golze,Dorothea;
 Wilhelm,Jan; Chulkov,Sergey; Bani-Hashemian,Mohammad Hossein;
 Weber,Valery; Borstnik,Urban; Taillefumier,Mathieu;
 Jakobovits,Alice Shoshana; Lazzaro,Alfio; Pabst,Hans; Mueller,Tiziano;
 Schade,Robert; Guidon,Manuel; Andermatt,Samuel; Holmberg,Nico;
 Schenter,Gregory K.; Hehn,Anna; Bussy,Augustin; Belleflamme,Fabian;
 Tabacchi,Gloria; Gloess,Andreas; Lass,Michael; Bethune,Iain;
 Mundy,Christopher J.; Plessl,Christian; Watkins,Matt;
 VandeVondele,Joost; Krack,Matthias; Hutter,Juerg. 
 The Journal of Chemical Physics, 152 (19), (2020). 
 CP2K: An electronic structure and molecular dynamics software package -
 Quickstep: Efficient and accurate electronic structure calculations.
 https://doi.org/10.1063/5.0007045

 Schuett, Ole; Messmer, Peter; Hutter, Juerg; VandeVondele, Joost. 
 Electronic Structure Calculations on Graphics Processing Units, John
 Wiley & Sons, Ltd, 173-190 (2016). 
 GPU-Accelerated Sparse Matrix-Matrix Multiplication for
 Linear Scaling Density Functional Theory.
 https://doi.org/10.1002/9781118670712.ch8

 Heinecke, A; Henry, G; Hutchinson, M; Pabst, H. 
 Proceedings of Intl. Supercomputing Conference, 981-991 (2016). 
 LIBXSMM: Accelerating Small Matrix Multiplications
 by Runtime Code Generation.
 https://doi.org/10.1109/SC.2016.83

 Borstnik, U; VandeVondele, J; Weber, V; Hutter, J. 
 PARALLEL COMPUTING, 40 (5-6), 47-58 (2014). 
 Sparse matrix multiplication: The distributed block-compressed sparse
 row library.
 https://doi.org/10.1016/j.parco.2014.03.012

 Hutter, J; Iannuzzi, M; Schiffmann, F; VandeVondele, J. 
 WIREs Comput Mol Sci., 4 (1), 15-25 (2014). 
 CP2K: atomistic simulations of condensed matter systems.
 https://doi.org/10.1002/wcms.1159

 Marek, A; Blum, V; Johanni, R; Havu, V; Lang, B; Auckenthaler, T;
 Heinecke, A; Bungartz, H; Lederer, H. 
 Journal of Physics: Condensed Matter, 26 (21), (2014). 
 The ELPA library: scalable parallel eigenvalue solutions for
 electronic structure
 theory and computational science.
 https://doi.org/10.1088/0953-8984/26/21/213201

 Krack, M. 
 THEORETICAL CHEMISTRY ACCOUNTS, 114 (1-3), 145-152 (2005). 
 Pseudopotentials for H to Kr optimized for gradient-corrected
 exchange-correlation functionals.
 https://doi.org/10.1007/s00214-005-0655-y

 Frigo, M; Johnson, SG. 
 PROCEEDINGS OF THE IEEE, 93 (2), 216-231 (2005). 
 The design and implementation of FFTW3.
 https://doi.org/10.1109/JPROC.2004.840301

 VandeVondele, J; Hutter, J. 
 JOURNAL OF CHEMICAL PHYSICS, 118 (10), 4365-4369 (2003). 
 An efficient orbital transformation method for electronic structure
 calculations.
 https://doi.org/10.1063/1.1543154

 Lippert, G; Hutter, J; Parrinello, M. 
 THEORETICAL CHEMISTRY ACCOUNTS, 103 (2), 124-140 (1999). 
 The Gaussian and augmented-plane-wave density functional method for ab
 initio molecular dynamics simulations.
 https://doi.org/10.1007/s002140050523

 Krack, M; Parrinello, M. 
 PHYSICAL CHEMISTRY CHEMICAL PHYSICS, 2 (10), 2105-2112 (2000). 
 All-electron ab-initio molecular dynamics.
 https://doi.org/10.1039/b001167n

 Hartwigsen, C; Goedecker, S; Hutter, J. 
 PHYSICAL REVIEW B, 58 (7), 3641-3662 (1998). 
 Relativistic separable dual-space Gaussian pseudopotentials from H to Rn.
 https://doi.org/10.1103/PhysRevB.58.3641

 Perdew, JP; Burke, K; Ernzerhof, M. 
 PHYSICAL REVIEW LETTERS, 77 (18), 3865-3868 (1996). 
 Generalized gradient approximation made simple.
 https://doi.org/10.1103/PhysRevLett.77.3865

 Goedecker, S; Teter, M; Hutter, J. 
 PHYSICAL REVIEW B, 54 (3), 1703-1710 (1996). 
 Separable dual-space Gaussian pseudopotentials.
 https://doi.org/10.1103/PhysRevB.54.1703


 -------------------------------------------------------------------------------
 -                                                                             -
 -                                T I M I N G                                  -
 -                                                                             -
 -------------------------------------------------------------------------------
 SUBROUTINE                       CALLS  ASD         SELF TIME        TOTAL TIME
                                MAXIMUM       AVERAGE  MAXIMUM  AVERAGE  MAXIMUM
 CP2K                                 1  1.0    0.007    0.031   23.395   23.399
 qs_energies                          1  2.0    0.000    0.000   23.140   23.144
 scf_env_do_scf                       1  3.0    0.000    0.000   22.682   22.685
 scf_env_do_scf_inner_loop           27  4.0    0.000    0.001   21.309   21.312
 qs_ks_update_qs_env                 29  5.0    0.000    0.000   17.919   17.927
 rebuild_ks_matrix                   27  6.0    0.000    0.000   17.915   17.922
 qs_ks_build_kohn_sham_matrix        27  7.0    0.006    0.007   17.915   17.922
 rs_pw_transfer                     274  9.5    0.008    0.010    7.064    7.309
 pw_transfer                        572 10.1    0.063    0.075    5.906    6.395
 fft_wrap_pw1pw2                    491 11.3    0.007    0.008    5.783    6.267
 fft_wrap_pw1pw2_300                326 12.7    0.373    0.453    5.422    5.912
 fft3d_ps                           491 13.3    2.214    2.563    4.542    5.096
 qs_vxc_create                       27  8.0    0.001    0.001    4.916    4.917
 xc_vxc_pw_create                    27  9.0    0.030    0.035    4.915    4.916
 prepare_gapw_den                    27  8.0    0.001    0.001    4.558    4.600
 qs_rho_update_rho                   28  5.0    0.001    0.001    4.101    4.103
 calculate_rho_elec                  28  6.0    0.015    0.017    3.981    3.982
 xc_pw_derive                       162 11.0    0.002    0.002    3.187    3.776
 sum_up_and_integrate                27  8.0    0.014    0.017    3.358    3.365
 integrate_v_rspace                  27  9.0    0.001    0.001    3.345    3.349
 density_rs2pw                       28  7.0    0.002    0.002    3.061    3.264
 rs_pw_transfer_PW2RS_300            54 11.0    1.812    1.892    2.847    2.980
 mp_alltoall_z22v                   491 15.3    1.820    2.966    1.820    2.966
 potential_pw2rs                     27 10.0    0.002    0.002    2.941    2.945
 rs_pw_transfer_RS2PW_300            55 10.0    1.840    1.997    2.673    2.908
 xc_pw_divergence                    27 10.0    0.001    0.001    2.250    2.837
 xc_rho_set_and_dset_create          27 10.0    0.037    0.043    2.498    2.775
 integrate_vhg0_rspace               27  8.0    0.211    0.301    2.473    2.487
 mp_sum_d                          1240  7.0    2.062    2.311    2.062    2.311
 yz_to_x                            219 14.1    0.213    0.267    1.335    2.229
 calculate_rho_atom                  54  9.0    0.702    2.181    0.702    2.181
 put_rho0_on_grid                    27  9.0    0.018    0.023    2.004    2.046
 mp_waitany                        6104 11.5    1.429    1.726    1.429    1.726
 calculate_rho0_atom                 54  9.0    1.398    1.541    1.398    1.541
 calculate_vxc_atom                  27  8.0    0.015    0.111    1.496    1.497
 init_scf_loop                        2  4.0    0.000    0.000    1.372    1.372
 gaVxcgb_GC                          27  9.0    0.058    1.330    0.058    1.330
 xc_functional_eval                  81 10.9    0.000    0.001    0.973    1.265
 pbe_lda_eval                        81 11.9    0.973    1.265    0.973    1.265
 mp_waitall_1                     56700 13.8    1.092    1.263    1.092    1.263
 grid_collocate_task_list            28  7.0    0.769    1.101    0.769    1.101
 x_to_yz                            217 14.6    0.253    0.282    0.948    1.059
 mp_sum_dv                          746 12.9    0.457    0.959    0.457    0.959
 mp_sum_dm                          249  7.7    0.769    0.837    0.769    0.837
 rs_pw_transfer_PW2RS_100            27 12.0    0.149    0.186    0.707    0.762
 qs_scf_new_mos                      27  5.0    0.000    0.000    0.711    0.714
 qs_scf_loop_do_ot                   27  6.0    0.000    0.000    0.711    0.714
 dbcsr_multiply_generic             605 10.1    0.018    0.019    0.690    0.707
 ot_scf_mini                         27  7.0    0.000    0.000    0.681    0.684
 rs_grid_zero                       108 10.8    0.653    0.670    0.653    0.670
 pw_gather_p                        247 12.9    0.439    0.670    0.439    0.670
 rs_pw_transfer_RS2PW_100            28  9.0    0.134    0.192    0.468    0.482
 -------------------------------------------------------------------------------

 The number of warnings for this run is : 1
 
 -------------------------------------------------------------------------------
  **** **** ******  **  PROGRAM ENDED AT                 2022-06-07 18:06:05.699
 ***** ** ***  *** **   PROGRAM RAN ON                                   tcopt10
 **    ****   ******    PROGRAM RAN BY                                    hutter
 ***** **    ** ** **   PROGRAM PROCESS ID                                 84312
  **** **  *******  **  PROGRAM STOPPED IN /data/hutter/GITHUB/BASIS/scMOLOPT/PB
                                           E/Hg
