 DBCSR| CPU Multiplication driver                                           XSMM
 DBCSR| Multrec recursion limit                                              512
 DBCSR| Multiplication stack size                                           1000
 DBCSR| Maximum elements for images                                    UNLIMITED
 DBCSR| Multiplicative factor virtual images                                   1
 DBCSR| Use multiplication densification                                       T
 DBCSR| Multiplication size stacks                                             3
 DBCSR| Use memory pool for CPU allocation                                     F
 DBCSR| Number of 3D layers                                               SINGLE
 DBCSR| Use MPI memory allocation                                              F
 DBCSR| Use RMA algorithm                                                      F
 DBCSR| Use Communication thread                                               T
 DBCSR| Communication thread load                                             87
 DBCSR| MPI: My node id                                                        0
 DBCSR| MPI: Number of nodes                                                  12
 DBCSR| OMP: Current number of threads                                         1
 DBCSR| OMP: Max number of threads                                             1
 DBCSR| Split modifier for TAS multiplication algorithm                  1.0E+00


  **** **** ******  **  PROGRAM STARTED AT               2022-05-30 17:38:19.638
 ***** ** ***  *** **   PROGRAM STARTED ON                               tcopt10
 **    ****   ******    PROGRAM STARTED BY                                hutter
 ***** **    ** ** **   PROGRAM PROCESS ID                                 77819
  **** **  *******  **  PROGRAM STARTED IN /data/hutter/GITHUB/BASIS/scMOLOPT/PB
                                           E/Nb

 CP2K| version string:                   CP2K version 10.0 (Development Version)
 CP2K| source code revision number:                                  git:d19b00a
 CP2K| cp2kflags: omp libint fftw3 libxc elpa parallel mpi3 scalapack cosma xsmm
 CP2K|             spglib sirius libvori libbqb
 CP2K| is freely available from                            https://www.cp2k.org/
 CP2K| Program compiled at                      Wed 18 May 2022 12:15:59 PM CEST
 CP2K| Program compiled on                                               tcopt10
 CP2K| Program compiled for                                                local
 CP2K| Data directory path                   /data/hutter/GITHUB/TDLRI/cp2k/data
 CP2K| Input file name                                               NbO-ref.inp

 GLOBAL| Force Environment number                                              1
 GLOBAL| Basis set file name                                        ../def2QZVPP
 GLOBAL| Potential file name                                        ../POTENTIAL
 GLOBAL| MM Potential file name                                     MM_POTENTIAL
 GLOBAL| Coordinate file name                                      __STD_INPUT__
 GLOBAL| Method name                                                        CP2K
 GLOBAL| Project name                                                     refNbO
 GLOBAL| Run type                                                         ENERGY
 GLOBAL| FFT library                                                       FFTW3
 GLOBAL| Diagonalization library                                            ELPA
 GLOBAL| Minimum number of eigenvectors for ELPA usage                        16
 GLOBAL| Orthonormality check for eigenvectors                          DISABLED
 GLOBAL| Matrix multiplication library                                     COSMA
 GLOBAL| All-to-all communication in single precision                          F
 GLOBAL| FFTs using library dependent lengths                                  F
 GLOBAL| Grid backend                                                       AUTO
 GLOBAL| Global print level                                                  LOW
 GLOBAL| MPI I/O enabled                                                       T
 GLOBAL| Total number of message passing processes                            12
 GLOBAL| Number of threads for this process                                    1
 GLOBAL| This output is from process                                           0
 GLOBAL| Stack size for threads created by OpenMP (OMP_STACKSIZE)        default
 GLOBAL| CPU model name                          AMD EPYC 7401 24-Core Processor
 GLOBAL| CPUID                                                              1002

 MEMORY| system memory details [Kb]
 MEMORY|                        rank 0           min           max       average
 MEMORY| MemTotal            263969132     263969132     263969132     263969132
 MEMORY| MemFree             224309480     224309480     224309480     224309480
 MEMORY| Buffers                  2836          2836          2836          2836
 MEMORY| Cached               20275712      20275712      20275712      20275712
 MEMORY| Slab                  1470148       1470148       1470148       1470148
 MEMORY| SReclaimable           879780        879780        879780        879780
 MEMORY| MemLikelyFree       245467808     245467808     245467808     245467808


 GENERATE|  Preliminary Number of Bonds generated:                             0
 GENERATE|  Achieved consistency in connectivity generation.

 *******************************************************************************
 *******************************************************************************
 **                                                                           **
 **     #####                         ##              ##                      **
 **    ##   ##            ##          ##              ##                      **
 **   ##     ##                       ##            ######                    **
 **   ##     ##  ##   ##  ##   #####  ##  ##   ####   ##    #####    #####    **
 **   ##     ##  ##   ##  ##  ##      ## ##   ##      ##   ##   ##  ##   ##   **
 **   ##  ## ##  ##   ##  ##  ##      ####     ###    ##   ######   ######    **
 **    ##  ###   ##   ##  ##  ##      ## ##      ##   ##   ##       ##        **
 **     #######   #####   ##   #####  ##  ##  ####    ##    #####   ##        **
 **           ##                                                    ##        **
 **                                                                           **
 **                                                ... make the atoms dance   **
 **                                                                           **
 **            Copyright (C) by CP2K developers group (2000-2022)             **
 **                      J. Chem. Phys. 152, 194103 (2020)                    **
 **                                                                           **
 *******************************************************************************


 TOTAL NUMBERS AND MAXIMUM NUMBERS

  Total number of            - Atomic kinds:                                   2
                             - Atoms:                                          2
                             - Shell sets:                                    38
                             - Shells:                                        38
                             - Primitive Cartesian functions:                 57
                             - Cartesian basis functions:                    178
                             - Spherical basis functions:                    138

  Maximum angular momentum of- Orbital basis functions:                        4
                             - Local part of the GTH pseudopotential:          2
                             - Non-local part of the GTH pseudopotential:      4


 SCF PARAMETERS         Density guess:                                   RESTART
                        --------------------------------------------------------
                        max_scf:                                              20
                        max_scf_history:                                       0
                        max_diis:                                              4
                        --------------------------------------------------------
                        eps_scf:                                        5.00E-07
                        eps_scf_history:                                0.00E+00
                        eps_diis:                                       1.00E-01
                        eps_eigval:                                     1.00E-05
                        --------------------------------------------------------
                        level_shift [a.u.]:                             0.000000
                        --------------------------------------------------------
                        Outer loop SCF in use 
                        No variables optimised in outer loop
                        eps_scf                                         5.00E-07
                        max_scf                                                5
                        No outer loop optimization
                        step_size                                       5.00E-01

 Spin 1

 Number of electrons:                                                         11
 Number of occupied orbitals:                                                 11
 Number of molecular orbitals:                                                11

 Spin 2

 Number of electrons:                                                         10
 Number of occupied orbitals:                                                 10
 Number of molecular orbitals:                                                10

 Number of orbital functions:                                                138
 Number of independent orbital functions:                                    138

 Extrapolation method: initial_guess


 SCF WAVEFUNCTION OPTIMIZATION

  ----------------------------------- OT ---------------------------------------
  Minimizer      : CG                  : conjugate gradient
  Preconditioner : FULL_ALL            : diagonalization, state selective
  Precond_solver : DEFAULT
  Line search    : 2PNT                : 2 energies, one gradient
  stepsize       :    0.10000000                  energy_gap     :    0.08000000
  eps_taylor     :   0.10000E-15                  max_taylor     :             4
  ----------------------------------- OT ---------------------------------------

  Step     Update method      Time    Convergence         Total energy    Change
  ------------------------------------------------------------------------------
     1 OT CG       0.10E+00    2.1     0.00000022      -131.5245580077 -1.32E+02

  *** SCF run converged in     1 steps ***


  Electronic density on regular grids:        -19.1885344118        1.8114655882
  Core density on regular grids:               21.0000000000        0.0000000000
  Hard and soft densities (Lebedev):          -30.8864443986      -29.0749789216
  Total Rho_soft + Rho1_hard - Rho1_soft      -20.9999998888
  Total charge density (r-space):               0.0000001112
  Total Rho_soft + Rho0_soft (g-space):        -0.0000000584

  Overlap energy of the core charge distribution:               0.00000002123353
  Self energy of the core charge distribution:               -176.11420130761948
  Core Hamiltonian energy:                                     16.35302905469820
  Hartree energy:                                             110.50893705057130
  Exchange-correlation energy:                                -10.26453420937983

  GAPW| Exc from hard and soft atomic rho1:                    -4.89931888661127
  GAPW| local Eh = 1 center integrals:                        -67.10846973058713

  Total energy:                                              -131.52455800769468

  outer SCF iter =    1 RMS gradient =   0.22E-06 energy =       -131.5245580077
  outer SCF loop converged in   1 iterations or    1 steps


  Integrated absolute spin density  :                               2.0807086913
  Ideal and single determinant S**2 :                    0.750000       1.712315

 ENERGY| Total FORCE_EVAL ( QS ) energy [a.u.]:             -131.524558007694679

 -------------------------------------------------------------------------------
 -                                                                             -
 -                                DBCSR STATISTICS                             -
 -                                                                             -
 -------------------------------------------------------------------------------
 COUNTER                                    TOTAL       BLAS       SMM       ACC
 flops    10 x    10 x    10                 2000       0.0%    100.0%      0.0%
 flops    11 x    11 x    11                 2662       0.0%    100.0%      0.0%
 flops    10 x    10 x    57                57000       0.0%    100.0%      0.0%
 flops    11 x    11 x    57                68970       0.0%    100.0%      0.0%
 flops    10 x    10 x    81                81000       0.0%    100.0%      0.0%
 flops    11 x    11 x    81                98010       0.0%    100.0%      0.0%
 flops    57 x    57 x    10               129960       0.0%    100.0%      0.0%
 flops    57 x    57 x    11               142956       0.0%    100.0%      0.0%
 flops   138 x    10 x    10               165600       0.0%    100.0%      0.0%
 flops    57 x    81 x    10               184680       0.0%    100.0%      0.0%
 flops   138 x    11 x    11               200376       0.0%    100.0%      0.0%
 flops    57 x    81 x    11               203148       0.0%    100.0%      0.0%
 flops    81 x    81 x    10               262440       0.0%    100.0%      0.0%
 flops    81 x    81 x    11               288684       0.0%    100.0%      0.0%
 flops    57 x    11 x    57               571824       0.0%    100.0%      0.0%
 flops    57 x    10 x    57               584820       0.0%    100.0%      0.0%
 flops   138 x    10 x    57               629280       0.0%    100.0%      0.0%
 flops   138 x    11 x    57               692208       0.0%    100.0%      0.0%
 flops    57 x    11 x    81               812592       0.0%    100.0%      0.0%
 flops    81 x    11 x    57               812592       0.0%    100.0%      0.0%
 flops    57 x    10 x    81               831060       0.0%    100.0%      0.0%
 flops    81 x    10 x    57               831060       0.0%    100.0%      0.0%
 flops   138 x    10 x    81               894240       0.0%    100.0%      0.0%
 flops   138 x    11 x    81               983664       0.0%    100.0%      0.0%
 flops    81 x    11 x    81              1154736       0.0%    100.0%      0.0%
 flops    81 x    10 x    81              1180980       0.0%    100.0%      0.0%
 flops inhomo. stacks                           0       0.0%      0.0%      0.0%
 flops total                        11.866542E+06       0.0%    100.0%      0.0%
 flops max/rank                     11.593626E+06       0.0%    100.0%      0.0%
 matmuls inhomo. stacks                         0       0.0%      0.0%      0.0%
 matmuls total                                130       0.0%    100.0%      0.0%
 number of processed stacks                   130       0.0%    100.0%      0.0%
 average stack size                                     0.0       1.0       0.0
 marketing flops                    12.315366E+06
 -------------------------------------------------------------------------------
 # multiplications                             55
 max memory usage/rank             575.590400E+06
 # max total images/rank                        3
 # max 3D layers                                1
 # MPI messages exchanged                    5280
 MPI messages size (bytes):
  total size                        21.023712E+06
  min size                           0.000000E+00
  max size                          89.424000E+03
  average size                       3.981764E+03
 MPI breakdown and total messages size (bytes):
             size <=      128                4748                        0
       128 < size <=     8192                 202                  1052352
      8192 < size <=    32768                  80                   927360
     32768 < size <=   131072                 250                 19044000
    131072 < size <=  4194304                   0                        0
   4194304 < size <= 16777216                   0                        0
  16777216 < size                               0                        0
 -------------------------------------------------------------------------------

 *** WARNING in dbcsr_mm.F:290 :: Using a non-square number of MPI ranks ***
 *** might lead to poor performance. Used ranks: 12 Suggested: 9 25      ***

 -------------------------------------------------------------------------------
 -                                                                             -
 -                      DBCSR MESSAGE PASSING PERFORMANCE                      -
 -                                                                             -
 -------------------------------------------------------------------------------
 ROUTINE             CALLS      AVE VOLUME [Bytes]
 MP_Bcast               27                     12.
 MP_Allreduce          322                     12.
 MP_Alltoall           609                   6279.
 MP_ISend             1162                   4703.
 MP_IRecv             1100                   1665.
 -------------------------------------------------------------------------------

 -------------------------------------------------------------------------------
 -                                                                             -
 -                                GRID STATISTICS                              -
 -                                                                             -
 -------------------------------------------------------------------------------
 LP    KERNEL             BACKEND                              COUNT     PERCENT
 2     collocate ortho    REF                                   2768      16.61%
 1     collocate ortho    REF                                   2232      13.39%
 3     collocate ortho    REF                                   2216      13.29%
 4     collocate ortho    REF                                   1532       9.19%
 2     integrate ortho    REF                                   1384       8.30%
 1     integrate ortho    REF                                   1116       6.70%
 3     integrate ortho    REF                                   1108       6.65%
 0     collocate ortho    REF                                    972       5.83%
 5     collocate ortho    REF                                    916       5.50%
 4     integrate ortho    REF                                    766       4.60%
 0     integrate ortho    REF                                    486       2.92%
 5     integrate ortho    REF                                    458       2.75%
 6     collocate ortho    REF                                    324       1.94%
 6     integrate ortho    REF                                    162       0.97%
 7     collocate ortho    REF                                     92       0.55%
 7     integrate ortho    REF                                     46       0.28%
 8     collocate ortho    REF                                     28       0.17%
 2     collocate general  REF                                     24       0.14%
 2     integrate general  REF                                     24       0.14%
 8     integrate ortho    REF                                     14       0.08%
 -------------------------------------------------------------------------------

 MEMORY| Estimated peak process memory [MiB]                                 549

 -------------------------------------------------------------------------------
 -                                                                             -
 -                         MESSAGE PASSING PERFORMANCE                         -
 -                                                                             -
 -------------------------------------------------------------------------------

 ROUTINE             CALLS      AVE VOLUME [Bytes]
 MP_Group                4
 MP_Bcast              111                1899668.
 MP_Allreduce          504                  15300.
 MP_Sync                16
 MP_Alltoall            62               13906114.
 MP_ISendRecv          198                 338304.
 MP_Wait               350
 MP_comm_split           6
 MP_ISend              128                1258740.
 MP_IRecv              128                1258740.
 MP_Recv                 9                   2208.
 -------------------------------------------------------------------------------


 -------------------------------------------------------------------------------
 -                                                                             -
 -                           R E F E R E N C E S                               -
 -                                                                             -
 -------------------------------------------------------------------------------
 
 CP2K version 10.0 (Development Version), the CP2K developers group (2022).
 CP2K is freely available from https://www.cp2k.org/ .

 Kuehne,Thomas D.; Iannuzzi,Marcella; Del Ben,Mauro;
 Rybkin,Vladimir V.; Seewald,Patrick; Stein,Frederick; Laino,Teodoro;
 Khaliullin,Rustam Z.; Schuett,Ole; Schiffmann,Florian; Golze,Dorothea;
 Wilhelm,Jan; Chulkov,Sergey; Bani-Hashemian,Mohammad Hossein;
 Weber,Valery; Borstnik,Urban; Taillefumier,Mathieu;
 Jakobovits,Alice Shoshana; Lazzaro,Alfio; Pabst,Hans; Mueller,Tiziano;
 Schade,Robert; Guidon,Manuel; Andermatt,Samuel; Holmberg,Nico;
 Schenter,Gregory K.; Hehn,Anna; Bussy,Augustin; Belleflamme,Fabian;
 Tabacchi,Gloria; Gloess,Andreas; Lass,Michael; Bethune,Iain;
 Mundy,Christopher J.; Plessl,Christian; Watkins,Matt;
 VandeVondele,Joost; Krack,Matthias; Hutter,Juerg. 
 The Journal of Chemical Physics, 152 (19), (2020). 
 CP2K: An electronic structure and molecular dynamics software package -
 Quickstep: Efficient and accurate electronic structure calculations.
 https://doi.org/10.1063/5.0007045

 Schuett, Ole; Messmer, Peter; Hutter, Juerg; VandeVondele, Joost. 
 Electronic Structure Calculations on Graphics Processing Units, John
 Wiley & Sons, Ltd, 173-190 (2016). 
 GPU-Accelerated Sparse Matrix-Matrix Multiplication for
 Linear Scaling Density Functional Theory.
 https://doi.org/10.1002/9781118670712.ch8

 Heinecke, A; Henry, G; Hutchinson, M; Pabst, H. 
 Proceedings of Intl. Supercomputing Conference, 981-991 (2016). 
 LIBXSMM: Accelerating Small Matrix Multiplications
 by Runtime Code Generation.
 https://doi.org/10.1109/SC.2016.83

 Borstnik, U; VandeVondele, J; Weber, V; Hutter, J. 
 PARALLEL COMPUTING, 40 (5-6), 47-58 (2014). 
 Sparse matrix multiplication: The distributed block-compressed sparse
 row library.
 https://doi.org/10.1016/j.parco.2014.03.012

 Hutter, J; Iannuzzi, M; Schiffmann, F; VandeVondele, J. 
 WIREs Comput Mol Sci., 4 (1), 15-25 (2014). 
 CP2K: atomistic simulations of condensed matter systems.
 https://doi.org/10.1002/wcms.1159

 Marek, A; Blum, V; Johanni, R; Havu, V; Lang, B; Auckenthaler, T;
 Heinecke, A; Bungartz, H; Lederer, H. 
 Journal of Physics: Condensed Matter, 26 (21), (2014). 
 The ELPA library: scalable parallel eigenvalue solutions for
 electronic structure
 theory and computational science.
 https://doi.org/10.1088/0953-8984/26/21/213201

 Krack, M. 
 THEORETICAL CHEMISTRY ACCOUNTS, 114 (1-3), 145-152 (2005). 
 Pseudopotentials for H to Kr optimized for gradient-corrected
 exchange-correlation functionals.
 https://doi.org/10.1007/s00214-005-0655-y

 Frigo, M; Johnson, SG. 
 PROCEEDINGS OF THE IEEE, 93 (2), 216-231 (2005). 
 The design and implementation of FFTW3.
 https://doi.org/10.1109/JPROC.2004.840301

 VandeVondele, J; Hutter, J. 
 JOURNAL OF CHEMICAL PHYSICS, 118 (10), 4365-4369 (2003). 
 An efficient orbital transformation method for electronic structure
 calculations.
 https://doi.org/10.1063/1.1543154

 Lippert, G; Hutter, J; Parrinello, M. 
 THEORETICAL CHEMISTRY ACCOUNTS, 103 (2), 124-140 (1999). 
 The Gaussian and augmented-plane-wave density functional method for ab
 initio molecular dynamics simulations.
 https://doi.org/10.1007/s002140050523

 Krack, M; Parrinello, M. 
 PHYSICAL CHEMISTRY CHEMICAL PHYSICS, 2 (10), 2105-2112 (2000). 
 All-electron ab-initio molecular dynamics.
 https://doi.org/10.1039/b001167n

 Hartwigsen, C; Goedecker, S; Hutter, J. 
 PHYSICAL REVIEW B, 58 (7), 3641-3662 (1998). 
 Relativistic separable dual-space Gaussian pseudopotentials from H to Rn.
 https://doi.org/10.1103/PhysRevB.58.3641

 Perdew, JP; Burke, K; Ernzerhof, M. 
 PHYSICAL REVIEW LETTERS, 77 (18), 3865-3868 (1996). 
 Generalized gradient approximation made simple.
 https://doi.org/10.1103/PhysRevLett.77.3865

 Goedecker, S; Teter, M; Hutter, J. 
 PHYSICAL REVIEW B, 54 (3), 1703-1710 (1996). 
 Separable dual-space Gaussian pseudopotentials.
 https://doi.org/10.1103/PhysRevB.54.1703


 -------------------------------------------------------------------------------
 -                                                                             -
 -                                T I M I N G                                  -
 -                                                                             -
 -------------------------------------------------------------------------------
 SUBROUTINE                       CALLS  ASD         SELF TIME        TOTAL TIME
                                MAXIMUM       AVERAGE  MAXIMUM  AVERAGE  MAXIMUM
 CP2K                                 1  1.0    0.012    0.035    4.010    4.011
 qs_energies                          1  2.0    0.000    0.000    3.629    3.630
 scf_env_do_scf                       1  3.0    0.000    0.000    2.503    2.503
 init_scf_loop                        1  4.0    0.000    0.000    2.071    2.071
 qs_ks_update_qs_env                  2  5.0    0.000    0.000    2.013    2.013
 rebuild_ks_matrix                    1  6.0    0.000    0.000    2.013    2.013
 qs_ks_build_kohn_sham_matrix         1  7.0    0.000    0.000    2.013    2.013
 pw_transfer                         47  9.8    0.004    0.005    1.442    1.464
 fft_wrap_pw1pw2                     44 10.8    0.001    0.001    1.434    1.456
 fft_wrap_pw1pw2_300                 26 12.4    0.073    0.085    1.337    1.355
 qs_vxc_create                        1  8.0    0.000    0.000    1.145    1.145
 xc_vxc_pw_create                     1  9.0    0.017    0.021    1.145    1.145
 fft3d_ps                            44 12.8    0.572    0.654    1.055    1.141
 qs_rho_update_rho                    2  5.0    0.000    0.000    0.821    0.821
 calculate_rho_elec                   4  6.0    0.009    0.009    0.789    0.790
 xc_pw_derive                        12 11.0    0.000    0.000    0.700    0.731
 qs_energies_init_hamiltonians        1  3.0    0.000    0.000    0.686    0.686
 qs_env_update_s_mstruct              1  4.0    0.000    0.000    0.621    0.685
 qs_create_task_list                  1  5.0    0.000    0.000    0.621    0.685
 generate_qs_task_list                1  6.0    0.000    0.004    0.621    0.685
 distribute_tasks                     1  7.0    0.000    0.000    0.620    0.685
 get_current_loads                   10  8.8    0.000    0.000    0.620    0.684
 mp_alltoall_l                       11  9.7    0.619    0.684    0.619    0.684
 load_balance_distributed             1  8.0    0.000    0.000    0.619    0.684
 compute_load_list                    2  9.0    0.000    0.000    0.619    0.684
 build_core_hamiltonian_matrix        1  4.0    0.000    0.000    0.065    0.680
 xc_rho_set_and_dset_create           1 10.0    0.014    0.018    0.631    0.674
 density_rs2pw                        4  7.0    0.000    0.000    0.647    0.665
 mp_alltoall_z22v                    44 14.8    0.309    0.550    0.309    0.550
 xc_pw_divergence                     2 10.0    0.000    0.000    0.483    0.514
 init_scf_run                         1  3.0    0.000    0.000    0.431    0.431
 scf_env_initial_rho_setup            1  4.0    0.000    0.000    0.431    0.431
 scf_env_do_scf_inner_loop            1  4.0    0.000    0.000    0.431    0.431
 yz_to_x                             25 13.3    0.087    0.114    0.279    0.393
 rs_pw_transfer                      26  9.0    0.000    0.001    0.334    0.363
 build_core_ae                        1  5.0    0.028    0.332    0.028    0.332
 build_core_ppl                       1  5.0    0.028    0.329    0.028    0.329
 xc_functional_eval                   5 10.8    0.000    0.000    0.278    0.315
 pbe_lsd_eval                         5 11.8    0.278    0.315    0.278    0.315
 qs_init_subsys                       1  2.0    0.004    0.004    0.306    0.306
 sum_up_and_integrate                 1  8.0    0.002    0.003    0.290    0.291
 integrate_v_rspace                   2  9.0    0.000    0.000    0.288    0.289
 x_to_yz                             19 14.5    0.082    0.104    0.200    0.259
 prepare_gapw_den                     1  8.0    0.000    0.000    0.245    0.249
 mp_sum_d                           504  1.7    0.193    0.243    0.193    0.243
 potential_pw2rs                      2 10.0    0.000    0.000    0.227    0.228
 qs_env_setup                         1  3.0    0.000    0.000    0.212    0.228
 qs_env_rebuild_pw_env                2  3.5    0.000    0.000    0.212    0.227
 pw_env_rebuild                       1  5.0    0.000    0.000    0.212    0.227
 pw_gather_p                         25 12.3    0.157    0.199    0.157    0.199
 rs_pw_transfer_RS2PW_300             5  9.4    0.084    0.101    0.165    0.196
 pw_grid_setup                        4  6.0    0.000    0.000    0.179    0.179
 pw_grid_setup_internal               4  7.0    0.005    0.005    0.179    0.179
 pw_scatter_p                        19 13.5    0.144    0.160    0.144    0.160
 calculate_vxc_atom                   1  8.0    0.002    0.016    0.160    0.160
 mp_waitany                         128 11.1    0.097    0.154    0.097    0.154
 grid_collocate_task_list             4  7.0    0.116    0.147    0.116    0.147
 gaVxcgb_GC                           2  9.0    0.012    0.139    0.012    0.139
 calculate_rho_atom                   2  9.0    0.037    0.137    0.037    0.137
 pw_grid_sort                         4  8.0    0.085    0.097    0.119    0.137
 mp_sum_dv                           12 11.2    0.091    0.115    0.091    0.115
 rs_pw_transfer_PW2RS_300             3 11.3    0.049    0.057    0.091    0.099
 fft_wrap_pw1pw2_100                  6 11.0    0.003    0.004    0.078    0.097
 put_rho0_on_grid                     1  9.0    0.002    0.002    0.086    0.090
 init_rho_atom                        1  3.0    0.000    0.000    0.073    0.085
 -------------------------------------------------------------------------------

 The number of warnings for this run is : 1
 
 -------------------------------------------------------------------------------
  **** **** ******  **  PROGRAM ENDED AT                 2022-05-30 17:38:24.078
 ***** ** ***  *** **   PROGRAM RAN ON                                   tcopt10
 **    ****   ******    PROGRAM RAN BY                                    hutter
 ***** **    ** ** **   PROGRAM PROCESS ID                                 77819
  **** **  *******  **  PROGRAM STOPPED IN /data/hutter/GITHUB/BASIS/scMOLOPT/PB
                                           E/Nb
