 DBCSR| CPU Multiplication driver                                           XSMM
 DBCSR| Multrec recursion limit                                              512
 DBCSR| Multiplication stack size                                           1000
 DBCSR| Maximum elements for images                                    UNLIMITED
 DBCSR| Multiplicative factor virtual images                                   1
 DBCSR| Use multiplication densification                                       T
 DBCSR| Multiplication size stacks                                             3
 DBCSR| Use memory pool for CPU allocation                                     F
 DBCSR| Number of 3D layers                                               SINGLE
 DBCSR| Use MPI memory allocation                                              F
 DBCSR| Use RMA algorithm                                                      F
 DBCSR| Use Communication thread                                               T
 DBCSR| Communication thread load                                             87
 DBCSR| MPI: My node id                                                        0
 DBCSR| MPI: Number of nodes                                                  48
 DBCSR| OMP: Current number of threads                                         1
 DBCSR| OMP: Max number of threads                                             1
 DBCSR| Split modifier for TAS multiplication algorithm                  1.0E+00


  **** **** ******  **  PROGRAM STARTED AT               2022-05-13 12:24:49.408
 ***** ** ***  *** **   PROGRAM STARTED ON                               tcopt10
 **    ****   ******    PROGRAM STARTED BY                                hutter
 ***** **    ** ** **   PROGRAM PROCESS ID                                 81893
  **** **  *******  **  PROGRAM STARTED IN /data/hutter/GITHUB/BASIS/scMOLOPT/PB
                                           E/Cr

 CP2K| version string:                   CP2K version 10.0 (Development Version)
 CP2K| source code revision number:                                  git:13fcfd8
 CP2K| cp2kflags: omp libint fftw3 libxc elpa parallel mpi3 scalapack cosma xsmm
 CP2K|             spglib sirius libvori libbqb
 CP2K| is freely available from                            https://www.cp2k.org/
 CP2K| Program compiled at                      Tue 10 May 2022 02:27:21 PM CEST
 CP2K| Program compiled on                                               tcopt10
 CP2K| Program compiled for                                                local
 CP2K| Data directory path                   /data/hutter/GITHUB/TDLRI/cp2k/data
 CP2K| Input file name                                             CrCO6-ref.inp

 GLOBAL| Force Environment number                                              1
 GLOBAL| Basis set file name                                        ../def2QZVPP
 GLOBAL| Potential file name                                        ../POTENTIAL
 GLOBAL| MM Potential file name                                     MM_POTENTIAL
 GLOBAL| Coordinate file name                                      __STD_INPUT__
 GLOBAL| Method name                                                        CP2K
 GLOBAL| Project name                                                   refCrCO6
 GLOBAL| Run type                                                         ENERGY
 GLOBAL| FFT library                                                       FFTW3
 GLOBAL| Diagonalization library                                       ScaLAPACK
 GLOBAL| Orthonormality check for eigenvectors                          DISABLED
 GLOBAL| Matrix multiplication library                                     COSMA
 GLOBAL| All-to-all communication in single precision                          F
 GLOBAL| FFTs using library dependent lengths                                  F
 GLOBAL| Grid backend                                                       AUTO
 GLOBAL| Global print level                                                  LOW
 GLOBAL| MPI I/O enabled                                                       T
 GLOBAL| Total number of message passing processes                            48
 GLOBAL| Number of threads for this process                                    1
 GLOBAL| This output is from process                                           0
 GLOBAL| Stack size for threads created by OpenMP (OMP_STACKSIZE)        default
 GLOBAL| CPU model name                          AMD EPYC 7401 24-Core Processor
 GLOBAL| CPUID                                                              1002

 MEMORY| system memory details [Kb]
 MEMORY|                        rank 0           min           max       average
 MEMORY| MemTotal            263969136     263969136     263969136     263969136
 MEMORY| MemFree             237829116     237829116     237829116     237829116
 MEMORY| Buffers                   136           136           136           136
 MEMORY| Cached               18972984      18972984      18972984      18972984
 MEMORY| Slab                  1425332       1425332       1425332       1425332
 MEMORY| SReclaimable           872400        872400        872400        872400
 MEMORY| MemLikelyFree       257674636     257674636     257674636     257674636


 GENERATE|  Preliminary Number of Bonds generated:                             0
 GENERATE|  Achieved consistency in connectivity generation.

 *******************************************************************************
 *******************************************************************************
 **                                                                           **
 **     #####                         ##              ##                      **
 **    ##   ##            ##          ##              ##                      **
 **   ##     ##                       ##            ######                    **
 **   ##     ##  ##   ##  ##   #####  ##  ##   ####   ##    #####    #####    **
 **   ##     ##  ##   ##  ##  ##      ## ##   ##      ##   ##   ##  ##   ##   **
 **   ##  ## ##  ##   ##  ##  ##      ####     ###    ##   ######   ######    **
 **    ##  ###   ##   ##  ##  ##      ## ##      ##   ##   ##       ##        **
 **     #######   #####   ##   #####  ##  ##  ####    ##    #####   ##        **
 **           ##                                                    ##        **
 **                                                                           **
 **                                                ... make the atoms dance   **
 **                                                                           **
 **            Copyright (C) by CP2K developers group (2000-2022)             **
 **                      J. Chem. Phys. 152, 194103 (2020)                    **
 **                                                                           **
 *******************************************************************************


 TOTAL NUMBERS AND MAXIMUM NUMBERS

  Total number of            - Atomic kinds:                                   3
                             - Atoms:                                         13
                             - Shell sets:                                   231
                             - Shells:                                       231
                             - Primitive Cartesian functions:                404
                             - Cartesian basis functions:                    983
                             - Spherical basis functions:                    777

  Maximum angular momentum of the orbital basis functions:                     4


 SCF PARAMETERS         Density guess:                                    ATOMIC
                        --------------------------------------------------------
                        max_scf:                                              20
                        max_scf_history:                                       0
                        max_diis:                                              4
                        --------------------------------------------------------
                        eps_scf:                                        1.00E-07
                        eps_scf_history:                                0.00E+00
                        eps_diis:                                       1.00E-01
                        eps_eigval:                                     1.00E-05
                        --------------------------------------------------------
                        level_shift [a.u.]:                             0.000000
                        --------------------------------------------------------
                        Outer loop SCF in use 
                        No variables optimised in outer loop
                        eps_scf                                         1.00E-07
                        max_scf                                                5
                        No outer loop optimization
                        step_size                                       5.00E-01

 Spin 1

 Number of electrons:                                                         54
 Number of occupied orbitals:                                                 54
 Number of molecular orbitals:                                                54

 Spin 2

 Number of electrons:                                                         54
 Number of occupied orbitals:                                                 54
 Number of molecular orbitals:                                                54

 Number of orbital functions:                                                777
 Number of independent orbital functions:                                    777

 Extrapolation method: initial_guess


 SCF WAVEFUNCTION OPTIMIZATION

  ----------------------------------- OT ---------------------------------------
  Minimizer      : DIIS                : direct inversion
                                         in the iterative subspace
                                         using   7 DIIS vectors
                                         safer DIIS on
  Preconditioner : FULL_ALL            : diagonalization, state selective
  Precond_solver : DEFAULT
  stepsize       :    0.10000000                  energy_gap     :    0.08000000
  eps_taylor     :   0.10000E-15                  max_taylor     :             4
  ----------------------------------- OT ---------------------------------------

  Step     Update method      Time    Convergence         Total energy    Change
  ------------------------------------------------------------------------------
     1 OT DIIS     0.10E+00    2.2     0.06431508     -1645.6698775501 -1.65E+03
     2 OT DIIS     0.10E+00    2.3     0.04937285     -1676.4391073990 -3.08E+01
     3 OT DIIS     0.10E+00    2.3     0.01574243     -1713.8964529978 -3.75E+01
     4 OT DIIS     0.10E+00    2.3     0.01160117     -1715.2167210772 -1.32E+00
     5 OT DIIS     0.10E+00    2.3     0.00569848     -1717.9886894407 -2.77E+00
     6 OT DIIS     0.10E+00    2.3     0.00463193     -1718.2830365470 -2.94E-01
     7 OT DIIS     0.10E+00    2.3     0.00374771     -1719.0058871031 -7.23E-01
     8 OT DIIS     0.10E+00    2.3     0.00331245     -1719.7154190393 -7.10E-01
     9 OT DIIS     0.10E+00    2.3     0.00266248     -1720.4150330814 -7.00E-01
    10 OT DIIS     0.10E+00    2.3     0.00204356     -1721.0001290020 -5.85E-01
    11 OT DIIS     0.10E+00    2.3     0.00190221     -1721.1714114329 -1.71E-01
    12 OT DIIS     0.10E+00    2.3     0.00170479     -1721.3576690845 -1.86E-01
    13 OT DIIS     0.10E+00    2.3     0.00160707     -1721.5178217398 -1.60E-01
    14 OT DIIS     0.10E+00    2.3     0.00141013     -1721.8138926589 -2.96E-01
    15 OT DIIS     0.10E+00    2.3     0.00140722     -1721.8169495957 -3.06E-03
    16 OT DIIS     0.10E+00    2.2     0.00134450     -1721.8649250285 -4.80E-02
    17 OT DIIS     0.10E+00    2.3     0.00122650     -1722.0571463304 -1.92E-01
    18 OT DIIS     0.10E+00    2.3     0.00116536     -1722.1562002037 -9.91E-02
    19 OT DIIS     0.10E+00    2.3     0.00108507     -1722.2792423201 -1.23E-01
    20 OT DIIS     0.10E+00    2.3     0.00103558     -1722.3543396939 -7.51E-02

  Leaving inner SCF loop after reaching    20 steps.


  Electronic density on regular grids:        -73.6936548157       34.3063451843
  Core density on regular grids:              108.0000000000        0.0000000000
  Hard and soft densities (Lebedev):         -212.2560135609     -177.9496852535
  Total Rho_soft + Rho1_hard - Rho1_soft     -107.9999831231
  Total charge density (r-space):               0.0000168769
  Total Rho_soft + Rho0_soft (g-space):         0.0000141009

  Overlap energy of the core charge distribution:               0.00004134299378
  Self energy of the core charge distribution:              -1051.29017422139373
  Core Hamiltonian energy:                                   -710.00389597130834
  Hartree energy:                                             193.13044555749499
  Exchange-correlation energy:                                -40.62684852203556

  GAPW| Exc from hard and soft atomic rho1:                   -90.72272771169050
  GAPW| local Eh = 1 center integrals:                        -22.84118016795936

  Total energy:                                             -1722.35433969389874

  outer SCF iter =    1 RMS gradient =   0.10E-02 energy =      -1722.3543396939

  ----------------------------------- OT ---------------------------------------
  Minimizer      : DIIS                : direct inversion
                                         in the iterative subspace
                                         using   7 DIIS vectors
                                         safer DIIS on
  Preconditioner : FULL_ALL            : diagonalization, state selective
  Precond_solver : DEFAULT
  stepsize       :    0.10000000                  energy_gap     :    0.08000000
  eps_taylor     :   0.10000E-15                  max_taylor     :             4
  ----------------------------------- OT ---------------------------------------

  Step     Update method      Time    Convergence         Total energy    Change
  ------------------------------------------------------------------------------
     1 OT DIIS     0.10E+00    4.9     0.00849103     -1722.4561312925 -1.02E-01
     2 OT DIIS     0.10E+00    2.3     0.00743527     -1723.0168969389 -5.61E-01
     3 OT DIIS     0.10E+00    2.3     0.00712541     -1723.4365715081 -4.20E-01
     4 OT DIIS     0.10E+00    2.3     0.00407767     -1723.6039353533 -1.67E-01
     5 OT DIIS     0.10E+00    2.3     0.00296109     -1723.6443566278 -4.04E-02
     6 OT DIIS     0.10E+00    2.3     0.00273040     -1723.6995166707 -5.52E-02
     7 OT DIIS     0.10E+00    2.3     0.00274376     -1723.7451459231 -4.56E-02
     8 OT SD       0.10E+00    2.3     0.00287092     -1723.7616889469 -1.65E-02
     9 OT SD       0.10E+00    2.3     0.00259440     -1723.8237379167 -6.20E-02
    10 OT SD       0.10E+00    2.2     0.00260045     -1723.8694036364 -4.57E-02
    11 OT SD       0.10E+00    2.3     0.00341731     -1723.8969656091 -2.76E-02
    12 OT DIIS     0.10E+00    2.3     0.00565574     -1723.8932205879  3.75E-03
    13 OT DIIS     0.10E+00    2.3     0.00308425     -1723.8130367322  8.02E-02
    14 OT DIIS     0.10E+00    2.3     0.00291913     -1723.8307215167 -1.77E-02
    15 OT DIIS     0.10E+00    2.3     0.00146051     -1723.9651437795 -1.34E-01
    16 OT DIIS     0.10E+00    2.3     0.00116391     -1723.9919804691 -2.68E-02
    17 OT DIIS     0.10E+00    2.3     0.00097115     -1724.0164644297 -2.45E-02
    18 OT DIIS     0.10E+00    2.3     0.00097962     -1724.0111181011  5.35E-03
    19 OT DIIS     0.10E+00    2.3     0.00046056     -1724.0225595987 -1.14E-02
    20 OT DIIS     0.10E+00    2.2     0.00077962     -1724.0242672107 -1.71E-03

  Leaving inner SCF loop after reaching    20 steps.


  Electronic density on regular grids:        -73.7992318762       34.2007681238
  Core density on regular grids:              108.0000000000        0.0000000000
  Hard and soft densities (Lebedev):         -215.5697775941     -181.3690262024
  Total Rho_soft + Rho1_hard - Rho1_soft     -107.9999832679
  Total charge density (r-space):               0.0000167321
  Total Rho_soft + Rho0_soft (g-space):         0.0000139546

  Overlap energy of the core charge distribution:               0.00004134299378
  Self energy of the core charge distribution:              -1051.29017422139373
  Core Hamiltonian energy:                                   -712.52982347749139
  Hartree energy:                                             194.39231335692028
  Exchange-correlation energy:                                -40.67140349487993

  GAPW| Exc from hard and soft atomic rho1:                   -90.56313667968404
  GAPW| local Eh = 1 center integrals:                        -23.36208403718229

  Total energy:                                             -1724.02426721071720

  outer SCF iter =    2 RMS gradient =   0.78E-03 energy =      -1724.0242672107

  ----------------------------------- OT ---------------------------------------
  Minimizer      : DIIS                : direct inversion
                                         in the iterative subspace
                                         using   7 DIIS vectors
                                         safer DIIS on
  Preconditioner : FULL_ALL            : diagonalization, state selective
  Precond_solver : DEFAULT
  stepsize       :    0.10000000                  energy_gap     :    0.08000000
  eps_taylor     :   0.10000E-15                  max_taylor     :             4
  ----------------------------------- OT ---------------------------------------

  Step     Update method      Time    Convergence         Total energy    Change
  ------------------------------------------------------------------------------
     1 OT DIIS     0.10E+00    4.8     0.00028288     -1724.0259238273 -1.66E-03
     2 OT DIIS     0.10E+00    2.2     0.00023750     -1724.0264698193 -5.46E-04
     3 OT DIIS     0.10E+00    2.3     0.00019785     -1724.0267758495 -3.06E-04
     4 OT DIIS     0.10E+00    2.3     0.00003673     -1724.0275043808 -7.29E-04
     5 OT DIIS     0.10E+00    2.2     0.00001981     -1724.0275211218 -1.67E-05
     6 OT DIIS     0.10E+00    2.2     0.00001093     -1724.0275280471 -6.93E-06
     7 OT DIIS     0.10E+00    2.2     0.00000515     -1724.0275304888 -2.44E-06
     8 OT DIIS     0.10E+00    2.2     0.00000220     -1724.0275310385 -5.50E-07
     9 OT DIIS     0.10E+00    2.3     0.00000098     -1724.0275311229 -8.44E-08
    10 OT DIIS     0.10E+00    2.2     0.00000064     -1724.0275311457 -2.29E-08
    11 OT DIIS     0.10E+00    2.3     0.00000044     -1724.0275311611 -1.53E-08
    12 OT DIIS     0.10E+00    2.2     0.00000016     -1724.0275311893 -2.82E-08
    13 OT DIIS     0.10E+00    2.3     0.00000010     -1724.0275311999 -1.07E-08
    14 OT DIIS     0.10E+00    2.3     0.00000006     -1724.0275312157 -1.57E-08

  *** SCF run converged in    14 steps ***


  Electronic density on regular grids:        -73.7883012799       34.2116987201
  Core density on regular grids:              108.0000000000        0.0000000000
  Hard and soft densities (Lebedev):         -215.5676904405     -181.3560084297
  Total Rho_soft + Rho1_hard - Rho1_soft     -107.9999832907
  Total charge density (r-space):               0.0000167093
  Total Rho_soft + Rho0_soft (g-space):         0.0000139319

  Overlap energy of the core charge distribution:               0.00004134299378
  Self energy of the core charge distribution:              -1051.29017422139373
  Core Hamiltonian energy:                                   -712.43401752316117
  Hartree energy:                                             194.18937824356280
  Exchange-correlation energy:                                -40.67783962096858

  GAPW| Exc from hard and soft atomic rho1:                   -90.57905057852886
  GAPW| local Eh = 1 center integrals:                        -23.23586885815751

  Total energy:                                             -1724.02753121565343

  outer SCF iter =    3 RMS gradient =   0.57E-07 energy =      -1724.0275312157
  outer SCF loop converged in   3 iterations or   54 steps


  Integrated absolute spin density  :                               0.0000754983
  Ideal and single determinant S**2 :                    0.000000      -0.000000

 ENERGY| Total FORCE_EVAL ( QS ) energy [a.u.]:            -1724.027531215653426

 -------------------------------------------------------------------------------
 -                                                                             -
 -                                DBCSR STATISTICS                             -
 -                                                                             -
 -------------------------------------------------------------------------------
 COUNTER                                    TOTAL       BLAS       SMM       ACC
 flops    93 x    22 x    22               540144       0.0%    100.0%      0.0%
 flops    93 x    32 x    32              1142784       0.0%    100.0%      0.0%
 flops    57 x    22 x    22              3972672       0.0%    100.0%      0.0%
 flops    57 x    32 x    32              8404992       0.0%    100.0%      0.0%
 flops    22 x    22 x    22             18229376       0.0%    100.0%      0.0%
 flops    22 x    22 x    32             26515456       0.0%    100.0%      0.0%
 flops    22 x    32 x    22             26515456       0.0%    100.0%      0.0%
 flops    32 x    22 x    22             26515456       0.0%    100.0%      0.0%
 flops    32 x    32 x    22             38567936       0.0%    100.0%      0.0%
 flops    22 x    32 x    32             38567936       0.0%    100.0%      0.0%
 flops    32 x    22 x    32             38567936       0.0%    100.0%      0.0%
 flops    22 x    22 x    93             39430512       0.0%    100.0%      0.0%
 flops    93 x    93 x    22             41861160       0.0%    100.0%      0.0%
 flops    22 x    22 x   114             48334176       0.0%    100.0%      0.0%
 flops    32 x    32 x    32             56098816       0.0%    100.0%      0.0%
 flops    22 x    32 x    93             57353472       0.0%    100.0%      0.0%
 flops    32 x    22 x    93             57353472       0.0%    100.0%      0.0%
 flops    93 x    93 x    32             60888960       0.0%    100.0%      0.0%
 flops    22 x    32 x   114             70304256       0.0%    100.0%      0.0%
 flops    32 x    22 x   114             70304256       0.0%    100.0%      0.0%
 flops    32 x    32 x    93             83423232       0.0%    100.0%      0.0%
 flops    93 x    22 x    93             97802892       0.0%    100.0%      0.0%
 flops    32 x    32 x   114            102260736       0.0%    100.0%      0.0%
 flops   207 x    22 x    22            108203040       0.0%    100.0%      0.0%
 flops   228 x    22 x    22            119180160       0.0%    100.0%      0.0%
 flops    93 x    32 x    93            142258752       0.0%    100.0%      0.0%
 flops    57 x    93 x    22            153941040       0.0%    100.0%      0.0%
 flops    93 x    57 x    22            153941040       0.0%    100.0%      0.0%
 flops   207 x    32 x    22            157386240       0.0%    100.0%      0.0%
 flops   207 x    22 x    32            157386240       0.0%    100.0%      0.0%
 flops   228 x    22 x    32            173352960       0.0%    100.0%      0.0%
 flops   228 x    32 x    22            173352960       0.0%    100.0%      0.0%
 flops   171 x    22 x    22            178770240       0.0%    100.0%      0.0%
 flops   207 x    22 x    93            193126032       0.0%    100.0%      0.0%
 flops   228 x    22 x    93            212718528       0.0%    100.0%      0.0%
 flops    57 x    93 x    32            223914240       0.0%    100.0%      0.0%
 flops    93 x    57 x    32            223914240       0.0%    100.0%      0.0%
 flops   207 x    32 x    32            228925440       0.0%    100.0%      0.0%
 flops   207 x    22 x   114            236735136       0.0%    100.0%      0.0%
 flops    22 x    22 x    57            241670880       0.0%    100.0%      0.0%
 flops   228 x    32 x    32            252149760       0.0%    100.0%      0.0%
 flops   171 x    22 x    32            260029440       0.0%    100.0%      0.0%
 flops   171 x    32 x    22            260029440       0.0%    100.0%      0.0%
 flops   228 x    22 x   114            260751744       0.0%    100.0%      0.0%
 flops   207 x    32 x    93            280910592       0.0%    100.0%      0.0%
 flops   228 x    32 x    93            309408768       0.0%    100.0%      0.0%
 flops   171 x    22 x    93            319077792       0.0%    100.0%      0.0%
 flops   207 x    32 x   114            344342016       0.0%    100.0%      0.0%
 flops    22 x    32 x    57            351521280       0.0%    100.0%      0.0%
 flops    32 x    22 x    57            351521280       0.0%    100.0%      0.0%
 flops   171 x    32 x    32            378224640       0.0%    100.0%      0.0%
 flops   228 x    32 x   114            379275264       0.0%    100.0%      0.0%
 flops   171 x    22 x   114            391127616       0.0%    100.0%      0.0%
 flops   171 x    32 x    93            464113152       0.0%    100.0%      0.0%
 flops    32 x    32 x    57            511303680       0.0%    100.0%      0.0%
 flops   171 x    32 x   114            568912896       0.0%    100.0%      0.0%
 flops    57 x    22 x    93            719324496       0.0%    100.0%      0.0%
 flops    93 x    22 x    57            719324496       0.0%    100.0%      0.0%
 flops    57 x    32 x    93           1046290176       0.0%    100.0%      0.0%
 flops    93 x    32 x    57           1046290176       0.0%    100.0%      0.0%
 flops   207 x    22 x    57           1183675680       0.0%    100.0%      0.0%
 flops    57 x    57 x    22           1226562480       0.0%    100.0%      0.0%
 flops   228 x    22 x    57           1303758720       0.0%    100.0%      0.0%
 flops   207 x    32 x    57           1721710080       0.0%    100.0%      0.0%
 flops    57 x    57 x    32           1784090880       0.0%    100.0%      0.0%
 flops   228 x    32 x    57           1896376320       0.0%    100.0%      0.0%
 flops   171 x    22 x    57           1955638080       0.0%    100.0%      0.0%
 flops   171 x    32 x    57           2844564480       0.0%    100.0%      0.0%
 flops    57 x    22 x    57           5290515648       0.0%    100.0%      0.0%
 flops    57 x    32 x    57           7695295488       0.0%    100.0%      0.0%
 flops inhomo. stacks                           0       0.0%      0.0%      0.0%
 flops total                        40.207850E+09       0.0%    100.0%      0.0%
 flops max/rank                      6.338678E+09       0.0%    100.0%      0.0%
 matmuls inhomo. stacks                         0       0.0%      0.0%      0.0%
 matmuls total                             165442       0.0%    100.0%      0.0%
 number of processed stacks                100520       0.0%    100.0%      0.0%
 average stack size                                     0.0       1.6       0.0
 marketing flops                    43.551736E+09
 -------------------------------------------------------------------------------
 # multiplications                           2441
 max memory usage/rank             527.564800E+06
 # max total images/rank                        3
 # max 3D layers                                1
 # MPI messages exchanged                 2343360
 MPI messages size (bytes):
  total size                        31.165063E+09
  min size                           0.000000E+00
  max size                         207.936000E+03
  average size                      13.299307E+03
 MPI breakdown and total messages size (bytes):
             size <=      128             1785092                        0
       128 < size <=     8192               54452                317571264
      8192 < size <=    32768              204440               3091797360
     32768 < size <=   131072              267366              22247831232
    131072 < size <=  4194304               32010               5507128440
   4194304 < size <= 16777216                   0                        0
  16777216 < size                               0                        0
 -------------------------------------------------------------------------------

 *** WARNING in dbcsr_mm.F:290 :: Using a non-square number of MPI ranks ***
 *** might lead to poor performance. Used ranks: 48 Suggested: 49 100    ***

 -------------------------------------------------------------------------------
 -                                                                             -
 -                      DBCSR MESSAGE PASSING PERFORMANCE                      -
 -                                                                             -
 -------------------------------------------------------------------------------
 ROUTINE             CALLS      AVE VOLUME [Bytes]
 MP_Bcast               71                     12.
 MP_Allreduce        13124                      8.
 MP_Alltoall          8701                   7490.
 MP_ISend           110542                   8502.
 MP_IRecv           109042                   7579.
 -------------------------------------------------------------------------------

 -------------------------------------------------------------------------------
 -                                                                             -
 -                                GRID STATISTICS                              -
 -                                                                             -
 -------------------------------------------------------------------------------
 LP    KERNEL             BACKEND                              COUNT     PERCENT
 2     collocate ortho    REF                                 719180      12.49%
 2     integrate ortho    REF                                 706104      12.26%
 3     collocate ortho    REF                                 583440      10.13%
 1     collocate ortho    REF                                 577940      10.03%
 3     integrate ortho    REF                                 572832       9.95%
 1     integrate ortho    REF                                 567432       9.85%
 4     collocate ortho    REF                                 414260       7.19%
 4     integrate ortho    REF                                 406728       7.06%
 5     collocate ortho    REF                                 229900       3.99%
 5     integrate ortho    REF                                 225720       3.92%
 0     collocate ortho    REF                                 208780       3.63%
 0     integrate ortho    REF                                 204984       3.56%
 6     collocate ortho    REF                                  90970       1.58%
 6     integrate ortho    REF                                  89316       1.55%
 7     collocate ortho    REF                                  38280       0.66%
 7     integrate ortho    REF                                  37584       0.65%
 2     collocate general  REF                                  33696       0.59%
 2     integrate general  REF                                  33696       0.59%
 8     collocate ortho    REF                                   9350       0.16%
 8     integrate ortho    REF                                   9180       0.16%
 -------------------------------------------------------------------------------

 MEMORY| Estimated peak process memory [MiB]                                 504

 -------------------------------------------------------------------------------
 -                                                                             -
 -                         MESSAGE PASSING PERFORMANCE                         -
 -                                                                             -
 -------------------------------------------------------------------------------

 ROUTINE             CALLS      AVE VOLUME [Bytes]
 MP_Group                4
 MP_Bcast             6673                  64022.
 MP_Allreduce        14082                 124088.
 MP_Sync               200
 MP_Alltoall          2295                4804418.
 MP_ISendRecv        30738                 115392.
 MP_Wait             50624
 MP_comm_split          98
 MP_ISend            18256                 203820.
 MP_IRecv            18256                 203854.
 MP_Recv                60                  31080.
 -------------------------------------------------------------------------------


 -------------------------------------------------------------------------------
 -                                                                             -
 -                           R E F E R E N C E S                               -
 -                                                                             -
 -------------------------------------------------------------------------------
 
 CP2K version 10.0 (Development Version), the CP2K developers group (2022).
 CP2K is freely available from https://www.cp2k.org/ .

 Kuehne,Thomas D.; Iannuzzi,Marcella; Del Ben,Mauro;
 Rybkin,Vladimir V.; Seewald,Patrick; Stein,Frederick; Laino,Teodoro;
 Khaliullin,Rustam Z.; Schuett,Ole; Schiffmann,Florian; Golze,Dorothea;
 Wilhelm,Jan; Chulkov,Sergey; Bani-Hashemian,Mohammad Hossein;
 Weber,Valery; Borstnik,Urban; Taillefumier,Mathieu;
 Jakobovits,Alice Shoshana; Lazzaro,Alfio; Pabst,Hans; Mueller,Tiziano;
 Schade,Robert; Guidon,Manuel; Andermatt,Samuel; Holmberg,Nico;
 Schenter,Gregory K.; Hehn,Anna; Bussy,Augustin; Belleflamme,Fabian;
 Tabacchi,Gloria; Gloess,Andreas; Lass,Michael; Bethune,Iain;
 Mundy,Christopher J.; Plessl,Christian; Watkins,Matt;
 VandeVondele,Joost; Krack,Matthias; Hutter,Juerg. 
 The Journal of Chemical Physics, 152 (19), (2020). 
 CP2K: An electronic structure and molecular dynamics software package -
 Quickstep: Efficient and accurate electronic structure calculations.
 https://doi.org/10.1063/5.0007045

 Schuett, Ole; Messmer, Peter; Hutter, Juerg; VandeVondele, Joost. 
 Electronic Structure Calculations on Graphics Processing Units, John
 Wiley & Sons, Ltd, 173-190 (2016). 
 GPU-Accelerated Sparse Matrix-Matrix Multiplication for
 Linear Scaling Density Functional Theory.
 https://doi.org/10.1002/9781118670712.ch8

 Heinecke, A; Henry, G; Hutchinson, M; Pabst, H. 
 Proceedings of Intl. Supercomputing Conference, 981-991 (2016). 
 LIBXSMM: Accelerating Small Matrix Multiplications
 by Runtime Code Generation.
 https://doi.org/10.1109/SC.2016.83

 Borstnik, U; VandeVondele, J; Weber, V; Hutter, J. 
 PARALLEL COMPUTING, 40 (5-6), 47-58 (2014). 
 Sparse matrix multiplication: The distributed block-compressed sparse
 row library.
 https://doi.org/10.1016/j.parco.2014.03.012

 Hutter, J; Iannuzzi, M; Schiffmann, F; VandeVondele, J. 
 WIREs Comput Mol Sci., 4 (1), 15-25 (2014). 
 CP2K: atomistic simulations of condensed matter systems.
 https://doi.org/10.1002/wcms.1159

 Frigo, M; Johnson, SG. 
 PROCEEDINGS OF THE IEEE, 93 (2), 216-231 (2005). 
 The design and implementation of FFTW3.
 https://doi.org/10.1109/JPROC.2004.840301

 VandeVondele, J; Hutter, J. 
 JOURNAL OF CHEMICAL PHYSICS, 118 (10), 4365-4369 (2003). 
 An efficient orbital transformation method for electronic structure
 calculations.
 https://doi.org/10.1063/1.1543154

 Lippert, G; Hutter, J; Parrinello, M. 
 THEORETICAL CHEMISTRY ACCOUNTS, 103 (2), 124-140 (1999). 
 The Gaussian and augmented-plane-wave density functional method for ab
 initio molecular dynamics simulations.
 https://doi.org/10.1007/s002140050523

 Krack, M; Parrinello, M. 
 PHYSICAL CHEMISTRY CHEMICAL PHYSICS, 2 (10), 2105-2112 (2000). 
 All-electron ab-initio molecular dynamics.
 https://doi.org/10.1039/b001167n

 Perdew, JP; Burke, K; Ernzerhof, M. 
 PHYSICAL REVIEW LETTERS, 77 (18), 3865-3868 (1996). 
 Generalized gradient approximation made simple.
 https://doi.org/10.1103/PhysRevLett.77.3865


 -------------------------------------------------------------------------------
 -                                                                             -
 -                                T I M I N G                                  -
 -                                                                             -
 -------------------------------------------------------------------------------
 SUBROUTINE                       CALLS  ASD         SELF TIME        TOTAL TIME
                                MAXIMUM       AVERAGE  MAXIMUM  AVERAGE  MAXIMUM
 CP2K                                 1  1.0    0.010    0.031  124.806  124.814
 qs_energies                          1  2.0    0.000    0.000  124.478  124.486
 scf_env_do_scf                       1  3.0    0.000    0.000  123.079  123.087
 scf_env_do_scf_inner_loop           54  4.0    0.001    0.004  116.740  116.747
 qs_ks_update_qs_env                 57  5.0    0.001    0.001   95.570   95.597
 rebuild_ks_matrix                   54  6.0    0.000    0.000   95.556   95.580
 qs_ks_build_kohn_sham_matrix        54  7.0    0.012    0.015   95.555   95.580
 prepare_gapw_den                    54  8.0    0.003    0.005   28.729   28.771
 pw_transfer                       2008 10.3    0.213    0.253   21.758   22.894
 qs_rho_update_rho                   55  5.0    0.001    0.002   22.640   22.648
 fft_wrap_pw1pw2                   1846 11.3    0.026    0.030   21.426   22.574
 fft_wrap_pw1pw2_300               1192 12.8    1.457    1.690   20.064   21.235
 rs_pw_transfer                     980  9.5    0.021    0.026   19.519   20.753
 calculate_rho0_atom                162  9.0   19.193   20.372   19.193   20.372
 sum_up_and_integrate                54  8.0    0.043    0.056   19.959   19.973
 integrate_v_rspace                 108  9.0    0.003    0.004   19.916   19.936
 qs_vxc_create                       54  8.0    0.001    0.001   18.804   18.805
 xc_vxc_pw_create                    54  9.0    0.269    0.342   18.802   18.803
 calculate_rho_elec                 110  6.0    0.060    0.064   18.652   18.655
 fft3d_ps                          1846 13.3    8.015    9.075   16.809   18.097
 mp_sum_d                          4279 10.0   12.974   14.612   12.974   14.612
 density_rs2pw                      110  7.0    0.006    0.007   13.038   14.236
 xc_pw_derive                       648 11.0    0.008    0.009   12.298   13.746
 calculate_rho_atom                 162  9.0    3.450   11.963    3.450   11.963
 calculate_vxc_atom                  54  8.0    0.154    0.889   11.770   11.770
 gaVxcgb_GC                         108  9.0    0.970   11.154    0.970   11.154
 xc_rho_set_and_dset_create          54 10.0    0.258    0.304    9.753   10.246
 grid_integrate_task_list           108 10.0    3.952   10.215    3.952   10.215
 mp_alltoall_z22v                  1846 15.3    6.893    9.909    6.893    9.909
 grid_collocate_task_list           110  7.0    4.982    9.699    4.982    9.699
 potential_pw2rs                    108 10.0    0.008    0.009    9.669    9.686
 xc_pw_divergence                   108 10.0    0.004    0.005    8.389    9.683
 mp_sum_dm                         3562  7.4    8.440    9.197    8.440    9.197
 integrate_vhg0_rspace               54  8.0    1.542    2.075    8.966    9.040
 rs_pw_transfer_RS2PW_300           164  9.7    2.745    3.229    7.708    8.908
 mp_waitany                       18256 11.5    6.222    7.631    6.222    7.631
 mp_alltoall_d11v                  1991 11.9    6.410    7.485    6.410    7.485
 rs_gather_matrices                 108 10.0    0.006    0.014    6.292    7.349
 dbcsr_multiply_generic            2441 10.1    0.069    0.072    6.661    7.003
 yz_to_x                            816 14.1    0.842    1.032    4.306    6.492
 init_scf_loop                        3  4.0    0.000    0.000    6.337    6.338
 mp_sum_dv                         7038 13.2    3.142    6.294    3.142    6.294
 rs_pw_transfer_PW2RS_300           162 11.3    3.590    3.802    5.853    6.142
 mp_waitall_1                    227648 13.9    4.912    5.769    4.912    5.769
 x_to_yz                            812 14.8    0.922    1.034    4.335    4.847
 qs_scf_new_mos                      54  5.0    0.000    0.001    4.142    4.162
 qs_scf_loop_do_ot                   54  6.0    0.000    0.000    4.142    4.162
 ot_scf_mini                         54  7.0    0.001    0.001    3.982    4.001
 calculate_rho_atom_coeff            55  6.0    0.669    3.137    3.986    3.991
 xc_functional_eval                 270 10.6    0.001    0.002    3.305    3.946
 pbe_lsd_eval                       270 11.6    3.304    3.944    3.304    3.944
 update_ks_atom                      54  8.0    0.388    3.129    1.059    3.795
 mp_sum_l                         12034 11.0    3.200    3.684    3.200    3.684
 put_rho0_on_grid                    54  9.0    0.043    0.055    2.979    3.021
 rs_pw_transfer_PW2RS_100           108 12.0    0.595    0.702    2.677    2.812
 ot_mini                             54  8.0    0.000    0.001    2.515    2.532
 -------------------------------------------------------------------------------

 The number of warnings for this run is : 1
 
 -------------------------------------------------------------------------------
  **** **** ******  **  PROGRAM ENDED AT                 2022-05-13 12:26:54.652
 ***** ** ***  *** **   PROGRAM RAN ON                                   tcopt10
 **    ****   ******    PROGRAM RAN BY                                    hutter
 ***** **    ** ** **   PROGRAM PROCESS ID                                 81893
  **** **  *******  **  PROGRAM STOPPED IN /data/hutter/GITHUB/BASIS/scMOLOPT/PB
                                           E/Cr
