
  **** **** ******  **  PROGRAM STARTED AT               2021-01-05 17:55:50.892
 ***** ** ***  *** **   PROGRAM STARTED ON                               tcopt10
 **    ****   ******    PROGRAM STARTED BY                                hutter
 ***** **    ** ** **   PROGRAM PROCESS ID                                 41709
  **** **  *******  **  PROGRAM STARTED IN /data/hutter/GITHUB/BASIS/MOLOPT/PBE/
                                           Cu

 CP2K| version string:                    CP2K version 9.0 (Development Version)
 CP2K| source code revision number:                                  git:e8cde91
 CP2K| cp2kflags: omp libint fftw3 libxc elpa parallel mpi3 scalapack xsmm spgli
 CP2K|            b sirius
 CP2K| is freely available from                            https://www.cp2k.org/
 CP2K| Program compiled at                          Tue Jan  5 16:49:35 CET 2021
 CP2K| Program compiled on                                               tcopt10
 CP2K| Program compiled for                                                local
 CP2K| Data directory path                 /data/hutter/GITHUB/CURRENT/cp2k/data
 CP2K| Input file name                                              opt-dzvp.inp

 GLOBAL| Method name                                              OPTIMIZE_BASIS
 GLOBAL| Project name                                                     molopt
 GLOBAL| Preferred FFT library                                             FFTW3
 GLOBAL| Preferred diagonalization lib.                                     ELPA
 GLOBAL| Run type                                                   ENERGY_FORCE
 GLOBAL| All-to-all communication in single precision                          F
 GLOBAL| FFTs using library dependent lengths                                  F
 GLOBAL| Global print level                                               MEDIUM
 GLOBAL| MPI I/O enabled                                                       T
 GLOBAL| Total number of message passing processes                            32
 GLOBAL| Number of threads for this process                                    1
 GLOBAL| This output is from process                                           0
 GLOBAL| CPU model name                          AMD EPYC 7401 24-Core Processor
 GLOBAL| CPUID                                                              1002

 MEMORY| system memory details [Kb]
 MEMORY|                        rank 0           min           max       average
 MEMORY| MemTotal            263987256     263987256     263987256     263987256
 MEMORY| MemFree             226593980     226593980     226593980     226593980
 MEMORY| Buffers                   148           148           148           148
 MEMORY| Cached               31466924      31466924      31466924      31466924
 MEMORY| Slab                  1104748       1104748       1104748       1104748
 MEMORY| SReclaimable           501616        501616        501616        501616
 MEMORY| MemLikelyFree       258562668     258562668     258562668     258562668


 *** Fundamental physical constants (SI units) ***

 *** Literature: B. J. Mohr and B. N. Taylor,
 ***             CODATA recommended values of the fundamental physical
 ***             constants: 2006, Web Version 5.1
 ***             http://physics.nist.gov/constants

 Speed of light in vacuum [m/s]                             2.99792458000000E+08
 Magnetic constant or permeability of vacuum [N/A**2]       1.25663706143592E-06
 Electric constant or permittivity of vacuum [F/m]          8.85418781762039E-12
 Planck constant (h) [J*s]                                  6.62606896000000E-34
 Planck constant (h-bar) [J*s]                              1.05457162825177E-34
 Elementary charge [C]                                      1.60217648700000E-19
 Electron mass [kg]                                         9.10938215000000E-31
 Electron g factor [ ]                                     -2.00231930436220E+00
 Proton mass [kg]                                           1.67262163700000E-27
 Fine-structure constant                                    7.29735253760000E-03
 Rydberg constant [1/m]                                     1.09737315685270E+07
 Avogadro constant [1/mol]                                  6.02214179000000E+23
 Boltzmann constant [J/K]                                   1.38065040000000E-23
 Atomic mass unit [kg]                                      1.66053878200000E-27
 Bohr radius [m]                                            5.29177208590000E-11

 *** Conversion factors ***

 [u] -> [a.u.]                                              1.82288848426455E+03
 [Angstrom] -> [Bohr] = [a.u.]                              1.88972613288564E+00
 [a.u.] = [Bohr] -> [Angstrom]                              5.29177208590000E-01
 [a.u.] -> [s]                                              2.41888432650478E-17
 [a.u.] -> [fs]                                             2.41888432650478E-02
 [a.u.] -> [J]                                              4.35974393937059E-18
 [a.u.] -> [N]                                              8.23872205491840E-08
 [a.u.] -> [K]                                              3.15774647902944E+05
 [a.u.] -> [kJ/mol]                                         2.62549961709828E+03
 [a.u.] -> [kcal/mol]                                       6.27509468713739E+02
 [a.u.] -> [Pa]                                             2.94210107994716E+13
 [a.u.] -> [bar]                                            2.94210107994716E+08
 [a.u.] -> [atm]                                            2.90362800883016E+08
 [a.u.] -> [eV]                                             2.72113838565563E+01
 [a.u.] -> [Hz]                                             6.57968392072181E+15
 [a.u.] -> [1/cm] (wave numbers)                            2.19474631370540E+05
 [a.u./Bohr**2] -> [1/cm]                                   5.14048714338585E+03
 
 DBCSR| CPU Multiplication driver                                           XSMM
 DBCSR| Multrec recursion limit                                              512
 DBCSR| Multiplication stack size                                           1000
 DBCSR| Maximum elements for images                                    UNLIMITED
 DBCSR| Multiplicative factor virtual images                                   1
 DBCSR| Use multiplication densification                                       T
 DBCSR| Multiplication size stacks                                             3
 DBCSR| Use memory pool for CPU allocation                                     F
 DBCSR| Number of 3D layers                                               SINGLE
 DBCSR| Use MPI memory allocation                                              F
 DBCSR| Use RMA algorithm                                                      F
 DBCSR| Use Communication thread                                               T
 DBCSR| Communication thread load                                             87
 DBCSR| MPI: My node id                                                        0
 DBCSR| MPI: Number of nodes                                                  32
 DBCSR| OMP: Current number of threads                                         1
 DBCSR| OMP: Max number of threads                                             1
 DBCSR| Split modifier for TAS multiplication algorithm                  1.0E+00

 BASOPT| Total number of calculations      7

 BASOPT| Content of basis combination      1
 BASOPT|     Element:   CU    Basis set:    DZVP-MOLOPT-PBE-GTH-Q11
 BASOPT|     Element:    H    Basis set:    DZVP-MOLOPT-PBE-GTH-Q1
 BASOPT|     Element:    C    Basis set:    DZVP-MOLOPT-PBE-GTH-Q4
 BASOPT|     Element:    N    Basis set:    DZVP-MOLOPT-PBE-GTH-Q5
 BASOPT|     Element:    O    Basis set:    DZVP-MOLOPT-PBE-GTH-Q6
 BASOPT|     Element:    F    Basis set:    DZVP-MOLOPT-PBE-GTH-Q7
 BASOPT|     Element:    S    Basis set:    DZVP-MOLOPT-PBE-GTH-Q6
 BASOPT|     Element:   CL    Basis set:    DZVP-MOLOPT-PBE-GTH-Q7

 BASOPT| Information at iteration number:       0
 BASOPT| Training set | Combination | Rho difference | Condition num. | Time
 BASOPT| -----------------------------------------------------------------------
 BASOPT|        1     |       1     | 0.20861358E-02 | 0.27836825E+03 |    0.090
 BASOPT|        2     |       1     | 0.32823989E-02 | 0.24578891E+03 |    0.048
 BASOPT|        3     |       1     | 0.24507554E-02 | 0.77183273E+03 |    0.032
 BASOPT|        4     |       1     | 0.92595576E-03 | 0.40023523E+02 |    0.020
 BASOPT|        5     |       1     | 0.84429051E-03 | 0.19408216E+03 |    0.017
 BASOPT|        6     |       1     | 0.22785414E-02 | 0.73854589E+02 |    0.014
 BASOPT|        7     |       1     | 0.14373829E-02 | 0.84296800E+02 |    0.015
 BASOPT| -----------------------------------------------------------------------
 BASOPT| Total residuum value: -.39903036E+03

 BASOPT| Information at iteration number:     100
 BASOPT| Training set | Combination | Rho difference | Condition num. | Time
 BASOPT| -----------------------------------------------------------------------
 BASOPT|        1     |       1     | 0.21201581E-02 | 0.30223642E+03 |    8.483
 BASOPT|        2     |       1     | 0.35061406E-02 | 0.25685910E+03 |    3.805
 BASOPT|        3     |       1     | 0.24625206E-02 | 0.76340260E+03 |    2.678
 BASOPT|        4     |       1     | 0.11566081E-02 | 0.41834966E+02 |    1.252
 BASOPT|        5     |       1     | 0.86643975E-03 | 0.20750868E+03 |    1.526
 BASOPT|        6     |       1     | 0.23543189E-02 | 0.80656571E+02 |    1.287
 BASOPT|        7     |       1     | 0.14193090E-02 | 0.92624906E+02 |    1.287
 BASOPT| -----------------------------------------------------------------------
 BASOPT| Total residuum value: -.39901599E+03

 BASOPT| Information at iteration number:     200
 BASOPT| Training set | Combination | Rho difference | Condition num. | Time
 BASOPT| -----------------------------------------------------------------------
 BASOPT|        1     |       1     | 0.20329295E-02 | 0.29500325E+03 |   16.711
 BASOPT|        2     |       1     | 0.31024793E-02 | 0.26975408E+03 |    7.528
 BASOPT|        3     |       1     | 0.23727742E-02 | 0.76981651E+03 |    5.338
 BASOPT|        4     |       1     | 0.94559086E-03 | 0.41380061E+02 |    2.475
 BASOPT|        5     |       1     | 0.69831043E-03 | 0.21162082E+03 |    3.032
 BASOPT|        6     |       1     | 0.21366273E-02 | 0.76293228E+02 |    2.554
 BASOPT|        7     |       1     | 0.13254734E-02 | 0.86366236E+02 |    2.557
 BASOPT| -----------------------------------------------------------------------
 BASOPT| Total residuum value: -.39911915E+03

 BASOPT| Information at iteration number:     300
 BASOPT| Training set | Combination | Rho difference | Condition num. | Time
 BASOPT| -----------------------------------------------------------------------
 BASOPT|        1     |       1     | 0.20436411E-02 | 0.28959449E+03 |   24.955
 BASOPT|        2     |       1     | 0.31239009E-02 | 0.26630150E+03 |   11.276
 BASOPT|        3     |       1     | 0.23768765E-02 | 0.77234462E+03 |    7.979
 BASOPT|        4     |       1     | 0.87573570E-03 | 0.40960657E+02 |    3.701
 BASOPT|        5     |       1     | 0.79980030E-03 | 0.20980714E+03 |    4.536
 BASOPT|        6     |       1     | 0.21536869E-02 | 0.73315722E+02 |    3.820
 BASOPT|        7     |       1     | 0.13595326E-02 | 0.83201389E+02 |    3.826
 BASOPT| -----------------------------------------------------------------------
 BASOPT| Total residuum value: -.39912191E+03

 BASOPT| Information at iteration number:     400
 BASOPT| Training set | Combination | Rho difference | Condition num. | Time
 BASOPT| -----------------------------------------------------------------------
 BASOPT|        1     |       1     | 0.20061634E-02 | 0.29552868E+03 |   33.222
 BASOPT|        2     |       1     | 0.31006914E-02 | 0.26877668E+03 |   15.032
 BASOPT|        3     |       1     | 0.23586676E-02 | 0.76771673E+03 |   10.620
 BASOPT|        4     |       1     | 0.91239929E-03 | 0.41156071E+02 |    4.923
 BASOPT|        5     |       1     | 0.69266320E-03 | 0.21442458E+03 |    6.043
 BASOPT|        6     |       1     | 0.21251883E-02 | 0.74921589E+02 |    5.084
 BASOPT|        7     |       1     | 0.13120391E-02 | 0.84869633E+02 |    5.093
 BASOPT| -----------------------------------------------------------------------
 BASOPT| Total residuum value: -.39913092E+03

 BASOPT| Information at iteration number:     500
 BASOPT| Training set | Combination | Rho difference | Condition num. | Time
 BASOPT| -----------------------------------------------------------------------
 BASOPT|        1     |       1     | 0.19993680E-02 | 0.29925941E+03 |   41.529
 BASOPT|        2     |       1     | 0.30976919E-02 | 0.27090549E+03 |   18.793
 BASOPT|        3     |       1     | 0.23402775E-02 | 0.76701991E+03 |   13.265
 BASOPT|        4     |       1     | 0.89906272E-03 | 0.41151753E+02 |    6.145
 BASOPT|        5     |       1     | 0.67471520E-03 | 0.21806610E+03 |    7.549
 BASOPT|        6     |       1     | 0.21141252E-02 | 0.74832103E+02 |    6.349
 BASOPT|        7     |       1     | 0.13006622E-02 | 0.85075772E+02 |    6.360
 BASOPT| -----------------------------------------------------------------------
 BASOPT| Total residuum value: -.39913393E+03

 BASOPT| Information at iteration number:     600
 BASOPT| Training set | Combination | Rho difference | Condition num. | Time
 BASOPT| -----------------------------------------------------------------------
 BASOPT|        1     |       1     | 0.19847139E-02 | 0.30567871E+03 |   49.841
 BASOPT|        2     |       1     | 0.30910337E-02 | 0.27992058E+03 |   22.556
 BASOPT|        3     |       1     | 0.23248515E-02 | 0.76643762E+03 |   15.905
 BASOPT|        4     |       1     | 0.88464893E-03 | 0.41252815E+02 |    7.366
 BASOPT|        5     |       1     | 0.66432119E-03 | 0.22605493E+03 |    9.053
 BASOPT|        6     |       1     | 0.21005473E-02 | 0.74528561E+02 |    7.614
 BASOPT|        7     |       1     | 0.12807576E-02 | 0.84675185E+02 |    7.624
 BASOPT| -----------------------------------------------------------------------
 BASOPT| Total residuum value: -.39913805E+03

 BASOPT| Information at iteration number:     700
 BASOPT| Training set | Combination | Rho difference | Condition num. | Time
 BASOPT| -----------------------------------------------------------------------
 BASOPT|        1     |       1     | 0.19664644E-02 | 0.31892016E+03 |   58.151
 BASOPT|        2     |       1     | 0.30773164E-02 | 0.29203322E+03 |   26.319
 BASOPT|        3     |       1     | 0.23126683E-02 | 0.76586679E+03 |   18.548
 BASOPT|        4     |       1     | 0.85416709E-03 | 0.41236266E+02 |    8.587
 BASOPT|        5     |       1     | 0.65867657E-03 | 0.23931875E+03 |   10.565
 BASOPT|        6     |       1     | 0.20932965E-02 | 0.74111471E+02 |    8.885
 BASOPT|        7     |       1     | 0.12698085E-02 | 0.84059026E+02 |    8.898
 BASOPT| -----------------------------------------------------------------------
 BASOPT| Total residuum value: -.39914121E+03

 BASOPT| Information at iteration number:     800
 BASOPT| Training set | Combination | Rho difference | Condition num. | Time
 BASOPT| -----------------------------------------------------------------------
 BASOPT|        1     |       1     | 0.19477177E-02 | 0.31762757E+03 |   66.499
 BASOPT|        2     |       1     | 0.30896677E-02 | 0.29316590E+03 |   30.081
 BASOPT|        3     |       1     | 0.23027748E-02 | 0.76506537E+03 |   21.186
 BASOPT|        4     |       1     | 0.87526666E-03 | 0.41561205E+02 |    9.809
 BASOPT|        5     |       1     | 0.66689214E-03 | 0.23822049E+03 |   12.075
 BASOPT|        6     |       1     | 0.20933017E-02 | 0.74840099E+02 |   10.154
 BASOPT|        7     |       1     | 0.12526189E-02 | 0.84792317E+02 |   10.170
 BASOPT| -----------------------------------------------------------------------
 BASOPT| Total residuum value: -.39914412E+03

 BASOPT| Information at iteration number:     900
 BASOPT| Training set | Combination | Rho difference | Condition num. | Time
 BASOPT| -----------------------------------------------------------------------
 BASOPT|        1     |       1     | 0.19269590E-02 | 0.32221396E+03 |   74.829
 BASOPT|        2     |       1     | 0.30648207E-02 | 0.30280788E+03 |   33.843
 BASOPT|        3     |       1     | 0.22920311E-02 | 0.76466043E+03 |   23.825
 BASOPT|        4     |       1     | 0.87411057E-03 | 0.41885625E+02 |   11.030
 BASOPT|        5     |       1     | 0.66807097E-03 | 0.24293154E+03 |   13.587
 BASOPT|        6     |       1     | 0.20729491E-02 | 0.75040280E+02 |   11.422
 BASOPT|        7     |       1     | 0.12265941E-02 | 0.84741624E+02 |   11.446
 BASOPT| -----------------------------------------------------------------------
 BASOPT| Total residuum value: -.39914901E+03

 BASOPT| Information at iteration number:    1000
 BASOPT| Training set | Combination | Rho difference | Condition num. | Time
 BASOPT| -----------------------------------------------------------------------
 BASOPT|        1     |       1     | 0.19161559E-02 | 0.31696930E+03 |   83.118
 BASOPT|        2     |       1     | 0.30425538E-02 | 0.29923803E+03 |   37.604
 BASOPT|        3     |       1     | 0.22910826E-02 | 0.76570137E+03 |   26.463
 BASOPT|        4     |       1     | 0.86216104E-03 | 0.42139379E+02 |   12.246
 BASOPT|        5     |       1     | 0.65778421E-03 | 0.23848338E+03 |   15.097
 BASOPT|        6     |       1     | 0.20634484E-02 | 0.74541619E+02 |   12.697
 BASOPT|        7     |       1     | 0.12241076E-02 | 0.84698642E+02 |   12.716
 BASOPT| -----------------------------------------------------------------------
 BASOPT| Total residuum value: -.39915160E+03

 BASOPT| Information at iteration number:    1100
 BASOPT| Training set | Combination | Rho difference | Condition num. | Time
 BASOPT| -----------------------------------------------------------------------
 BASOPT|        1     |       1     | 0.19017766E-02 | 0.31342340E+03 |   91.440
 BASOPT|        2     |       1     | 0.30430777E-02 | 0.29241356E+03 |   41.368
 BASOPT|        3     |       1     | 0.22799163E-02 | 0.76209098E+03 |   29.096
 BASOPT|        4     |       1     | 0.87480746E-03 | 0.42263322E+02 |   13.466
 BASOPT|        5     |       1     | 0.63634597E-03 | 0.23514773E+03 |   16.607
 BASOPT|        6     |       1     | 0.20552874E-02 | 0.74940421E+02 |   13.980
 BASOPT|        7     |       1     | 0.12072132E-02 | 0.85694775E+02 |   13.994
 BASOPT| -----------------------------------------------------------------------
 BASOPT| Total residuum value: -.39915558E+03

 BASOPT| Information at iteration number:    1200
 BASOPT| Training set | Combination | Rho difference | Condition num. | Time
 BASOPT| -----------------------------------------------------------------------
 BASOPT|        1     |       1     | 0.19001350E-02 | 0.29266293E+03 |   99.765
 BASOPT|        2     |       1     | 0.30390625E-02 | 0.26787352E+03 |   45.130
 BASOPT|        3     |       1     | 0.22738127E-02 | 0.75953237E+03 |   31.732
 BASOPT|        4     |       1     | 0.84989519E-03 | 0.42336921E+02 |   14.685
 BASOPT|        5     |       1     | 0.62450440E-03 | 0.21900792E+03 |   18.117
 BASOPT|        6     |       1     | 0.20492762E-02 | 0.73479029E+02 |   15.267
 BASOPT|        7     |       1     | 0.12062222E-02 | 0.85737411E+02 |   15.269
 BASOPT| -----------------------------------------------------------------------
 BASOPT| Total residuum value: -.39915994E+03

 BASOPT| Information at iteration number:    1300
 BASOPT| Training set | Combination | Rho difference | Condition num. | Time
 BASOPT| -----------------------------------------------------------------------
 BASOPT|        1     |       1     | 0.18786984E-02 | 0.26282019E+03 |  107.977
 BASOPT|        2     |       1     | 0.30580529E-02 | 0.22837027E+03 |   48.887
 BASOPT|        3     |       1     | 0.22517532E-02 | 0.75337612E+03 |   34.373
 BASOPT|        4     |       1     | 0.83430923E-03 | 0.42934367E+02 |   15.903
 BASOPT|        5     |       1     | 0.61783005E-03 | 0.19290826E+03 |   19.626
 BASOPT|        6     |       1     | 0.20491388E-02 | 0.72231287E+02 |   16.548
 BASOPT|        7     |       1     | 0.12001110E-02 | 0.87716515E+02 |   16.547
 BASOPT| -----------------------------------------------------------------------
 BASOPT| Total residuum value: -.39916762E+03

 BASOPT| Information at iteration number:    1400
 BASOPT| Training set | Combination | Rho difference | Condition num. | Time
 BASOPT| -----------------------------------------------------------------------
 BASOPT|        1     |       1     | 0.18662639E-02 | 0.26809011E+03 |  116.183
 BASOPT|        2     |       1     | 0.30164068E-02 | 0.23002145E+03 |   52.646
 BASOPT|        3     |       1     | 0.22496542E-02 | 0.75261711E+03 |   37.012
 BASOPT|        4     |       1     | 0.82680951E-03 | 0.42973637E+02 |   17.123
 BASOPT|        5     |       1     | 0.60384768E-03 | 0.19720225E+03 |   21.135
 BASOPT|        6     |       1     | 0.20349695E-02 | 0.72408322E+02 |   17.827
 BASOPT|        7     |       1     | 0.11934615E-02 | 0.88228107E+02 |   17.823
 BASOPT| -----------------------------------------------------------------------
 BASOPT| Total residuum value: -.39917166E+03

 BASOPT| Information at iteration number:    1500
 BASOPT| Training set | Combination | Rho difference | Condition num. | Time
 BASOPT| -----------------------------------------------------------------------
 BASOPT|        1     |       1     | 0.18404220E-02 | 0.27074449E+03 |  124.388
 BASOPT|        2     |       1     | 0.30057731E-02 | 0.22735677E+03 |   56.395
 BASOPT|        3     |       1     | 0.22392728E-02 | 0.75026763E+03 |   39.652
 BASOPT|        4     |       1     | 0.84269084E-03 | 0.43312668E+02 |   18.350
 BASOPT|        5     |       1     | 0.59453692E-03 | 0.19816263E+03 |   22.643
 BASOPT|        6     |       1     | 0.20332297E-02 | 0.73325993E+02 |   19.107
 BASOPT|        7     |       1     | 0.11808818E-02 | 0.90056123E+02 |   19.100
 BASOPT| -----------------------------------------------------------------------
 BASOPT| Total residuum value: -.39917539E+03

 BASOPT| Information at iteration number:    1600
 BASOPT| Training set | Combination | Rho difference | Condition num. | Time
 BASOPT| -----------------------------------------------------------------------
 BASOPT|        1     |       1     | 0.18147884E-02 | 0.26484222E+03 |  132.597
 BASOPT|        2     |       1     | 0.30013102E-02 | 0.21354414E+03 |   60.087
 BASOPT|        3     |       1     | 0.22213759E-02 | 0.74754749E+03 |   42.289
 BASOPT|        4     |       1     | 0.83422681E-03 | 0.43908755E+02 |   19.575
 BASOPT|        5     |       1     | 0.58952658E-03 | 0.19138478E+03 |   24.151
 BASOPT|        6     |       1     | 0.20344811E-02 | 0.73162010E+02 |   20.391
 BASOPT|        7     |       1     | 0.11757142E-02 | 0.92015945E+02 |   20.378
 BASOPT| -----------------------------------------------------------------------
 BASOPT| Total residuum value: -.39917928E+03

 BASOPT| Information at iteration number:    1700
 BASOPT| Training set | Combination | Rho difference | Condition num. | Time
 BASOPT| -----------------------------------------------------------------------
 BASOPT|        1     |       1     | 0.17934235E-02 | 0.25686278E+03 |  140.806
 BASOPT|        2     |       1     | 0.29896559E-02 | 0.20174871E+03 |   63.774
 BASOPT|        3     |       1     | 0.21990789E-02 | 0.74646865E+03 |   44.925
 BASOPT|        4     |       1     | 0.81562852E-03 | 0.44697327E+02 |   20.797
 BASOPT|        5     |       1     | 0.59491690E-03 | 0.18387121E+03 |   25.659
 BASOPT|        6     |       1     | 0.20266965E-02 | 0.72650494E+02 |   21.670
 BASOPT|        7     |       1     | 0.11700668E-02 | 0.93672317E+02 |   21.651
 BASOPT| -----------------------------------------------------------------------
 BASOPT| Total residuum value: -.39918387E+03

 BASOPT| Information at iteration number:    1800
 BASOPT| Training set | Combination | Rho difference | Condition num. | Time
 BASOPT| -----------------------------------------------------------------------
 BASOPT|        1     |       1     | 0.17387841E-02 | 0.26328995E+03 |  149.015
 BASOPT|        2     |       1     | 0.29124741E-02 | 0.20413042E+03 |   67.453
 BASOPT|        3     |       1     | 0.21882083E-02 | 0.74640473E+03 |   47.563
 BASOPT|        4     |       1     | 0.78658906E-03 | 0.45284793E+02 |   22.020
 BASOPT|        5     |       1     | 0.55846887E-03 | 0.19016759E+03 |   27.168
 BASOPT|        6     |       1     | 0.20023585E-02 | 0.72968825E+02 |   22.942
 BASOPT|        7     |       1     | 0.11481580E-02 | 0.95312633E+02 |   22.927
 BASOPT| -----------------------------------------------------------------------
 BASOPT| Total residuum value: -.39918995E+03

 BASOPT| Information at iteration number:    1900
 BASOPT| Training set | Combination | Rho difference | Condition num. | Time
 BASOPT| -----------------------------------------------------------------------
 BASOPT|        1     |       1     | 0.17100545E-02 | 0.26394158E+03 |  157.225
 BASOPT|        2     |       1     | 0.28871115E-02 | 0.20289694E+03 |   71.127
 BASOPT|        3     |       1     | 0.21683342E-02 | 0.74614778E+03 |   50.201
 BASOPT|        4     |       1     | 0.76419240E-03 | 0.45764195E+02 |   23.243
 BASOPT|        5     |       1     | 0.55286265E-03 | 0.19154287E+03 |   28.676
 BASOPT|        6     |       1     | 0.19877981E-02 | 0.72845870E+02 |   24.215
 BASOPT|        7     |       1     | 0.11344329E-02 | 0.96294999E+02 |   24.201
 BASOPT| -----------------------------------------------------------------------
 BASOPT| Total residuum value: -.39919396E+03

 BASOPT| Information at iteration number:    2000
 BASOPT| Training set | Combination | Rho difference | Condition num. | Time
 BASOPT| -----------------------------------------------------------------------
 BASOPT|        1     |       1     | 0.16797440E-02 | 0.26613634E+03 |  165.435
 BASOPT|        2     |       1     | 0.28706378E-02 | 0.20138021E+03 |   74.802
 BASOPT|        3     |       1     | 0.21474372E-02 | 0.74413664E+03 |   52.839
 BASOPT|        4     |       1     | 0.75786097E-03 | 0.46460989E+02 |   24.466
 BASOPT|        5     |       1     | 0.54540466E-03 | 0.19434455E+03 |   30.187
 BASOPT|        6     |       1     | 0.19767379E-02 | 0.73150932E+02 |   25.488
 BASOPT|        7     |       1     | 0.11137766E-02 | 0.98136161E+02 |   25.476
 BASOPT| -----------------------------------------------------------------------
 BASOPT| Total residuum value: -.39919737E+03

 BASOPT| Information at iteration number:    2100
 BASOPT| Training set | Combination | Rho difference | Condition num. | Time
 BASOPT| -----------------------------------------------------------------------
 BASOPT|        1     |       1     | 0.16628572E-02 | 0.26016235E+03 |  173.642
 BASOPT|        2     |       1     | 0.28467443E-02 | 0.19850945E+03 |   78.476
 BASOPT|        3     |       1     | 0.21417528E-02 | 0.74493787E+03 |   55.479
 BASOPT|        4     |       1     | 0.73311830E-03 | 0.46949695E+02 |   25.688
 BASOPT|        5     |       1     | 0.54188125E-03 | 0.19157519E+03 |   31.697
 BASOPT|        6     |       1     | 0.19668200E-02 | 0.72283595E+02 |   26.760
 BASOPT|        7     |       1     | 0.11125517E-02 | 0.98154660E+02 |   26.753
 BASOPT| -----------------------------------------------------------------------
 BASOPT| Total residuum value: -.39920051E+03

 BASOPT| Information at iteration number:    2200
 BASOPT| Training set | Combination | Rho difference | Condition num. | Time
 BASOPT| -----------------------------------------------------------------------
 BASOPT|        1     |       1     | 0.16393653E-02 | 0.26512804E+03 |  181.866
 BASOPT|        2     |       1     | 0.28375519E-02 | 0.20198586E+03 |   82.150
 BASOPT|        3     |       1     | 0.21226335E-02 | 0.74492260E+03 |   58.120
 BASOPT|        4     |       1     | 0.72948207E-03 | 0.47445354E+02 |   26.907
 BASOPT|        5     |       1     | 0.54161545E-03 | 0.19683011E+03 |   33.207
 BASOPT|        6     |       1     | 0.19577153E-02 | 0.72729104E+02 |   28.031
 BASOPT|        7     |       1     | 0.10975832E-02 | 0.99325366E+02 |   28.033
 BASOPT| -----------------------------------------------------------------------
 BASOPT| Total residuum value: -.39920275E+03

 BASOPT| Information at iteration number:    2300
 BASOPT| Training set | Combination | Rho difference | Condition num. | Time
 BASOPT| -----------------------------------------------------------------------
 BASOPT|        1     |       1     | 0.16065568E-02 | 0.26634869E+03 |  190.097
 BASOPT|        2     |       1     | 0.27941394E-02 | 0.20585634E+03 |   85.827
 BASOPT|        3     |       1     | 0.20996160E-02 | 0.74727551E+03 |   60.760
 BASOPT|        4     |       1     | 0.71046027E-03 | 0.48427996E+02 |   28.127
 BASOPT|        5     |       1     | 0.54568626E-03 | 0.20082228E+03 |   34.716
 BASOPT|        6     |       1     | 0.19334255E-02 | 0.72593327E+02 |   29.303
 BASOPT|        7     |       1     | 0.10794232E-02 | 0.10056318E+03 |   29.311
 BASOPT| -----------------------------------------------------------------------
 BASOPT| Total residuum value: -.39920678E+03

 BASOPT| Information at iteration number:    2400
 BASOPT| Training set | Combination | Rho difference | Condition num. | Time
 BASOPT| -----------------------------------------------------------------------
 BASOPT|        1     |       1     | 0.15631230E-02 | 0.27012504E+03 |  198.319
 BASOPT|        2     |       1     | 0.27496779E-02 | 0.21115469E+03 |   89.506
 BASOPT|        3     |       1     | 0.20818456E-02 | 0.74885936E+03 |   63.401
 BASOPT|        4     |       1     | 0.70717424E-03 | 0.49085379E+02 |   29.346
 BASOPT|        5     |       1     | 0.52405766E-03 | 0.20529764E+03 |   36.225
 BASOPT|        6     |       1     | 0.19090241E-02 | 0.73421296E+02 |   30.573
 BASOPT|        7     |       1     | 0.10534779E-02 | 0.10228376E+03 |   30.589
 BASOPT| -----------------------------------------------------------------------
 BASOPT| Total residuum value: -.39921106E+03

 BASOPT| Information at iteration number:    2500
 BASOPT| Training set | Combination | Rho difference | Condition num. | Time
 BASOPT| -----------------------------------------------------------------------
 BASOPT|        1     |       1     | 0.15277738E-02 | 0.27487619E+03 |  206.495
 BASOPT|        2     |       1     | 0.27071061E-02 | 0.21911951E+03 |   93.186
 BASOPT|        3     |       1     | 0.20754126E-02 | 0.75152600E+03 |   66.040
 BASOPT|        4     |       1     | 0.70170387E-03 | 0.49482664E+02 |   30.564
 BASOPT|        5     |       1     | 0.50487316E-03 | 0.21008447E+03 |   37.732
 BASOPT|        6     |       1     | 0.18896090E-02 | 0.74378376E+02 |   31.839
 BASOPT|        7     |       1     | 0.10356569E-02 | 0.10334298E+03 |   31.865
 BASOPT| -----------------------------------------------------------------------
 BASOPT| Total residuum value: -.39921402E+03

 BASOPT| Information at iteration number:    2600
 BASOPT| Training set | Combination | Rho difference | Condition num. | Time
 BASOPT| -----------------------------------------------------------------------
 BASOPT|        1     |       1     | 0.14791651E-02 | 0.27522913E+03 |  214.650
 BASOPT|        2     |       1     | 0.26757879E-02 | 0.22553670E+03 |   96.863
 BASOPT|        3     |       1     | 0.20508281E-02 | 0.75345482E+03 |   68.678
 BASOPT|        4     |       1     | 0.71239491E-03 | 0.50631304E+02 |   31.782
 BASOPT|        5     |       1     | 0.49965522E-03 | 0.21174158E+03 |   39.240
 BASOPT|        6     |       1     | 0.18628876E-02 | 0.75260815E+02 |   33.110
 BASOPT|        7     |       1     | 0.10030727E-02 | 0.10570764E+03 |   33.145
 BASOPT| -----------------------------------------------------------------------
 BASOPT| Total residuum value: -.39921852E+03

 BASOPT| Information at iteration number:    2700
 BASOPT| Training set | Combination | Rho difference | Condition num. | Time
 BASOPT| -----------------------------------------------------------------------
 BASOPT|        1     |       1     | 0.14619038E-02 | 0.28555753E+03 |  222.773
 BASOPT|        2     |       1     | 0.26342511E-02 | 0.23958890E+03 |  100.534
 BASOPT|        3     |       1     | 0.20353636E-02 | 0.75701343E+03 |   71.318
 BASOPT|        4     |       1     | 0.68853033E-03 | 0.51012600E+02 |   33.001
 BASOPT|        5     |       1     | 0.52042056E-03 | 0.22271096E+03 |   40.749
 BASOPT|        6     |       1     | 0.18395051E-02 | 0.75289583E+02 |   34.379
 BASOPT|        7     |       1     | 0.99836246E-03 | 0.10576739E+03 |   34.424
 BASOPT| -----------------------------------------------------------------------
 BASOPT| Total residuum value: -.39922010E+03

 BASOPT| Information at iteration number:    2800
 BASOPT| Training set | Combination | Rho difference | Condition num. | Time
 BASOPT| -----------------------------------------------------------------------
 BASOPT|        1     |       1     | 0.14203906E-02 | 0.28764049E+03 |  230.878
 BASOPT|        2     |       1     | 0.26153895E-02 | 0.24408343E+03 |  104.205
 BASOPT|        3     |       1     | 0.20228377E-02 | 0.75746591E+03 |   73.961
 BASOPT|        4     |       1     | 0.69576557E-03 | 0.51627396E+02 |   34.219
 BASOPT|        5     |       1     | 0.48973760E-03 | 0.22397172E+03 |   42.257
 BASOPT|        6     |       1     | 0.18258097E-02 | 0.76240275E+02 |   35.650
 BASOPT|        7     |       1     | 0.96718341E-03 | 0.10774932E+03 |   35.703
 BASOPT| -----------------------------------------------------------------------
 BASOPT| Total residuum value: -.39922369E+03

 BASOPT| Information at iteration number:    2900
 BASOPT| Training set | Combination | Rho difference | Condition num. | Time
 BASOPT| -----------------------------------------------------------------------
 BASOPT|        1     |       1     | 0.13942496E-02 | 0.29288165E+03 |  239.005
 BASOPT|        2     |       1     | 0.25821748E-02 | 0.25221495E+03 |  107.876
 BASOPT|        3     |       1     | 0.20116570E-02 | 0.76040591E+03 |   76.603
 BASOPT|        4     |       1     | 0.68216609E-03 | 0.52017970E+02 |   35.438
 BASOPT|        5     |       1     | 0.48516305E-03 | 0.22855767E+03 |   43.766
 BASOPT|        6     |       1     | 0.18096923E-02 | 0.76546059E+02 |   36.923
 BASOPT|        7     |       1     | 0.95346257E-03 | 0.10846927E+03 |   36.984
 BASOPT| -----------------------------------------------------------------------
 BASOPT| Total residuum value: -.39922579E+03

 BASOPT| Information at iteration number:    3000
 BASOPT| Training set | Combination | Rho difference | Condition num. | Time
 BASOPT| -----------------------------------------------------------------------
 BASOPT|        1     |       1     | 0.13717416E-02 | 0.30170276E+03 |  247.131
 BASOPT|        2     |       1     | 0.25707143E-02 | 0.26108801E+03 |  111.555
 BASOPT|        3     |       1     | 0.20032215E-02 | 0.76002086E+03 |   79.247
 BASOPT|        4     |       1     | 0.67335934E-03 | 0.51964136E+02 |   36.658
 BASOPT|        5     |       1     | 0.48027826E-03 | 0.23648241E+03 |   45.273
 BASOPT|        6     |       1     | 0.18054513E-02 | 0.77068754E+02 |   38.192
 BASOPT|        7     |       1     | 0.94120675E-03 | 0.10895025E+03 |   38.263
 BASOPT| -----------------------------------------------------------------------
 BASOPT| Total residuum value: -.39922754E+03

 BASOPT| Information at iteration number:    3100
 BASOPT| Training set | Combination | Rho difference | Condition num. | Time
 BASOPT| -----------------------------------------------------------------------
 BASOPT|        1     |       1     | 0.13542666E-02 | 0.30872333E+03 |  255.251
 BASOPT|        2     |       1     | 0.25592487E-02 | 0.26758250E+03 |  115.231
 BASOPT|        3     |       1     | 0.19989884E-02 | 0.75993289E+03 |   81.891
 BASOPT|        4     |       1     | 0.66897172E-03 | 0.51807235E+02 |   37.877
 BASOPT|        5     |       1     | 0.46707035E-03 | 0.24222595E+03 |   46.780
 BASOPT|        6     |       1     | 0.18009768E-02 | 0.77772349E+02 |   39.462
 BASOPT|        7     |       1     | 0.93140384E-03 | 0.10946336E+03 |   39.542
 BASOPT| -----------------------------------------------------------------------
 BASOPT| Total residuum value: -.39922930E+03

 BASOPT| Information at iteration number:    3200
 BASOPT| Training set | Combination | Rho difference | Condition num. | Time
 BASOPT| -----------------------------------------------------------------------
 BASOPT|        1     |       1     | 0.13427965E-02 | 0.30364919E+03 |  263.391
 BASOPT|        2     |       1     | 0.25450742E-02 | 0.26349243E+03 |  118.905
 BASOPT|        3     |       1     | 0.19999984E-02 | 0.76024548E+03 |   84.531
 BASOPT|        4     |       1     | 0.65787189E-03 | 0.51661013E+02 |   39.098
 BASOPT|        5     |       1     | 0.46399541E-03 | 0.23778881E+03 |   48.289
 BASOPT|        6     |       1     | 0.17983311E-02 | 0.77570807E+02 |   40.734
 BASOPT|        7     |       1     | 0.92929684E-03 | 0.10907004E+03 |   40.819
 BASOPT| -----------------------------------------------------------------------
 BASOPT| Total residuum value: -.39923139E+03

 BASOPT| Information at iteration number:    3300
 BASOPT| Training set | Combination | Rho difference | Condition num. | Time
 BASOPT| -----------------------------------------------------------------------
 BASOPT|        1     |       1     | 0.13288015E-02 | 0.30666341E+03 |  271.498
 BASOPT|        2     |       1     | 0.25605936E-02 | 0.26484429E+03 |  122.579
 BASOPT|        3     |       1     | 0.19901650E-02 | 0.75823707E+03 |   87.174
 BASOPT|        4     |       1     | 0.68528393E-03 | 0.52070234E+02 |   40.320
 BASOPT|        5     |       1     | 0.46020555E-03 | 0.23929561E+03 |   49.799
 BASOPT|        6     |       1     | 0.18014658E-02 | 0.78860699E+02 |   42.006
 BASOPT|        7     |       1     | 0.91529131E-03 | 0.11115561E+03 |   42.101
 BASOPT| -----------------------------------------------------------------------
 BASOPT| Total residuum value: -.39923188E+03

 BASOPT| Information at iteration number:    3400
 BASOPT| Training set | Combination | Rho difference | Condition num. | Time
 BASOPT| -----------------------------------------------------------------------
 BASOPT|        1     |       1     | 0.13269616E-02 | 0.30356737E+03 |  279.611
 BASOPT|        2     |       1     | 0.25531163E-02 | 0.26342437E+03 |  126.253
 BASOPT|        3     |       1     | 0.19854236E-02 | 0.75912392E+03 |   89.818
 BASOPT|        4     |       1     | 0.68867990E-03 | 0.52255323E+02 |   41.539
 BASOPT|        5     |       1     | 0.46830553E-03 | 0.23604945E+03 |   51.309
 BASOPT|        6     |       1     | 0.17953366E-02 | 0.78939218E+02 |   43.276
 BASOPT|        7     |       1     | 0.91298076E-03 | 0.11141411E+03 |   43.378
 BASOPT| -----------------------------------------------------------------------
 BASOPT| Total residuum value: -.39923266E+03

 BASOPT| Information at iteration number:    3500
 BASOPT| Training set | Combination | Rho difference | Condition num. | Time
 BASOPT| -----------------------------------------------------------------------
 BASOPT|        1     |       1     | 0.13174036E-02 | 0.30384354E+03 |  287.718
 BASOPT|        2     |       1     | 0.25542947E-02 | 0.26481403E+03 |  129.928
 BASOPT|        3     |       1     | 0.19838125E-02 | 0.75930026E+03 |   92.461
 BASOPT|        4     |       1     | 0.68187131E-03 | 0.52550070E+02 |   42.759
 BASOPT|        5     |       1     | 0.45830644E-03 | 0.23666284E+03 |   52.819
 BASOPT|        6     |       1     | 0.17923393E-02 | 0.78927010E+02 |   44.548
 BASOPT|        7     |       1     | 0.90617812E-03 | 0.11174136E+03 |   44.658
 BASOPT| -----------------------------------------------------------------------
 BASOPT| Total residuum value: -.39923397E+03

 BASOPT| Information at iteration number:    3600
 BASOPT| Training set | Combination | Rho difference | Condition num. | Time
 BASOPT| -----------------------------------------------------------------------
 BASOPT|        1     |       1     | 0.13124113E-02 | 0.30600081E+03 |  295.817
 BASOPT|        2     |       1     | 0.25423557E-02 | 0.26689694E+03 |  133.601
 BASOPT|        3     |       1     | 0.19786734E-02 | 0.76007024E+03 |   95.103
 BASOPT|        4     |       1     | 0.67488292E-03 | 0.52561675E+02 |   43.977
 BASOPT|        5     |       1     | 0.46455044E-03 | 0.23898736E+03 |   54.328
 BASOPT|        6     |       1     | 0.17886945E-02 | 0.79073291E+02 |   45.821
 BASOPT|        7     |       1     | 0.90533619E-03 | 0.11177584E+03 |   45.937
 BASOPT| -----------------------------------------------------------------------
 BASOPT| Total residuum value: -.39923511E+03

 BASOPT| Information at iteration number:    3700
 BASOPT| Training set | Combination | Rho difference | Condition num. | Time
 BASOPT| -----------------------------------------------------------------------
 BASOPT|        1     |       1     | 0.13054658E-02 | 0.30759285E+03 |  303.926
 BASOPT|        2     |       1     | 0.25394546E-02 | 0.26825693E+03 |  137.279
 BASOPT|        3     |       1     | 0.19759693E-02 | 0.76043371E+03 |   97.743
 BASOPT|        4     |       1     | 0.66734994E-03 | 0.52662929E+02 |   45.197
 BASOPT|        5     |       1     | 0.46064271E-03 | 0.24090909E+03 |   55.841
 BASOPT|        6     |       1     | 0.17887130E-02 | 0.79158442E+02 |   47.091
 BASOPT|        7     |       1     | 0.90298417E-03 | 0.11199776E+03 |   47.217
 BASOPT| -----------------------------------------------------------------------
 BASOPT| Total residuum value: -.39923575E+03

 BASOPT| Information at iteration number:    3800
 BASOPT| Training set | Combination | Rho difference | Condition num. | Time
 BASOPT| -----------------------------------------------------------------------
 BASOPT|        1     |       1     | 0.12806747E-02 | 0.31752530E+03 |  312.043
 BASOPT|        2     |       1     | 0.25185150E-02 | 0.27554154E+03 |  140.952
 BASOPT|        3     |       1     | 0.19589053E-02 | 0.76185556E+03 |  100.383
 BASOPT|        4     |       1     | 0.65237704E-03 | 0.53401813E+02 |   46.418
 BASOPT|        5     |       1     | 0.44978475E-03 | 0.25194291E+03 |   57.355
 BASOPT|        6     |       1     | 0.17818603E-02 | 0.80088137E+02 |   48.360
 BASOPT|        7     |       1     | 0.89138025E-03 | 0.11418687E+03 |   48.497
 BASOPT| -----------------------------------------------------------------------
 BASOPT| Total residuum value: -.39923830E+03

 BASOPT| Information at iteration number:    3900
 BASOPT| Training set | Combination | Rho difference | Condition num. | Time
 BASOPT| -----------------------------------------------------------------------
 BASOPT|        1     |       1     | 0.12819930E-02 | 0.31426199E+03 |  320.164
 BASOPT|        2     |       1     | 0.25025310E-02 | 0.27360765E+03 |  144.630
 BASOPT|        3     |       1     | 0.19567528E-02 | 0.76334424E+03 |  103.028
 BASOPT|        4     |       1     | 0.64387828E-03 | 0.53419768E+02 |   47.639
 BASOPT|        5     |       1     | 0.45192113E-03 | 0.24928161E+03 |   58.869
 BASOPT|        6     |       1     | 0.17730679E-02 | 0.79736960E+02 |   49.630
 BASOPT|        7     |       1     | 0.89299990E-03 | 0.11389836E+03 |   49.777
 BASOPT| -----------------------------------------------------------------------
 BASOPT| Total residuum value: -.39923911E+03

 BASOPT| Information at iteration number:    4000
 BASOPT| Training set | Combination | Rho difference | Condition num. | Time
 BASOPT| -----------------------------------------------------------------------
 BASOPT|        1     |       1     | 0.12615544E-02 | 0.31722816E+03 |  328.337
 BASOPT|        2     |       1     | 0.24904170E-02 | 0.27574320E+03 |  148.315
 BASOPT|        3     |       1     | 0.19416598E-02 | 0.76349512E+03 |  105.658
 BASOPT|        4     |       1     | 0.62957501E-03 | 0.53960734E+02 |   48.860
 BASOPT|        5     |       1     | 0.44249839E-03 | 0.25360282E+03 |   60.386
 BASOPT|        6     |       1     | 0.17668884E-02 | 0.80143558E+02 |   50.911
 BASOPT|        7     |       1     | 0.88679029E-03 | 0.11519698E+03 |   51.058
 BASOPT| -----------------------------------------------------------------------
 BASOPT| Total residuum value: -.39924133E+03

 BASOPT| Information at iteration number:    4100
 BASOPT| Training set | Combination | Rho difference | Condition num. | Time
 BASOPT| -----------------------------------------------------------------------
 BASOPT|        1     |       1     | 0.12547228E-02 | 0.31680912E+03 |  336.509
 BASOPT|        2     |       1     | 0.24803134E-02 | 0.27562740E+03 |  152.002
 BASOPT|        3     |       1     | 0.19378530E-02 | 0.76397741E+03 |  108.287
 BASOPT|        4     |       1     | 0.62878758E-03 | 0.54210926E+02 |   50.082
 BASOPT|        5     |       1     | 0.43856482E-03 | 0.25348503E+03 |   61.903
 BASOPT|        6     |       1     | 0.17626018E-02 | 0.80465522E+02 |   52.193
 BASOPT|        7     |       1     | 0.88364704E-03 | 0.11592190E+03 |   52.337
 BASOPT| -----------------------------------------------------------------------
 BASOPT| Total residuum value: -.39924260E+03

 BASOPT| Information at iteration number:    4200
 BASOPT| Training set | Combination | Rho difference | Condition num. | Time
 BASOPT| -----------------------------------------------------------------------
 BASOPT|        1     |       1     | 0.12418114E-02 | 0.31944334E+03 |  344.674
 BASOPT|        2     |       1     | 0.24668603E-02 | 0.27748466E+03 |  155.686
 BASOPT|        3     |       1     | 0.19335475E-02 | 0.76413132E+03 |  110.918
 BASOPT|        4     |       1     | 0.63236869E-03 | 0.54525963E+02 |   51.303
 BASOPT|        5     |       1     | 0.43516972E-03 | 0.25565508E+03 |   63.421
 BASOPT|        6     |       1     | 0.17607856E-02 | 0.81279037E+02 |   53.473
 BASOPT|        7     |       1     | 0.88183917E-03 | 0.11703228E+03 |   53.621
 BASOPT| -----------------------------------------------------------------------
 BASOPT| Total residuum value: -.39924368E+03

 BASOPT| Information at iteration number:    4300
 BASOPT| Training set | Combination | Rho difference | Condition num. | Time
 BASOPT| -----------------------------------------------------------------------
 BASOPT|        1     |       1     | 0.12413628E-02 | 0.32149545E+03 |  352.847
 BASOPT|        2     |       1     | 0.24599846E-02 | 0.27950434E+03 |  159.373
 BASOPT|        3     |       1     | 0.19336738E-02 | 0.76407296E+03 |  113.550
 BASOPT|        4     |       1     | 0.62924191E-03 | 0.54388212E+02 |   52.523
 BASOPT|        5     |       1     | 0.43434758E-03 | 0.25795413E+03 |   64.942
 BASOPT|        6     |       1     | 0.17570600E-02 | 0.81230789E+02 |   54.748
 BASOPT|        7     |       1     | 0.88055313E-03 | 0.11672952E+03 |   54.902
 BASOPT| -----------------------------------------------------------------------
 BASOPT| Total residuum value: -.39924412E+03

 BASOPT| Information at iteration number:    4400
 BASOPT| Training set | Combination | Rho difference | Condition num. | Time
 BASOPT| -----------------------------------------------------------------------
 BASOPT|        1     |       1     | 0.12317959E-02 | 0.32478916E+03 |  361.031
 BASOPT|        2     |       1     | 0.24558333E-02 | 0.28001986E+03 |  163.065
 BASOPT|        3     |       1     | 0.19404954E-02 | 0.76273356E+03 |  116.179
 BASOPT|        4     |       1     | 0.63559474E-03 | 0.54586399E+02 |   53.745
 BASOPT|        5     |       1     | 0.41924625E-03 | 0.26170812E+03 |   66.459
 BASOPT|        6     |       1     | 0.17647076E-02 | 0.82026917E+02 |   56.023
 BASOPT|        7     |       1     | 0.88216647E-03 | 0.11782704E+03 |   56.188
 BASOPT| -----------------------------------------------------------------------
 BASOPT| Total residuum value: -.39924471E+03

 BASOPT| Information at iteration number:    4500
 BASOPT| Training set | Combination | Rho difference | Condition num. | Time
 BASOPT| -----------------------------------------------------------------------
 BASOPT|        1     |       1     | 0.12298624E-02 | 0.31847963E+03 |  369.208
 BASOPT|        2     |       1     | 0.24645401E-02 | 0.27393998E+03 |  166.759
 BASOPT|        3     |       1     | 0.19356543E-02 | 0.76168126E+03 |  118.810
 BASOPT|        4     |       1     | 0.63970468E-03 | 0.54855758E+02 |   54.966
 BASOPT|        5     |       1     | 0.42404404E-03 | 0.25649054E+03 |   67.976
 BASOPT|        6     |       1     | 0.17639391E-02 | 0.81999902E+02 |   57.303
 BASOPT|        7     |       1     | 0.88120202E-03 | 0.11835108E+03 |   57.473
 BASOPT| -----------------------------------------------------------------------
 BASOPT| Total residuum value: -.39924658E+03

 BASOPT| Information at iteration number:    4600
 BASOPT| Training set | Combination | Rho difference | Condition num. | Time
 BASOPT| -----------------------------------------------------------------------
 BASOPT|        1     |       1     | 0.12306730E-02 | 0.31028446E+03 |  377.401
 BASOPT|        2     |       1     | 0.24770669E-02 | 0.26638180E+03 |  170.455
 BASOPT|        3     |       1     | 0.19320039E-02 | 0.76126612E+03 |  121.439
 BASOPT|        4     |       1     | 0.64278623E-03 | 0.55078928E+02 |   56.187
 BASOPT|        5     |       1     | 0.42976117E-03 | 0.24899302E+03 |   69.493
 BASOPT|        6     |       1     | 0.17663500E-02 | 0.81858145E+02 |   58.583
 BASOPT|        7     |       1     | 0.88315408E-03 | 0.11875476E+03 |   58.757
 BASOPT| -----------------------------------------------------------------------
 BASOPT| Total residuum value: -.39924759E+03

 BASOPT| Information at iteration number:    4700
 BASOPT| Training set | Combination | Rho difference | Condition num. | Time
 BASOPT| -----------------------------------------------------------------------
 BASOPT|        1     |       1     | 0.12272920E-02 | 0.31374312E+03 |  385.621
 BASOPT|        2     |       1     | 0.24850048E-02 | 0.26843589E+03 |  174.148
 BASOPT|        3     |       1     | 0.19309347E-02 | 0.75979775E+03 |  124.070
 BASOPT|        4     |       1     | 0.63898118E-03 | 0.54858597E+02 |   57.409
 BASOPT|        5     |       1     | 0.43221442E-03 | 0.25317008E+03 |   71.008
 BASOPT|        6     |       1     | 0.17721110E-02 | 0.82052768E+02 |   59.864
 BASOPT|        7     |       1     | 0.88242990E-03 | 0.11884813E+03 |   60.044
 BASOPT| -----------------------------------------------------------------------
 BASOPT| Total residuum value: -.39924842E+03

 BASOPT| Information at iteration number:    4800
 BASOPT| Training set | Combination | Rho difference | Condition num. | Time
 BASOPT| -----------------------------------------------------------------------
 BASOPT|        1     |       1     | 0.12302069E-02 | 0.31615183E+03 |  393.854
 BASOPT|        2     |       1     | 0.24813694E-02 | 0.26946032E+03 |  177.839
 BASOPT|        3     |       1     | 0.19284106E-02 | 0.75913911E+03 |  126.703
 BASOPT|        4     |       1     | 0.63639306E-03 | 0.54687244E+02 |   58.629
 BASOPT|        5     |       1     | 0.43281900E-03 | 0.25637949E+03 |   72.523
 BASOPT|        6     |       1     | 0.17696186E-02 | 0.82048372E+02 |   61.146
 BASOPT|        7     |       1     | 0.88402967E-03 | 0.11882006E+03 |   61.330
 BASOPT| -----------------------------------------------------------------------
 BASOPT| Total residuum value: -.39924903E+03

 BASOPT| Information at iteration number:    4900
 BASOPT| Training set | Combination | Rho difference | Condition num. | Time
 BASOPT| -----------------------------------------------------------------------
 BASOPT|        1     |       1     | 0.12275280E-02 | 0.31491614E+03 |  402.100
 BASOPT|        2     |       1     | 0.24774693E-02 | 0.26841980E+03 |  181.531
 BASOPT|        3     |       1     | 0.19312389E-02 | 0.75904216E+03 |  129.334
 BASOPT|        4     |       1     | 0.62704068E-03 | 0.54284038E+02 |   59.852
 BASOPT|        5     |       1     | 0.43544177E-03 | 0.25567966E+03 |   74.039
 BASOPT|        6     |       1     | 0.17719818E-02 | 0.81823444E+02 |   62.426
 BASOPT|        7     |       1     | 0.88591260E-03 | 0.11812678E+03 |   62.618
 BASOPT| -----------------------------------------------------------------------
 BASOPT| Total residuum value: -.39924972E+03

 BASOPT| Information at iteration number:    5000
 BASOPT| Training set | Combination | Rho difference | Condition num. | Time
 BASOPT| -----------------------------------------------------------------------
 BASOPT|        1     |       1     | 0.12206459E-02 | 0.32052719E+03 |  410.359
 BASOPT|        2     |       1     | 0.24816376E-02 | 0.27265041E+03 |  185.223
 BASOPT|        3     |       1     | 0.19278437E-02 | 0.75839464E+03 |  131.968
 BASOPT|        4     |       1     | 0.63255902E-03 | 0.54301851E+02 |   61.077
 BASOPT|        5     |       1     | 0.43043877E-03 | 0.26037168E+03 |   75.555
 BASOPT|        6     |       1     | 0.17734412E-02 | 0.82527797E+02 |   63.706
 BASOPT|        7     |       1     | 0.88203385E-03 | 0.11903637E+03 |   63.903
 BASOPT| -----------------------------------------------------------------------
 BASOPT| Total residuum value: -.39925030E+03

 BASOPT| Information at iteration number:    5100
 BASOPT| Training set | Combination | Rho difference | Condition num. | Time
 BASOPT| -----------------------------------------------------------------------
 BASOPT|        1     |       1     | 0.12140088E-02 | 0.31788859E+03 |  418.618
 BASOPT|        2     |       1     | 0.24728196E-02 | 0.27400532E+03 |  188.916
 BASOPT|        3     |       1     | 0.19256367E-02 | 0.76034820E+03 |  134.605
 BASOPT|        4     |       1     | 0.64125469E-03 | 0.54833268E+02 |   62.301
 BASOPT|        5     |       1     | 0.43668815E-03 | 0.25582888E+03 |   77.072
 BASOPT|        6     |       1     | 0.17663907E-02 | 0.82692464E+02 |   64.988
 BASOPT|        7     |       1     | 0.87796563E-03 | 0.11963519E+03 |   65.186
 BASOPT| -----------------------------------------------------------------------
 BASOPT| Total residuum value: -.39925105E+03

 BASOPT| Information at iteration number:    5200
 BASOPT| Training set | Combination | Rho difference | Condition num. | Time
 BASOPT| -----------------------------------------------------------------------
 BASOPT|        1     |       1     | 0.12042828E-02 | 0.31670586E+03 |  426.870
 BASOPT|        2     |       1     | 0.24657996E-02 | 0.27550394E+03 |  192.609
 BASOPT|        3     |       1     | 0.19297645E-02 | 0.76180461E+03 |  137.247
 BASOPT|        4     |       1     | 0.64664835E-03 | 0.55270817E+02 |   63.526
 BASOPT|        5     |       1     | 0.43063453E-03 | 0.25285548E+03 |   78.588
 BASOPT|        6     |       1     | 0.17656272E-02 | 0.83013930E+02 |   66.269
 BASOPT|        7     |       1     | 0.87545202E-03 | 0.12034580E+03 |   66.469
 BASOPT| -----------------------------------------------------------------------
 BASOPT| Total residuum value: -.39925140E+03

 BASOPT| Information at iteration number:    5300
 BASOPT| Training set | Combination | Rho difference | Condition num. | Time
 BASOPT| -----------------------------------------------------------------------
 BASOPT|        1     |       1     | 0.11959573E-02 | 0.32694522E+03 |  435.116
 BASOPT|        2     |       1     | 0.24793839E-02 | 0.28316567E+03 |  196.305
 BASOPT|        3     |       1     | 0.19213137E-02 | 0.76084195E+03 |  139.889
 BASOPT|        4     |       1     | 0.65309679E-03 | 0.55489977E+02 |   64.751
 BASOPT|        5     |       1     | 0.42569549E-03 | 0.26193828E+03 |   80.105
 BASOPT|        6     |       1     | 0.17687461E-02 | 0.83933493E+02 |   67.552
 BASOPT|        7     |       1     | 0.87158404E-03 | 0.12172477E+03 |   67.749
 BASOPT| -----------------------------------------------------------------------
 BASOPT| Total residuum value: -.39925129E+03

 BASOPT| Information at iteration number:    5400
 BASOPT| Training set | Combination | Rho difference | Condition num. | Time
 BASOPT| -----------------------------------------------------------------------
 BASOPT|        1     |       1     | 0.11999076E-02 | 0.32349087E+03 |  443.369
 BASOPT|        2     |       1     | 0.24593283E-02 | 0.28417338E+03 |  200.000
 BASOPT|        3     |       1     | 0.19278574E-02 | 0.76230125E+03 |  142.533
 BASOPT|        4     |       1     | 0.64780057E-03 | 0.55430464E+02 |   65.976
 BASOPT|        5     |       1     | 0.43845149E-03 | 0.25859581E+03 |   81.622
 BASOPT|        6     |       1     | 0.17599690E-02 | 0.83102459E+02 |   68.836
 BASOPT|        7     |       1     | 0.87152892E-03 | 0.12029521E+03 |   69.030
 BASOPT| -----------------------------------------------------------------------
 BASOPT| Total residuum value: -.39925247E+03

 BASOPT| Information at iteration number:    5500
 BASOPT| Training set | Combination | Rho difference | Condition num. | Time
 BASOPT| -----------------------------------------------------------------------
 BASOPT|        1     |       1     | 0.11957755E-02 | 0.32757160E+03 |  451.617
 BASOPT|        2     |       1     | 0.24580559E-02 | 0.28836122E+03 |  203.693
 BASOPT|        3     |       1     | 0.19229015E-02 | 0.76266733E+03 |  145.182
 BASOPT|        4     |       1     | 0.64161084E-03 | 0.55469594E+02 |   67.200
 BASOPT|        5     |       1     | 0.43934992E-03 | 0.26217657E+03 |   83.140
 BASOPT|        6     |       1     | 0.17573548E-02 | 0.83100208E+02 |   70.115
 BASOPT|        7     |       1     | 0.87108364E-03 | 0.12030572E+03 |   70.313
 BASOPT| -----------------------------------------------------------------------
 BASOPT| Total residuum value: -.39925284E+03

 BASOPT| Information at iteration number:    5600
 BASOPT| Training set | Combination | Rho difference | Condition num. | Time
 BASOPT| -----------------------------------------------------------------------
 BASOPT|        1     |       1     | 0.11920686E-02 | 0.32845451E+03 |  459.858
 BASOPT|        2     |       1     | 0.24495604E-02 | 0.29050182E+03 |  207.390
 BASOPT|        3     |       1     | 0.19231765E-02 | 0.76300031E+03 |  147.830
 BASOPT|        4     |       1     | 0.64046565E-03 | 0.55474847E+02 |   68.425
 BASOPT|        5     |       1     | 0.43819137E-03 | 0.26229509E+03 |   84.661
 BASOPT|        6     |       1     | 0.17541305E-02 | 0.83140398E+02 |   71.411
 BASOPT|        7     |       1     | 0.86959428E-03 | 0.12026736E+03 |   71.596
 BASOPT| -----------------------------------------------------------------------
 BASOPT| Total residuum value: -.39925324E+03

 BASOPT| Information at iteration number:    5700
 BASOPT| Training set | Combination | Rho difference | Condition num. | Time
 BASOPT| -----------------------------------------------------------------------
 BASOPT|        1     |       1     | 0.11860112E-02 | 0.32881480E+03 |  468.103
 BASOPT|        2     |       1     | 0.24430307E-02 | 0.29180966E+03 |  211.088
 BASOPT|        3     |       1     | 0.19182724E-02 | 0.76339982E+03 |  150.480
 BASOPT|        4     |       1     | 0.63876088E-03 | 0.55533304E+02 |   69.649
 BASOPT|        5     |       1     | 0.43882975E-03 | 0.26183446E+03 |   86.182
 BASOPT|        6     |       1     | 0.17495709E-02 | 0.83189805E+02 |   72.695
 BASOPT|        7     |       1     | 0.86542330E-03 | 0.12055266E+03 |   72.879
 BASOPT| -----------------------------------------------------------------------
 BASOPT| Total residuum value: -.39925389E+03

 BASOPT| Information at iteration number:    5800
 BASOPT| Training set | Combination | Rho difference | Condition num. | Time
 BASOPT| -----------------------------------------------------------------------
 BASOPT|        1     |       1     | 0.11850916E-02 | 0.32627774E+03 |  476.370
 BASOPT|        2     |       1     | 0.24421243E-02 | 0.29004095E+03 |  214.788
 BASOPT|        3     |       1     | 0.19155970E-02 | 0.76338181E+03 |  153.131
 BASOPT|        4     |       1     | 0.64447729E-03 | 0.55616120E+02 |   70.874
 BASOPT|        5     |       1     | 0.44433736E-03 | 0.25880602E+03 |   87.702
 BASOPT|        6     |       1     | 0.17478708E-02 | 0.83264987E+02 |   73.979
 BASOPT|        7     |       1     | 0.86451342E-03 | 0.12082556E+03 |   74.165
 BASOPT| -----------------------------------------------------------------------
 BASOPT| Total residuum value: -.39925423E+03

 BASOPT| Information at iteration number:    5900
 BASOPT| Training set | Combination | Rho difference | Condition num. | Time
 BASOPT| -----------------------------------------------------------------------
 BASOPT|        1     |       1     | 0.11843650E-02 | 0.33097652E+03 |  484.621
 BASOPT|        2     |       1     | 0.24333612E-02 | 0.29426947E+03 |  218.484
 BASOPT|        3     |       1     | 0.19146031E-02 | 0.76392629E+03 |  155.783
 BASOPT|        4     |       1     | 0.63389870E-03 | 0.55417036E+02 |   72.098
 BASOPT|        5     |       1     | 0.44491749E-03 | 0.26355440E+03 |   89.222
 BASOPT|        6     |       1     | 0.17458407E-02 | 0.83219791E+02 |   75.266
 BASOPT|        7     |       1     | 0.86676512E-03 | 0.12043666E+03 |   75.449
 BASOPT| -----------------------------------------------------------------------
 BASOPT| Total residuum value: -.39925444E+03

 BASOPT| Information at iteration number:    6000
 BASOPT| Training set | Combination | Rho difference | Condition num. | Time
 BASOPT| -----------------------------------------------------------------------
 BASOPT|        1     |       1     | 0.11799434E-02 | 0.32773337E+03 |  492.867
 BASOPT|        2     |       1     | 0.24383160E-02 | 0.29144596E+03 |  222.184
 BASOPT|        3     |       1     | 0.19135887E-02 | 0.76346486E+03 |  158.436
 BASOPT|        4     |       1     | 0.63879848E-03 | 0.55541155E+02 |   73.323
 BASOPT|        5     |       1     | 0.44121385E-03 | 0.25984871E+03 |   90.741
 BASOPT|        6     |       1     | 0.17467918E-02 | 0.83389447E+02 |   76.560
 BASOPT|        7     |       1     | 0.86450523E-03 | 0.12093537E+03 |   76.735
 BASOPT| -----------------------------------------------------------------------
 BASOPT| Total residuum value: -.39925465E+03

 BASOPT| Information at iteration number:    6100
 BASOPT| Training set | Combination | Rho difference | Condition num. | Time
 BASOPT| -----------------------------------------------------------------------
 BASOPT|        1     |       1     | 0.11811678E-02 | 0.32472824E+03 |  501.120
 BASOPT|        2     |       1     | 0.24399041E-02 | 0.28862184E+03 |  225.890
 BASOPT|        3     |       1     | 0.19112011E-02 | 0.76341211E+03 |  161.093
 BASOPT|        4     |       1     | 0.63804504E-03 | 0.55556542E+02 |   74.548
 BASOPT|        5     |       1     | 0.44484551E-03 | 0.25727291E+03 |   92.259
 BASOPT|        6     |       1     | 0.17458038E-02 | 0.83214657E+02 |   77.845
 BASOPT|        7     |       1     | 0.86488323E-03 | 0.12094137E+03 |   78.021
 BASOPT| -----------------------------------------------------------------------
 BASOPT| Total residuum value: -.39925483E+03

 BASOPT| Information at iteration number:    6200
 BASOPT| Training set | Combination | Rho difference | Condition num. | Time
 BASOPT| -----------------------------------------------------------------------
 BASOPT|        1     |       1     | 0.11826407E-02 | 0.32452871E+03 |  509.377
 BASOPT|        2     |       1     | 0.24329515E-02 | 0.28831034E+03 |  229.599
 BASOPT|        3     |       1     | 0.19103292E-02 | 0.76326931E+03 |  163.749
 BASOPT|        4     |       1     | 0.64198485E-03 | 0.55491301E+02 |   75.775
 BASOPT|        5     |       1     | 0.44614760E-03 | 0.25684636E+03 |   93.781
 BASOPT|        6     |       1     | 0.17424642E-02 | 0.83314711E+02 |   79.130
 BASOPT|        7     |       1     | 0.86448635E-03 | 0.12103834E+03 |   79.310
 BASOPT| -----------------------------------------------------------------------
 BASOPT| Total residuum value: -.39925508E+03

 BASOPT| Information at iteration number:    6300
 BASOPT| Training set | Combination | Rho difference | Condition num. | Time
 BASOPT| -----------------------------------------------------------------------
 BASOPT|        1     |       1     | 0.11814805E-02 | 0.32183934E+03 |  517.620
 BASOPT|        2     |       1     | 0.24366219E-02 | 0.28529787E+03 |  233.375
 BASOPT|        3     |       1     | 0.19083142E-02 | 0.76267506E+03 |  166.405
 BASOPT|        4     |       1     | 0.64244351E-03 | 0.55513077E+02 |   77.000
 BASOPT|        5     |       1     | 0.44510068E-03 | 0.25452303E+03 |   95.301
 BASOPT|        6     |       1     | 0.17433435E-02 | 0.83374337E+02 |   80.413
 BASOPT|        7     |       1     | 0.86404023E-03 | 0.12133693E+03 |   80.595
 BASOPT| -----------------------------------------------------------------------
 BASOPT| Total residuum value: -.39925538E+03

 BASOPT| Information at iteration number:    6400
 BASOPT| Training set | Combination | Rho difference | Condition num. | Time
 BASOPT| -----------------------------------------------------------------------
 BASOPT|        1     |       1     | 0.11813401E-02 | 0.32233791E+03 |  525.856
 BASOPT|        2     |       1     | 0.24315237E-02 | 0.28543141E+03 |  237.151
 BASOPT|        3     |       1     | 0.19081859E-02 | 0.76261212E+03 |  169.064
 BASOPT|        4     |       1     | 0.63657617E-03 | 0.55453051E+02 |   78.229
 BASOPT|        5     |       1     | 0.44476499E-03 | 0.25557902E+03 |   96.822
 BASOPT|        6     |       1     | 0.17431070E-02 | 0.83292510E+02 |   81.697
 BASOPT|        7     |       1     | 0.86568954E-03 | 0.12126244E+03 |   81.880
 BASOPT| -----------------------------------------------------------------------
 BASOPT| Total residuum value: -.39925572E+03

 BASOPT| Information at iteration number:    6500
 BASOPT| Training set | Combination | Rho difference | Condition num. | Time
 BASOPT| -----------------------------------------------------------------------
 BASOPT|        1     |       1     | 0.11793384E-02 | 0.32578655E+03 |  534.095
 BASOPT|        2     |       1     | 0.24331985E-02 | 0.28757175E+03 |  240.934
 BASOPT|        3     |       1     | 0.19051125E-02 | 0.76119632E+03 |  171.718
 BASOPT|        4     |       1     | 0.64072246E-03 | 0.55444209E+02 |   79.459
 BASOPT|        5     |       1     | 0.44184094E-03 | 0.25890746E+03 |   98.344
 BASOPT|        6     |       1     | 0.17426378E-02 | 0.83618698E+02 |   82.979
 BASOPT|        7     |       1     | 0.86377101E-03 | 0.12177640E+03 |   83.166
 BASOPT| -----------------------------------------------------------------------
 BASOPT| Total residuum value: -.39925621E+03

 BASOPT| Information at iteration number:    6600
 BASOPT| Training set | Combination | Rho difference | Condition num. | Time
 BASOPT| -----------------------------------------------------------------------
 BASOPT|        1     |       1     | 0.11763234E-02 | 0.32874554E+03 |  542.357
 BASOPT|        2     |       1     | 0.24237127E-02 | 0.29023814E+03 |  244.687
 BASOPT|        3     |       1     | 0.19058010E-02 | 0.76112387E+03 |  174.370
 BASOPT|        4     |       1     | 0.63307289E-03 | 0.55266867E+02 |   80.689
 BASOPT|        5     |       1     | 0.44058320E-03 | 0.26175654E+03 |   99.866
 BASOPT|        6     |       1     | 0.17421164E-02 | 0.83592928E+02 |   84.267
 BASOPT|        7     |       1     | 0.86457646E-03 | 0.12154291E+03 |   84.453
 BASOPT| -----------------------------------------------------------------------
 BASOPT| Total residuum value: -.39925661E+03

 BASOPT| Information at iteration number:    6700
 BASOPT| Training set | Combination | Rho difference | Condition num. | Time
 BASOPT| -----------------------------------------------------------------------
 BASOPT|        1     |       1     | 0.11772846E-02 | 0.33110595E+03 |  550.626
 BASOPT|        2     |       1     | 0.24365873E-02 | 0.28963995E+03 |  248.468
 BASOPT|        3     |       1     | 0.18985344E-02 | 0.75850801E+03 |  177.025
 BASOPT|        4     |       1     | 0.64880013E-03 | 0.55202218E+02 |   81.922
 BASOPT|        5     |       1     | 0.43745544E-03 | 0.26429862E+03 |  101.389
 BASOPT|        6     |       1     | 0.17432616E-02 | 0.84299298E+02 |   85.551
 BASOPT|        7     |       1     | 0.85927328E-03 | 0.12279602E+03 |   85.739
 BASOPT| -----------------------------------------------------------------------
 BASOPT| Total residuum value: -.39925667E+03

 BASOPT| Information at iteration number:    6800
 BASOPT| Training set | Combination | Rho difference | Condition num. | Time
 BASOPT| -----------------------------------------------------------------------
 BASOPT|        1     |       1     | 0.11809449E-02 | 0.32273485E+03 |  558.881
 BASOPT|        2     |       1     | 0.24338123E-02 | 0.28111717E+03 |  252.256
 BASOPT|        3     |       1     | 0.19000876E-02 | 0.75821411E+03 |  179.678
 BASOPT|        4     |       1     | 0.63039030E-03 | 0.54768157E+02 |   83.151
 BASOPT|        5     |       1     | 0.43994084E-03 | 0.25850703E+03 |  102.912
 BASOPT|        6     |       1     | 0.17461236E-02 | 0.83429147E+02 |   86.836
 BASOPT|        7     |       1     | 0.86697260E-03 | 0.12174702E+03 |   87.024
 BASOPT| -----------------------------------------------------------------------
 BASOPT| Total residuum value: -.39925740E+03

 BASOPT| Information at iteration number:    6900
 BASOPT| Training set | Combination | Rho difference | Condition num. | Time
 BASOPT| -----------------------------------------------------------------------
 BASOPT|        1     |       1     | 0.11863891E-02 | 0.31847327E+03 |  567.160
 BASOPT|        2     |       1     | 0.24383592E-02 | 0.27561349E+03 |  256.047
 BASOPT|        3     |       1     | 0.18948583E-02 | 0.75663698E+03 |  182.330
 BASOPT|        4     |       1     | 0.63409345E-03 | 0.54714010E+02 |   84.378
 BASOPT|        5     |       1     | 0.44368010E-03 | 0.25556412E+03 |  104.435
 BASOPT|        6     |       1     | 0.17451449E-02 | 0.83256451E+02 |   88.130
 BASOPT|        7     |       1     | 0.87001279E-03 | 0.12202270E+03 |   88.308
 BASOPT| -----------------------------------------------------------------------
 BASOPT| Total residuum value: -.39925778E+03

 BASOPT| Information at iteration number:    7000
 BASOPT| Training set | Combination | Rho difference | Condition num. | Time
 BASOPT| -----------------------------------------------------------------------
 BASOPT|        1     |       1     | 0.11794319E-02 | 0.31806996E+03 |  575.421
 BASOPT|        2     |       1     | 0.24360506E-02 | 0.27517466E+03 |  259.835
 BASOPT|        3     |       1     | 0.18959286E-02 | 0.75641117E+03 |  184.981
 BASOPT|        4     |       1     | 0.62738979E-03 | 0.54706550E+02 |   85.607
 BASOPT|        5     |       1     | 0.43650801E-03 | 0.25511389E+03 |  105.958
 BASOPT|        6     |       1     | 0.17482009E-02 | 0.83338765E+02 |   89.418
 BASOPT|        7     |       1     | 0.87012849E-03 | 0.12223200E+03 |   89.591
 BASOPT| -----------------------------------------------------------------------
 BASOPT| Total residuum value: -.39925837E+03

 BASOPT| Information at iteration number:    7100
 BASOPT| Training set | Combination | Rho difference | Condition num. | Time
 BASOPT| -----------------------------------------------------------------------
 BASOPT|        1     |       1     | 0.11769654E-02 | 0.32312773E+03 |  583.711
 BASOPT|        2     |       1     | 0.24262912E-02 | 0.27928682E+03 |  263.626
 BASOPT|        3     |       1     | 0.18931509E-02 | 0.75626039E+03 |  187.633
 BASOPT|        4     |       1     | 0.62352140E-03 | 0.54728524E+02 |   86.834
 BASOPT|        5     |       1     | 0.43453604E-03 | 0.26029290E+03 |  107.484
 BASOPT|        6     |       1     | 0.17453671E-02 | 0.83594244E+02 |   90.703
 BASOPT|        7     |       1     | 0.87076573E-03 | 0.12259366E+03 |   90.877
 BASOPT| -----------------------------------------------------------------------
 BASOPT| Total residuum value: -.39925900E+03

 BASOPT| Information at iteration number:    7200
 BASOPT| Training set | Combination | Rho difference | Condition num. | Time
 BASOPT| -----------------------------------------------------------------------
 BASOPT|        1     |       1     | 0.11728570E-02 | 0.32409738E+03 |  592.059
 BASOPT|        2     |       1     | 0.24255725E-02 | 0.27978031E+03 |  267.422
 BASOPT|        3     |       1     | 0.18930625E-02 | 0.75572281E+03 |  190.284
 BASOPT|        4     |       1     | 0.62070706E-03 | 0.54757937E+02 |   88.060
 BASOPT|        5     |       1     | 0.43298905E-03 | 0.26155174E+03 |  109.008
 BASOPT|        6     |       1     | 0.17477251E-02 | 0.83730887E+02 |   91.988
 BASOPT|        7     |       1     | 0.87124743E-03 | 0.12290790E+03 |   92.161
 BASOPT| -----------------------------------------------------------------------
 BASOPT| Total residuum value: -.39925941E+03

 BASOPT| Information at iteration number:    7300
 BASOPT| Training set | Combination | Rho difference | Condition num. | Time
 BASOPT| -----------------------------------------------------------------------
 BASOPT|        1     |       1     | 0.11703862E-02 | 0.32503604E+03 |  600.427
 BASOPT|        2     |       1     | 0.24255902E-02 | 0.28065605E+03 |  271.209
 BASOPT|        3     |       1     | 0.18921349E-02 | 0.75552809E+03 |  192.937
 BASOPT|        4     |       1     | 0.62165737E-03 | 0.54830343E+02 |   89.287
 BASOPT|        5     |       1     | 0.43255285E-03 | 0.26212742E+03 |  110.534
 BASOPT|        6     |       1     | 0.17474452E-02 | 0.83877582E+02 |   93.272
 BASOPT|        7     |       1     | 0.87136258E-03 | 0.12324423E+03 |   93.447
 BASOPT| -----------------------------------------------------------------------
 BASOPT| Total residuum value: -.39925973E+03

 BASOPT| Information at iteration number:    7400
 BASOPT| Training set | Combination | Rho difference | Condition num. | Time
 BASOPT| -----------------------------------------------------------------------
 BASOPT|        1     |       1     | 0.11704944E-02 | 0.32398950E+03 |  608.768
 BASOPT|        2     |       1     | 0.24234119E-02 | 0.28093931E+03 |  275.003
 BASOPT|        3     |       1     | 0.18953578E-02 | 0.75547257E+03 |  195.589
 BASOPT|        4     |       1     | 0.62818696E-03 | 0.54880989E+02 |   90.514
 BASOPT|        5     |       1     | 0.43535183E-03 | 0.26016427E+03 |  112.059
 BASOPT|        6     |       1     | 0.17459292E-02 | 0.84020465E+02 |   94.556
 BASOPT|        7     |       1     | 0.87035170E-03 | 0.12333827E+03 |   94.733
 BASOPT| -----------------------------------------------------------------------
 BASOPT| Total residuum value: -.39926016E+03

 BASOPT| Information at iteration number:    7500
 BASOPT| Training set | Combination | Rho difference | Condition num. | Time
 BASOPT| -----------------------------------------------------------------------
 BASOPT|        1     |       1     | 0.11687874E-02 | 0.32279986E+03 |  617.083
 BASOPT|        2     |       1     | 0.24305072E-02 | 0.28035194E+03 |  278.793
 BASOPT|        3     |       1     | 0.18919751E-02 | 0.75571856E+03 |  198.237
 BASOPT|        4     |       1     | 0.62655148E-03 | 0.55041174E+02 |   91.741
 BASOPT|        5     |       1     | 0.44056545E-03 | 0.25875639E+03 |  113.585
 BASOPT|        6     |       1     | 0.17460923E-02 | 0.83850138E+02 |   95.839
 BASOPT|        7     |       1     | 0.87113220E-03 | 0.12334554E+03 |   96.019
 BASOPT| -----------------------------------------------------------------------
 BASOPT| Total residuum value: -.39926030E+03

 BASOPT| Information at iteration number:    7600
 BASOPT| Training set | Combination | Rho difference | Condition num. | Time
 BASOPT| -----------------------------------------------------------------------
 BASOPT|        1     |       1     | 0.11624254E-02 | 0.32220885E+03 |  625.344
 BASOPT|        2     |       1     | 0.24261991E-02 | 0.28040316E+03 |  282.580
 BASOPT|        3     |       1     | 0.18965907E-02 | 0.75525403E+03 |  200.884
 BASOPT|        4     |       1     | 0.63049852E-03 | 0.55045467E+02 |   92.967
 BASOPT|        5     |       1     | 0.43384212E-03 | 0.25723098E+03 |  115.111
 BASOPT|        6     |       1     | 0.17468113E-02 | 0.83973935E+02 |   97.123
 BASOPT|        7     |       1     | 0.86963687E-03 | 0.12349976E+03 |   97.306
 BASOPT| -----------------------------------------------------------------------
 BASOPT| Total residuum value: -.39926064E+03

 BASOPT| Information at iteration number:    7700
 BASOPT| Training set | Combination | Rho difference | Condition num. | Time
 BASOPT| -----------------------------------------------------------------------
 BASOPT|        1     |       1     | 0.11602402E-02 | 0.32392435E+03 |  633.627
 BASOPT|        2     |       1     | 0.24308163E-02 | 0.28114557E+03 |  286.376
 BASOPT|        3     |       1     | 0.18919491E-02 | 0.75416668E+03 |  203.536
 BASOPT|        4     |       1     | 0.63657690E-03 | 0.55021644E+02 |   94.197
 BASOPT|        5     |       1     | 0.43577519E-03 | 0.25861999E+03 |  116.637
 BASOPT|        6     |       1     | 0.17461032E-02 | 0.84186697E+02 |   98.408
 BASOPT|        7     |       1     | 0.86586522E-03 | 0.12395581E+03 |   98.594
 BASOPT| -----------------------------------------------------------------------
 BASOPT| Total residuum value: -.39926081E+03

 BASOPT| Information at iteration number:    7800
 BASOPT| Training set | Combination | Rho difference | Condition num. | Time
 BASOPT| -----------------------------------------------------------------------
 BASOPT|        1     |       1     | 0.11565780E-02 | 0.31997242E+03 |  641.910
 BASOPT|        2     |       1     | 0.24402073E-02 | 0.27780734E+03 |  290.166
 BASOPT|        3     |       1     | 0.18924271E-02 | 0.75312585E+03 |  206.188
 BASOPT|        4     |       1     | 0.64549688E-03 | 0.55082708E+02 |   95.429
 BASOPT|        5     |       1     | 0.43104787E-03 | 0.25403360E+03 |  118.163
 BASOPT|        6     |       1     | 0.17482998E-02 | 0.84293945E+02 |   99.694
 BASOPT|        7     |       1     | 0.85909429E-03 | 0.12452964E+03 |   99.881
 BASOPT| -----------------------------------------------------------------------
 BASOPT| Total residuum value: -.39926117E+03

 BASOPT| Information at iteration number:    7900
 BASOPT| Training set | Combination | Rho difference | Condition num. | Time
 BASOPT| -----------------------------------------------------------------------
 BASOPT|        1     |       1     | 0.11528678E-02 | 0.32118183E+03 |  650.268
 BASOPT|        2     |       1     | 0.24132634E-02 | 0.28127183E+03 |  293.956
 BASOPT|        3     |       1     | 0.18930485E-02 | 0.75524571E+03 |  208.841
 BASOPT|        4     |       1     | 0.63141826E-03 | 0.55047168E+02 |   96.660
 BASOPT|        5     |       1     | 0.43298548E-03 | 0.25453558E+03 |  119.690
[...]
 BASOPT|        1     |       1     | 0.11140027E-02 | 0.34632695E+03 | 4237.129
 BASOPT|        2     |       1     | 0.20781704E-02 | 0.31397976E+03 | 1819.066
 BASOPT|        3     |       1     | 0.18277497E-02 | 0.76614453E+03 | 1280.310
 BASOPT|        4     |       1     | 0.56252557E-03 | 0.48521294E+02 |  597.778
 BASOPT|        5     |       1     | 0.48325930E-03 | 0.27077667E+03 |  753.836
 BASOPT|        6     |       1     | 0.14884909E-02 | 0.72829672E+02 |  623.484
 BASOPT|        7     |       1     | 0.80199881E-03 | 0.10362830E+03 |  621.673
 BASOPT| -----------------------------------------------------------------------
 BASOPT| Total residuum value: -.39928576E+03

 BASOPT| Information at iteration number:   48100
 BASOPT| Training set | Combination | Rho difference | Condition num. | Time
 BASOPT| -----------------------------------------------------------------------
 BASOPT|        1     |       1     | 0.11140061E-02 | 0.34632526E+03 | 4246.194
 BASOPT|        2     |       1     | 0.20781646E-02 | 0.31397888E+03 | 1822.893
 BASOPT|        3     |       1     | 0.18277501E-02 | 0.76614592E+03 | 1282.985
 BASOPT|        4     |       1     | 0.56251467E-03 | 0.48521238E+02 |  599.031
 BASOPT|        5     |       1     | 0.48326411E-03 | 0.27077534E+03 |  755.432
 BASOPT|        6     |       1     | 0.14884892E-02 | 0.72829162E+02 |  624.796
 BASOPT|        7     |       1     | 0.80200427E-03 | 0.10362768E+03 |  622.972
 BASOPT| -----------------------------------------------------------------------
 BASOPT| Total residuum value: -.39928576E+03

 BASOPT| Information at iteration number:   48200
 BASOPT| Training set | Combination | Rho difference | Condition num. | Time
 BASOPT| -----------------------------------------------------------------------
 BASOPT|        1     |       1     | 0.11140055E-02 | 0.34632536E+03 | 4255.260
 BASOPT|        2     |       1     | 0.20781649E-02 | 0.31397894E+03 | 1826.693
 BASOPT|        3     |       1     | 0.18277508E-02 | 0.76614582E+03 | 1285.658
 BASOPT|        4     |       1     | 0.56251530E-03 | 0.48521241E+02 |  600.280
 BASOPT|        5     |       1     | 0.48326279E-03 | 0.27077539E+03 |  757.036
 BASOPT|        6     |       1     | 0.14884897E-02 | 0.72829208E+02 |  626.105
 BASOPT|        7     |       1     | 0.80200388E-03 | 0.10362773E+03 |  624.275
 BASOPT| -----------------------------------------------------------------------
 BASOPT| Total residuum value: -.39928576E+03

 BASOPT| Information at iteration number:   48300
 BASOPT| Training set | Combination | Rho difference | Condition num. | Time
 BASOPT| -----------------------------------------------------------------------
 BASOPT|        1     |       1     | 0.11140055E-02 | 0.34632537E+03 | 4264.356
 BASOPT|        2     |       1     | 0.20781649E-02 | 0.31397894E+03 | 1830.521
 BASOPT|        3     |       1     | 0.18277508E-02 | 0.76614582E+03 | 1288.348
 BASOPT|        4     |       1     | 0.56251530E-03 | 0.48521241E+02 |  601.537
 BASOPT|        5     |       1     | 0.48326277E-03 | 0.27077540E+03 |  758.627
 BASOPT|        6     |       1     | 0.14884897E-02 | 0.72829209E+02 |  627.420
 BASOPT|        7     |       1     | 0.80200388E-03 | 0.10362773E+03 |  625.572
 BASOPT| -----------------------------------------------------------------------
 BASOPT| Total residuum value: -.39928576E+03

 BASOPT| Information at iteration number:   48400
 BASOPT| Training set | Combination | Rho difference | Condition num. | Time
 BASOPT| -----------------------------------------------------------------------
 BASOPT|        1     |       1     | 0.11140055E-02 | 0.34632537E+03 | 4273.427
 BASOPT|        2     |       1     | 0.20781649E-02 | 0.31397894E+03 | 1834.328
 BASOPT|        3     |       1     | 0.18277508E-02 | 0.76614582E+03 | 1291.023
 BASOPT|        4     |       1     | 0.56251530E-03 | 0.48521241E+02 |  602.789
 BASOPT|        5     |       1     | 0.48326277E-03 | 0.27077540E+03 |  760.229
 BASOPT|        6     |       1     | 0.14884897E-02 | 0.72829209E+02 |  628.730
 BASOPT|        7     |       1     | 0.80200388E-03 | 0.10362773E+03 |  626.874
 BASOPT| -----------------------------------------------------------------------
 BASOPT| Total residuum value: -.39928576E+03

 BASOPT| Information at iteration number:   48500
 BASOPT| Training set | Combination | Rho difference | Condition num. | Time
 BASOPT| -----------------------------------------------------------------------
 BASOPT|        1     |       1     | 0.11140055E-02 | 0.34632537E+03 | 4282.497
 BASOPT|        2     |       1     | 0.20781649E-02 | 0.31397894E+03 | 1838.159
 BASOPT|        3     |       1     | 0.18277508E-02 | 0.76614582E+03 | 1293.713
 BASOPT|        4     |       1     | 0.56251530E-03 | 0.48521241E+02 |  604.041
 BASOPT|        5     |       1     | 0.48326277E-03 | 0.27077540E+03 |  761.822
 BASOPT|        6     |       1     | 0.14884897E-02 | 0.72829209E+02 |  630.044
 BASOPT|        7     |       1     | 0.80200388E-03 | 0.10362773E+03 |  628.171
 BASOPT| -----------------------------------------------------------------------
 BASOPT| Total residuum value: -.39928576E+03


 -------------------------------------------------------------------------------
 -                                                                             -
 -                                DBCSR STATISTICS                             -
 -                                                                             -
 -------------------------------------------------------------------------------
 COUNTER                                    TOTAL       BLAS       SMM       ACC
 flops    68 x    68 x     6                55488       0.0%    100.0%      0.0%
 flops    68 x   136 x     6               110976       0.0%    100.0%      0.0%
 flops   136 x   136 x     6               221952       0.0%    100.0%      0.0%
 flops   136 x   116 x    10               315520       0.0%    100.0%      0.0%
 flops   116 x   136 x    10               315520       0.0%    100.0%      0.0%
 flops   136 x   136 x    10               369920       0.0%    100.0%      0.0%
 flops   116 x   116 x     9               484416       0.0%    100.0%      0.0%
 flops   116 x   136 x     9               567936       0.0%    100.0%      0.0%
 flops   136 x   136 x     9               665856       0.0%    100.0%      0.0%
 flops   116 x   116 x    14               753536       0.0%    100.0%      0.0%
 flops   116 x   116 x    10               807360       0.0%    100.0%      0.0%
 flops   116 x   136 x    14               883456       0.0%    100.0%      0.0%
 flops   136 x   116 x    14               883456       0.0%    100.0%      0.0%
 flops   136 x   136 x    11              1220736       0.0%    100.0%      0.0%
 flops   136 x   136 x    14              3107328       0.0%    100.0%      0.0%
 flops inhomo. stacks                           0       0.0%      0.0%      0.0%
 flops total                        10.763456E+06       0.0%    100.0%      0.0%
 flops max/rank                      1.035776E+06       0.0%    100.0%      0.0%
 matmuls inhomo. stacks                         0       0.0%      0.0%      0.0%
 matmuls total                                 30       0.0%    100.0%      0.0%
 number of processed stacks                    27       0.0%    100.0%      0.0%
 average stack size                                     0.0       1.1       0.0
 marketing flops                    15.552128E+06
 -------------------------------------------------------------------------------
 # multiplications                              1
 max memory usage/rank               1.239745E+09
 # max total images/rank                        5
 # max 3D layers                                1
 # MPI messages exchanged                     104
 MPI messages size (bytes):
  total size                       625.024000E+03
  min size                           0.000000E+00
  max size                          43.456000E+03
  average size                       6.009846E+03
 MPI breakdown and total messages size (bytes):
             size <=      128                  76                        0
       128 < size <=     8192                   0                        0
      8192 < size <=    32768                  20                   277376
     32768 < size <=   131072                   8                   347648
    131072 < size <=  4194304                   0                        0
   4194304 < size <= 16777216                   0                        0
  16777216 < size                               0                        0
 -------------------------------------------------------------------------------

 *** WARNING in dbcsr_mm.F:294 :: Using a non-square number of MPI ranks ***
 *** might lead to poor performance. Used ranks: 5 Suggested: 4 9        ***

 -------------------------------------------------------------------------------
 -                                                                             -
 -                      DBCSR MESSAGE PASSING PERFORMANCE                      -
 -                                                                             -
 -------------------------------------------------------------------------------
 ROUTINE             CALLS      AVE VOLUME [Bytes]
 MP_Bcast               16                     12.
 MP_Allreduce           56                     22.
 MP_Alltoall       2915841                  54392.
 MP_ISend               16                   4527.
 MP_IRecv               12                     56.
 -------------------------------------------------------------------------------

 -------------------------------------------------------------------------------
 -                                                                             -
 -                                GRID STATISTICS                              -
 -                                                                             -
 -------------------------------------------------------------------------------
 LP    KERNEL             BACKEND                              COUNT     PERCENT
 4     collocate ortho    REF                                   3095      18.46%
 4     integrate ortho    REF                                   3095      18.46%
 2     collocate ortho    REF                                   2535      15.12%
 2     integrate ortho    REF                                   2535      15.12%
 6     collocate ortho    REF                                   1138       6.79%
 6     integrate ortho    REF                                   1138       6.79%
 5     collocate ortho    REF                                    856       5.11%
 5     integrate ortho    REF                                    856       5.11%
 7     collocate ortho    REF                                    331       1.97%
 7     integrate ortho    REF                                    331       1.97%
 8     collocate ortho    REF                                    134       0.80%
 8     integrate ortho    REF                                    134       0.80%
 3     collocate ortho    REF                                    124       0.74%
 3     integrate ortho    REF                                    124       0.74%
 1     collocate ortho    REF                                     72       0.43%
 1     integrate ortho    REF                                     72       0.43%
 0     collocate general  REF                                     67       0.40%
 0     collocate ortho    REF                                     64       0.38%
 0     integrate ortho    REF                                     64       0.38%
 -------------------------------------------------------------------------------

 MEMORY| Estimated peak process memory [MiB]                                2517

 -------------------------------------------------------------------------------
 -                                                                             -
 -                         MESSAGE PASSING PERFORMANCE                         -
 -                                                                             -
 -------------------------------------------------------------------------------

 ROUTINE             CALLS      AVE VOLUME [Bytes]
 MP_Bcast           145854                    528.
 MP_Allreduce       632126                     53.
 MP_Sync            145791
 MP_Alltoall            18               34605369.
 MP_ISendRecv           36                2447360.
 MP_Wait                36
 MP_comm_split       97195
 -------------------------------------------------------------------------------


 -------------------------------------------------------------------------------
 -                                                                             -
 -                           R E F E R E N C E S                               -
 -                                                                             -
 -------------------------------------------------------------------------------
 
 CP2K version 9.0 (Development Version), the CP2K developers group (2020).
 CP2K is freely available from https://www.cp2k.org/ .

 Kuehne,Thomas D.; Iannuzzi,Marcella; Del Ben,Mauro;
 Rybkin,Vladimir V.; Seewald,Patrick; Stein,Frederick; Laino,Teodoro;
 Khaliullin,Rustam Z.; Schuett,Ole; Schiffmann,Florian; Golze,Dorothea;
 Wilhelm,Jan; Chulkov,Sergey; Bani-Hashemian,Mohammad Hossein;
 Weber,Valery; Borstnik,Urban; Taillefumier,Mathieu;
 Jakobovits,Alice Shoshana; Lazzaro,Alfio; Pabst,Hans; Mueller,Tiziano;
 Schade,Robert; Guidon,Manuel; Andermatt,Samuel; Holmberg,Nico;
 Schenter,Gregory K.; Hehn,Anna; Bussy,Augustin; Belleflamme,Fabian;
 Tabacchi,Gloria; Gloess,Andreas; Lass,Michael; Bethune,Iain;
 Mundy,Christopher J.; Plessl,Christian; Watkins,Matt;
 VandeVondele,Joost; Krack,Matthias; Hutter,Juerg. 
 The Journal of Chemical Physics, 152 (19), (2020). 
 CP2K: An electronic structure and molecular dynamics software package -
 Quickstep: Efficient and accurate electronic structure calculations.
 https://doi.org/10.1063/5.0007045

 Schuett, Ole; Messmer, Peter; Hutter, Juerg; VandeVondele, Joost. 
 Electronic Structure Calculations on Graphics Processing Units, John
 Wiley & Sons, Ltd, 173-190 (2016). 
 GPU-Accelerated Sparse Matrix-Matrix Multiplication for
 Linear Scaling Density Functional Theory.
 https://doi.org/10.1002/9781118670712.ch8

 Borstnik, U; VandeVondele, J; Weber, V; Hutter, J. 
 PARALLEL COMPUTING, 40 (5-6), 47-58 (2014). 
 Sparse matrix multiplication: The distributed block-compressed sparse
 row library.
 https://doi.org/10.1016/j.parco.2014.03.012

 Hutter, J; Iannuzzi, M; Schiffmann, F; VandeVondele, J. 
 WIREs Comput Mol Sci., 4 (1), 15-25 (2014). 
 CP2K: atomistic simulations of condensed matter systems.
 https://doi.org/10.1002/wcms.1159

 Marek, A; Blum, V; Johanni, R; Havu, V; Lang, B; Auckenthaler, T;
 Heinecke, A; Bungartz, H; Lederer, H. 
 Journal of Physics: Condensed Matter, 26 (21), (2014). 
 The ELPA library: scalable parallel eigenvalue solutions for
 electronic structure
 theory and computational science.
 https://doi.org/10.1088/0953-8984/26/21/213201

 Guidon, M; Hutter, J; VandeVondele, J. 
 JOURNAL OF CHEMICAL THEORY AND COMPUTATION, 6 (8), 2348-2364 (2010). 
 Auxiliary Density Matrix Methods for Hartree-Fock Exchange Calculations.
 https://doi.org/10.1021/ct1002225

 VandeVondele, J; Hutter, J. 
 JOURNAL OF CHEMICAL PHYSICS, 127 (11), 114105 (2007). 
 Gaussian basis sets for accurate calculations on molecular systems in
 gas and condensed phases.
 https://doi.org/10.1063/1.2770708

 Krack, M. 
 THEORETICAL CHEMISTRY ACCOUNTS, 114 (1-3), 145-152 (2005). 
 Pseudopotentials for H to Kr optimized for gradient-corrected
 exchange-correlation functionals.
 https://doi.org/10.1007/s00214-005-0655-y

 VandeVondele, J; Krack, M; Mohamed, F; Parrinello, M; Chassaing, T;
 Hutter, J. COMPUTER PHYSICS COMMUNICATIONS, 167 (2), 103-128 (2005). 
 QUICKSTEP: Fast and accurate density functional calculations using a
 mixed Gaussian and plane waves approach.
 https://doi.org/10.1016/j.cpc.2004.12.014

 Frigo, M; Johnson, SG. 
 PROCEEDINGS OF THE IEEE, 93 (2), 216-231 (2005). 
 The design and implementation of FFTW3.
 https://doi.org/10.1109/JPROC.2004.840301

 Hartwigsen, C; Goedecker, S; Hutter, J. 
 PHYSICAL REVIEW B, 58 (7), 3641-3662 (1998). 
 Relativistic separable dual-space Gaussian pseudopotentials from H to Rn.
 https://doi.org/10.1103/PhysRevB.58.3641

 Lippert, G; Hutter, J; Parrinello, M. 
 MOLECULAR PHYSICS, 92 (3), 477-487 (1997). 
 A hybrid Gaussian and plane wave density functional scheme.
 https://doi.org/10.1080/002689797170220

 Perdew, JP; Burke, K; Ernzerhof, M. 
 PHYSICAL REVIEW LETTERS, 77 (18), 3865-3868 (1996). 
 Generalized gradient approximation made simple.
 https://doi.org/10.1103/PhysRevLett.77.3865

 Goedecker, S; Teter, M; Hutter, J. 
 PHYSICAL REVIEW B, 54 (3), 1703-1710 (1996). 
 Separable dual-space Gaussian pseudopotentials.
 https://doi.org/10.1103/PhysRevB.54.1703


 -------------------------------------------------------------------------------
 -                                                                             -
 -                                T I M I N G                                  -
 -                                                                             -
 -------------------------------------------------------------------------------
 SUBROUTINE                       CALLS  ASD         SELF TIME        TOTAL TIME
                                MAXIMUM       AVERAGE  MAXIMUM  AVERAGE  MAXIMUM
 CP2K                                 1  1.0    0.002    0.005 4322.818 4322.872
 run_optimize_basis                   1  2.0    0.003    0.004 4322.804 4322.859
 driver_para_opt_basis                1  3.0    0.000    0.000 4322.789 4322.844
 driver_optimization_para_low         1  4.0    0.299    0.636 4322.788 4322.843
 compute_residuum_vectors         48597  5.0    2.555    3.178 4297.772 4306.172
 mp_sum_dv                       242986  5.8 2789.015 3692.033 2789.015 3692.033
 admm_fit_mo_coeffs               48597  6.0    0.113    0.183  610.585 3079.656
 fit_mo_coeffs                    48597  7.0    0.440    0.543  460.469 2850.218
 copy_dbcsr_to_fm                242986  6.8    2.378    3.060  339.141 2461.330
 dbcsr_desymmetrize_deep         242986  7.8    4.868    8.289  256.927 2366.094
 mp_alltoall_i22                 485973  8.8  234.152 2338.238  234.152 2338.238
 build_overlap_matrix_low         97198  6.0  213.110 2323.210  214.986 2326.383
 cp_gemm                         583164  7.2    0.820    0.942  722.986 1525.990
 cp_gemm_fm_gemm                 583164  8.2    0.510    0.585  722.167 1525.146
 cp_fm_gemm                      583164  9.2  721.657 1524.650  721.657 1524.650
 purify_mo_diag                   48597  7.0    0.554    0.688  150.003  235.079
 cp_fm_syevd                      97194  7.0    0.288    0.364  125.507  175.596
 cp_fm_redistribute_end           97194  8.0   17.146  153.234   17.784  154.295
 cp_fm_syevd_base                 97194  8.0   93.661  148.433   93.661  148.433
 dbcsr_complete_redistribute     242987  7.8   13.877   21.420   70.414   91.273
 -------------------------------------------------------------------------------

 The number of warnings for this run is : 1
 
 -------------------------------------------------------------------------------
  **** **** ******  **  PROGRAM ENDED AT                 2021-01-05 19:07:54.458
 ***** ** ***  *** **   PROGRAM RAN ON                                   tcopt10
 **    ****   ******    PROGRAM RAN BY                                    hutter
 ***** **    ** ** **   PROGRAM PROCESS ID                                 41709
  **** **  *******  **  PROGRAM STOPPED IN /data/hutter/GITHUB/BASIS/MOLOPT/PBE/
                                           Cu
