
  **** **** ******  **  PROGRAM STARTED AT               2021-01-23 11:04:26.691
 ***** ** ***  *** **   PROGRAM STARTED ON                               tcopt10
 **    ****   ******    PROGRAM STARTED BY                                hutter
 ***** **    ** ** **   PROGRAM PROCESS ID                                 69181
  **** **  *******  **  PROGRAM STARTED IN /data/hutter/GITHUB/BASIS/MOLOPT/PBE/
                                           Cu

 CP2K| version string:                    CP2K version 9.0 (Development Version)
 CP2K| source code revision number:                                  git:7d6847f
 CP2K| cp2kflags: omp libint fftw3 libxc elpa parallel mpi3 scalapack xsmm spgli
 CP2K|            b sirius libvori libbqb
 CP2K| is freely available from                            https://www.cp2k.org/
 CP2K| Program compiled at                          Fre Jan 15 16:26:00 CET 2021
 CP2K| Program compiled on                                               tcopt10
 CP2K| Program compiled for                                                local
 CP2K| Data directory path                 /data/hutter/GITHUB/CURRENT/cp2k/data
 CP2K| Input file name                                               opt-all.inp

 GLOBAL| Method name                                              OPTIMIZE_BASIS
 GLOBAL| Project name                                                     molopt
 GLOBAL| Preferred FFT library                                             FFTW3
 GLOBAL| Preferred diagonalization lib.                                     ELPA
 GLOBAL| Run type                                                   ENERGY_FORCE
 GLOBAL| All-to-all communication in single precision                          F
 GLOBAL| FFTs using library dependent lengths                                  F
 GLOBAL| Global print level                                               MEDIUM
 GLOBAL| MPI I/O enabled                                                       T
 GLOBAL| Total number of message passing processes                            48
 GLOBAL| Number of threads for this process                                    1
 GLOBAL| This output is from process                                           0
 GLOBAL| CPU model name                          AMD EPYC 7401 24-Core Processor
 GLOBAL| CPUID                                                              1002

 MEMORY| system memory details [Kb]
 MEMORY|                        rank 0           min           max       average
 MEMORY| MemTotal            263969964     263969964     263969964     263969964
 MEMORY| MemFree             258756708     258756708     258756708     258756708
 MEMORY| Buffers                    20            20            20            20
 MEMORY| Cached                1210220       1210220       1210220       1210220
 MEMORY| Slab                   602960        602960        602960        602960
 MEMORY| SReclaimable           243180        243180        243180        243180
 MEMORY| MemLikelyFree       260210128     260210128     260210128     260210128


 *** Fundamental physical constants (SI units) ***

 *** Literature: B. J. Mohr and B. N. Taylor,
 ***             CODATA recommended values of the fundamental physical
 ***             constants: 2006, Web Version 5.1
 ***             http://physics.nist.gov/constants

 Speed of light in vacuum [m/s]                             2.99792458000000E+08
 Magnetic constant or permeability of vacuum [N/A**2]       1.25663706143592E-06
 Electric constant or permittivity of vacuum [F/m]          8.85418781762039E-12
 Planck constant (h) [J*s]                                  6.62606896000000E-34
 Planck constant (h-bar) [J*s]                              1.05457162825177E-34
 Elementary charge [C]                                      1.60217648700000E-19
 Electron mass [kg]                                         9.10938215000000E-31
 Electron g factor [ ]                                     -2.00231930436220E+00
 Proton mass [kg]                                           1.67262163700000E-27
 Fine-structure constant                                    7.29735253760000E-03
 Rydberg constant [1/m]                                     1.09737315685270E+07
 Avogadro constant [1/mol]                                  6.02214179000000E+23
 Boltzmann constant [J/K]                                   1.38065040000000E-23
 Atomic mass unit [kg]                                      1.66053878200000E-27
 Bohr radius [m]                                            5.29177208590000E-11

 *** Conversion factors ***

 [u] -> [a.u.]                                              1.82288848426455E+03
 [Angstrom] -> [Bohr] = [a.u.]                              1.88972613288564E+00
 [a.u.] = [Bohr] -> [Angstrom]                              5.29177208590000E-01
 [a.u.] -> [s]                                              2.41888432650478E-17
 [a.u.] -> [fs]                                             2.41888432650478E-02
 [a.u.] -> [J]                                              4.35974393937059E-18
 [a.u.] -> [N]                                              8.23872205491840E-08
 [a.u.] -> [K]                                              3.15774647902944E+05
 [a.u.] -> [kJ/mol]                                         2.62549961709828E+03
 [a.u.] -> [kcal/mol]                                       6.27509468713739E+02
 [a.u.] -> [Pa]                                             2.94210107994716E+13
 [a.u.] -> [bar]                                            2.94210107994716E+08
 [a.u.] -> [atm]                                            2.90362800883016E+08
 [a.u.] -> [eV]                                             2.72113838565563E+01
 [a.u.] -> [Hz]                                             6.57968392072181E+15
 [a.u.] -> [1/cm] (wave numbers)                            2.19474631370540E+05
 [a.u./Bohr**2] -> [1/cm]                                   5.14048714338585E+03
 
 DBCSR| CPU Multiplication driver                                           XSMM
 DBCSR| Multrec recursion limit                                              512
 DBCSR| Multiplication stack size                                           1000
 DBCSR| Maximum elements for images                                    UNLIMITED
 DBCSR| Multiplicative factor virtual images                                   1
 DBCSR| Use multiplication densification                                       T
 DBCSR| Multiplication size stacks                                             3
 DBCSR| Use memory pool for CPU allocation                                     F
 DBCSR| Number of 3D layers                                               SINGLE
 DBCSR| Use MPI memory allocation                                              F
 DBCSR| Use RMA algorithm                                                      F
 DBCSR| Use Communication thread                                               T
 DBCSR| Communication thread load                                             87
 DBCSR| MPI: My node id                                                        0
 DBCSR| MPI: Number of nodes                                                  48
 DBCSR| OMP: Current number of threads                                         1
 DBCSR| OMP: Max number of threads                                             1
 DBCSR| Split modifier for TAS multiplication algorithm                  1.0E+00

 BASOPT| Total number of calculations     21

 BASOPT| Content of basis combination      1
 BASOPT|     Element:   CU    Basis set:    TZV2P-MOLOPT-PBE-GTH-Q11
 BASOPT|     Element:    S    Basis set:    TZV2P-MOLOPT-PBE-GTH-Q6
 BASOPT|     Element:   CL    Basis set:    TZV2P-MOLOPT-PBE-GTH-Q7
 BASOPT|     Element:    O    Basis set:    TZV2P-MOLOPT-PBE-GTH-Q6
 BASOPT|     Element:    N    Basis set:    TZV2P-MOLOPT-PBE-GTH-Q5
 BASOPT|     Element:    H    Basis set:    TZV2P-MOLOPT-PBE-GTH-Q1
 BASOPT|     Element:    C    Basis set:    TZV2P-MOLOPT-PBE-GTH-Q4
 BASOPT|     Element:    F    Basis set:    TZV2P-MOLOPT-PBE-GTH-Q7

 BASOPT| Content of basis combination      2
 BASOPT|     Element:   CU    Basis set:    TZVP-MOLOPT-PBE-GTH-q11
 BASOPT|     Element:    S    Basis set:    TZVP-MOLOPT-PBE-GTH-q6
 BASOPT|     Element:   CL    Basis set:    TZVP-MOLOPT-PBE-GTH-q7
 BASOPT|     Element:    O    Basis set:    TZVP-MOLOPT-PBE-GTH-q6
 BASOPT|     Element:    N    Basis set:    TZVP-MOLOPT-PBE-GTH-q5
 BASOPT|     Element:    H    Basis set:    TZVP-MOLOPT-PBE-GTH-q1
 BASOPT|     Element:    C    Basis set:    TZVP-MOLOPT-PBE-GTH-q4
 BASOPT|     Element:    F    Basis set:    TZVP-MOLOPT-PBE-GTH-q7

 BASOPT| Content of basis combination      3
 BASOPT|     Element:   CU    Basis set:    DZVP-MOLOPT-PBE-GTH-q11
 BASOPT|     Element:    S    Basis set:    DZVP-MOLOPT-PBE-GTH-q6
 BASOPT|     Element:   CL    Basis set:    DZVP-MOLOPT-PBE-GTH-q7
 BASOPT|     Element:    O    Basis set:    DZVP-MOLOPT-PBE-GTH-q6
 BASOPT|     Element:    N    Basis set:    DZVP-MOLOPT-PBE-GTH-q5
 BASOPT|     Element:    H    Basis set:    DZVP-MOLOPT-PBE-GTH-q1
 BASOPT|     Element:    C    Basis set:    DZVP-MOLOPT-PBE-GTH-q4
 BASOPT|     Element:    F    Basis set:    DZVP-MOLOPT-PBE-GTH-q7

 BASOPT| Information at iteration number:       0
 BASOPT| Training set | Combination | Rho difference | Condition num. | Time
 BASOPT| -----------------------------------------------------------------------
 BASOPT|        1     |       1     | 0.49236270E-03 | 0.89133133E+05 |    0.129
 BASOPT|        1     |       2     | 0.71257216E-03 | 0.77864394E+04 |    0.113
 BASOPT|        1     |       3     | 0.11141262E-02 | 0.34634914E+03 |    0.092
 BASOPT|        2     |       1     | 0.87609510E-03 | 0.12092869E+05 |    0.057
 BASOPT|        2     |       2     | 0.16005883E-02 | 0.39719460E+04 |    0.045
 BASOPT|        2     |       3     | 0.20929495E-02 | 0.31534672E+03 |    0.039
 BASOPT|        3     |       1     | 0.75366752E-03 | 0.80908076E+04 |    0.036
 BASOPT|        3     |       2     | 0.10329502E-02 | 0.31685335E+04 |    0.026
 BASOPT|        3     |       3     | 0.18285034E-02 | 0.76455248E+03 |    0.022
 BASOPT|        4     |       1     | 0.26232408E-03 | 0.22972781E+03 |    0.014
 BASOPT|        4     |       2     | 0.30924992E-03 | 0.22464191E+03 |    0.013
 BASOPT|        4     |       3     | 0.56251953E-03 | 0.48520888E+02 |    0.011
 BASOPT|        5     |       1     | 0.36780443E-03 | 0.20419446E+05 |    0.025
 BASOPT|        5     |       2     | 0.38301637E-03 | 0.62372471E+04 |    0.020
 BASOPT|        5     |       3     | 0.48326277E-03 | 0.27077540E+03 |    0.018
 BASOPT|        6     |       1     | 0.72375012E-03 | 0.23184934E+03 |    0.019
 BASOPT|        6     |       2     | 0.11754503E-02 | 0.15377751E+03 |    0.015
 BASOPT|        6     |       3     | 0.14895647E-02 | 0.73228835E+02 |    0.014
 BASOPT|        7     |       1     | 0.42091318E-03 | 0.27015847E+03 |    0.021
 BASOPT|        7     |       2     | 0.59005615E-03 | 0.20430915E+03 |    0.015
 BASOPT|        7     |       3     | 0.80199556E-03 | 0.10361917E+03 |    0.015
 BASOPT| -----------------------------------------------------------------------
 BASOPT| Total residuum value: -.11963316E+04

 BASOPT| Information at iteration number:     100
 BASOPT| Training set | Combination | Rho difference | Condition num. | Time
 BASOPT| -----------------------------------------------------------------------
 BASOPT|        1     |       1     | 0.49284087E-03 | 0.54600390E+05 |   12.599
 BASOPT|        1     |       2     | 0.71257216E-03 | 0.77864394E+04 |   10.443
 BASOPT|        1     |       3     | 0.11141262E-02 | 0.34634914E+03 |    8.549
 BASOPT|        2     |       1     | 0.87989747E-03 | 0.11555687E+05 |    5.041
 BASOPT|        2     |       2     | 0.16005883E-02 | 0.39719460E+04 |    4.049
 BASOPT|        2     |       3     | 0.20929495E-02 | 0.31534672E+03 |    3.481
 BASOPT|        3     |       1     | 0.75415939E-03 | 0.79602003E+04 |    3.856
 BASOPT|        3     |       2     | 0.10329502E-02 | 0.31685335E+04 |    2.835
 BASOPT|        3     |       3     | 0.18285034E-02 | 0.76455248E+03 |    2.391
 BASOPT|        4     |       1     | 0.26200759E-03 | 0.22932920E+03 |    1.311
 BASOPT|        4     |       2     | 0.30924992E-03 | 0.22464191E+03 |    1.135
 BASOPT|        4     |       3     | 0.56251953E-03 | 0.48520888E+02 |    0.997
 BASOPT|        5     |       1     | 0.36853017E-03 | 0.19758864E+05 |    2.284
 BASOPT|        5     |       2     | 0.38301637E-03 | 0.62372471E+04 |    2.027
 BASOPT|        5     |       3     | 0.48326277E-03 | 0.27077540E+03 |    1.665
 BASOPT|        6     |       1     | 0.72673161E-03 | 0.23293854E+03 |    1.873
 BASOPT|        6     |       2     | 0.11754503E-02 | 0.15377751E+03 |    1.539
 BASOPT|        6     |       3     | 0.14895647E-02 | 0.73228835E+02 |    1.350
 BASOPT|        7     |       1     | 0.42325800E-03 | 0.27022446E+03 |    1.937
 BASOPT|        7     |       2     | 0.59005615E-03 | 0.20430915E+03 |    1.499
 BASOPT|        7     |       3     | 0.80199556E-03 | 0.10361917E+03 |    1.314
 BASOPT| -----------------------------------------------------------------------
 BASOPT| Total residuum value: -.11963369E+04

 BASOPT| Information at iteration number:     200
 BASOPT| Training set | Combination | Rho difference | Condition num. | Time
 BASOPT| -----------------------------------------------------------------------
 BASOPT|        1     |       1     | 0.49665991E-03 | 0.10116492E+05 |   25.523
 BASOPT|        1     |       2     | 0.70782907E-03 | 0.33819987E+04 |   21.162
 BASOPT|        1     |       3     | 0.11176524E-02 | 0.39058873E+03 |   17.355
 BASOPT|        2     |       1     | 0.88198970E-03 | 0.79225527E+04 |   10.160
 BASOPT|        2     |       2     | 0.15938818E-02 | 0.15674837E+04 |    8.152
 BASOPT|        2     |       3     | 0.20465075E-02 | 0.35843924E+03 |    7.031
 BASOPT|        3     |       1     | 0.75510456E-03 | 0.57850660E+04 |    7.776
 BASOPT|        3     |       2     | 0.10022328E-02 | 0.28320826E+04 |    5.717
 BASOPT|        3     |       3     | 0.18524867E-02 | 0.76780201E+03 |    4.824
 BASOPT|        4     |       1     | 0.27817345E-03 | 0.22551703E+03 |    2.646
 BASOPT|        4     |       2     | 0.32872356E-03 | 0.22100938E+03 |    2.281
 BASOPT|        4     |       3     | 0.57087247E-03 | 0.47723227E+02 |    2.005
 BASOPT|        5     |       1     | 0.36983259E-03 | 0.61696485E+04 |    4.600
 BASOPT|        5     |       2     | 0.38236159E-03 | 0.18712633E+04 |    4.082
 BASOPT|        5     |       3     | 0.48040138E-03 | 0.29882910E+03 |    3.353
 BASOPT|        6     |       1     | 0.73934798E-03 | 0.23170097E+03 |    3.778
 BASOPT|        6     |       2     | 0.11777874E-02 | 0.15090674E+03 |    3.103
 BASOPT|        6     |       3     | 0.14834694E-02 | 0.74478696E+02 |    2.723
 BASOPT|        7     |       1     | 0.43886504E-03 | 0.30212745E+03 |    3.896
 BASOPT|        7     |       2     | 0.59766665E-03 | 0.20890807E+03 |    3.024
 BASOPT|        7     |       3     | 0.80337208E-03 | 0.10190054E+03 |    2.644
 BASOPT| -----------------------------------------------------------------------
 BASOPT| Total residuum value: -.11964418E+04

 BASOPT| Information at iteration number:     300
 BASOPT| Training set | Combination | Rho difference | Condition num. | Time
 BASOPT| -----------------------------------------------------------------------
 BASOPT|        1     |       1     | 0.48957278E-03 | 0.70514580E+04 |   38.452
 BASOPT|        1     |       2     | 0.69466414E-03 | 0.30245727E+04 |   31.873
 BASOPT|        1     |       3     | 0.10977471E-02 | 0.46142956E+03 |   26.130
 BASOPT|        2     |       1     | 0.87848410E-03 | 0.53758999E+04 |   15.279
 BASOPT|        2     |       2     | 0.15953513E-02 | 0.13644727E+04 |   12.255
 BASOPT|        2     |       3     | 0.20360333E-02 | 0.41641307E+03 |   10.579
 BASOPT|        3     |       1     | 0.74276581E-03 | 0.52140726E+04 |   11.694
 BASOPT|        3     |       2     | 0.98624360E-03 | 0.27385456E+04 |    8.598
 BASOPT|        3     |       3     | 0.18425920E-02 | 0.76840151E+03 |    7.259
 BASOPT|        4     |       1     | 0.28626496E-03 | 0.22490322E+03 |    3.981
 BASOPT|        4     |       2     | 0.34017765E-03 | 0.22036122E+03 |    3.427
 BASOPT|        4     |       3     | 0.55686893E-03 | 0.47955948E+02 |    3.015
 BASOPT|        5     |       1     | 0.39267607E-03 | 0.39191652E+04 |    6.916
 BASOPT|        5     |       2     | 0.40544066E-03 | 0.15244698E+04 |    6.137
 BASOPT|        5     |       3     | 0.50044985E-03 | 0.34735705E+03 |    5.043
 BASOPT|        6     |       1     | 0.74182699E-03 | 0.23246116E+03 |    5.684
 BASOPT|        6     |       2     | 0.11795028E-02 | 0.15069327E+03 |    4.669
 BASOPT|        6     |       3     | 0.14849705E-02 | 0.75401098E+02 |    4.096
 BASOPT|        7     |       1     | 0.43443789E-03 | 0.31238709E+03 |    5.857
 BASOPT|        7     |       2     | 0.58894587E-03 | 0.21332011E+03 |    4.548
 BASOPT|        7     |       3     | 0.78864043E-03 | 0.10193737E+03 |    3.972
 BASOPT| -----------------------------------------------------------------------
 BASOPT| Total residuum value: -.11964597E+04

 BASOPT| Information at iteration number:     400
 BASOPT| Training set | Combination | Rho difference | Condition num. | Time
 BASOPT| -----------------------------------------------------------------------
 BASOPT|        1     |       1     | 0.48775813E-03 | 0.53190027E+04 |   51.375
 BASOPT|        1     |       2     | 0.69140020E-03 | 0.28611790E+04 |   42.582
 BASOPT|        1     |       3     | 0.11019538E-02 | 0.49047063E+03 |   34.893
 BASOPT|        2     |       1     | 0.88240490E-03 | 0.38911356E+04 |   20.400
 BASOPT|        2     |       2     | 0.15996027E-02 | 0.14038140E+04 |   16.358
 BASOPT|        2     |       3     | 0.20224679E-02 | 0.44962845E+03 |   14.143
 BASOPT|        3     |       1     | 0.75292952E-03 | 0.50692533E+04 |   15.611
 BASOPT|        3     |       2     | 0.99503587E-03 | 0.27506611E+04 |   11.479
 BASOPT|        3     |       3     | 0.18614693E-02 | 0.77210112E+03 |    9.694
 BASOPT|        4     |       1     | 0.28556608E-03 | 0.22400876E+03 |    5.314
 BASOPT|        4     |       2     | 0.34032465E-03 | 0.21901318E+03 |    4.573
 BASOPT|        4     |       3     | 0.56859586E-03 | 0.48152270E+02 |    4.025
 BASOPT|        5     |       1     | 0.39519142E-03 | 0.26687942E+04 |    9.233
 BASOPT|        5     |       2     | 0.40583692E-03 | 0.15073227E+04 |    8.193
 BASOPT|        5     |       3     | 0.51122451E-03 | 0.35110006E+03 |    6.732
 BASOPT|        6     |       1     | 0.75078095E-03 | 0.22939611E+03 |    7.587
 BASOPT|        6     |       2     | 0.11857599E-02 | 0.14888194E+03 |    6.230
 BASOPT|        6     |       3     | 0.14846340E-02 | 0.75716784E+02 |    5.468
 BASOPT|        7     |       1     | 0.43773189E-03 | 0.31770092E+03 |    7.814
 BASOPT|        7     |       2     | 0.59154815E-03 | 0.21424108E+03 |    6.072
 BASOPT|        7     |       3     | 0.79135472E-03 | 0.10120054E+03 |    5.300
 BASOPT| -----------------------------------------------------------------------
 BASOPT| Total residuum value: -.11964601E+04

 BASOPT| Information at iteration number:     500
 BASOPT| Training set | Combination | Rho difference | Condition num. | Time
 BASOPT| -----------------------------------------------------------------------
 BASOPT|        1     |       1     | 0.47997453E-03 | 0.47385520E+04 |   64.294
 BASOPT|        1     |       2     | 0.68315507E-03 | 0.28255914E+04 |   53.290
 BASOPT|        1     |       3     | 0.10769544E-02 | 0.48432424E+03 |   43.658
 BASOPT|        2     |       1     | 0.87429913E-03 | 0.33252479E+04 |   25.527
 BASOPT|        2     |       2     | 0.15942157E-02 | 0.14352525E+04 |   20.461
 BASOPT|        2     |       3     | 0.20308093E-02 | 0.45037782E+03 |   17.721
 BASOPT|        3     |       1     | 0.74564187E-03 | 0.50008019E+04 |   19.527
 BASOPT|        3     |       2     | 0.98484797E-03 | 0.27628579E+04 |   14.361
 BASOPT|        3     |       3     | 0.18408082E-02 | 0.77362264E+03 |   12.130
 BASOPT|        4     |       1     | 0.30174392E-03 | 0.22458409E+03 |    6.651
 BASOPT|        4     |       2     | 0.35956871E-03 | 0.21910188E+03 |    5.719
 BASOPT|        4     |       3     | 0.57757578E-03 | 0.48625882E+02 |    5.035
 BASOPT|        5     |       1     | 0.40208393E-03 | 0.21502411E+04 |   11.547
 BASOPT|        5     |       2     | 0.41300113E-03 | 0.14989340E+04 |   10.247
 BASOPT|        5     |       3     | 0.52213960E-03 | 0.34199943E+03 |    8.419
 BASOPT|        6     |       1     | 0.73966888E-03 | 0.23051480E+03 |    9.490
 BASOPT|        6     |       2     | 0.11768924E-02 | 0.14942672E+03 |    7.793
 BASOPT|        6     |       3     | 0.14777347E-02 | 0.75970985E+02 |    6.841
 BASOPT|        7     |       1     | 0.41964538E-03 | 0.32395191E+03 |    9.770
 BASOPT|        7     |       2     | 0.57476442E-03 | 0.21682674E+03 |    7.595
 BASOPT|        7     |       3     | 0.77616237E-03 | 0.10183945E+03 |    6.628
 BASOPT| -----------------------------------------------------------------------
 BASOPT| Total residuum value: -.11964780E+04

 BASOPT| Information at iteration number:     600
 BASOPT| Training set | Combination | Rho difference | Condition num. | Time
 BASOPT| -----------------------------------------------------------------------
 BASOPT|        1     |       1     | 0.47910420E-03 | 0.42297542E+04 |   77.216
 BASOPT|        1     |       2     | 0.67829807E-03 | 0.27160854E+04 |   63.999
 BASOPT|        1     |       3     | 0.10737022E-02 | 0.46726524E+03 |   52.431
 BASOPT|        2     |       1     | 0.87527518E-03 | 0.28074871E+04 |   30.650
 BASOPT|        2     |       2     | 0.15931224E-02 | 0.14487332E+04 |   24.564
 BASOPT|        2     |       3     | 0.20324154E-02 | 0.44205300E+03 |   21.297
 BASOPT|        3     |       1     | 0.74775007E-03 | 0.49398440E+04 |   23.443
 BASOPT|        3     |       2     | 0.98527483E-03 | 0.27601374E+04 |   17.242
 BASOPT|        3     |       3     | 0.18412070E-02 | 0.77482554E+03 |   14.566
 BASOPT|        4     |       1     | 0.30558923E-03 | 0.22503661E+03 |    7.986
 BASOPT|        4     |       2     | 0.36349528E-03 | 0.21892955E+03 |    6.868
 BASOPT|        4     |       3     | 0.59738668E-03 | 0.48855751E+02 |    6.044
 BASOPT|        5     |       1     | 0.40453871E-03 | 0.21317374E+04 |   13.861
 BASOPT|        5     |       2     | 0.41477608E-03 | 0.14865005E+04 |   12.300
 BASOPT|        5     |       3     | 0.53729434E-03 | 0.32278326E+03 |   10.107
 BASOPT|        6     |       1     | 0.73777788E-03 | 0.22850393E+03 |   11.393
 BASOPT|        6     |       2     | 0.11747792E-02 | 0.14772927E+03 |    9.354
 BASOPT|        6     |       3     | 0.14692017E-02 | 0.75494145E+02 |    8.214
 BASOPT|        7     |       1     | 0.41601682E-03 | 0.32592140E+03 |   11.731
 BASOPT|        7     |       2     | 0.56908708E-03 | 0.21630982E+03 |    9.116
 BASOPT|        7     |       3     | 0.76937405E-03 | 0.10119106E+03 |    7.957
 BASOPT| -----------------------------------------------------------------------
 BASOPT| Total residuum value: -.11964829E+04

 BASOPT| Information at iteration number:     700
 BASOPT| Training set | Combination | Rho difference | Condition num. | Time
 BASOPT| -----------------------------------------------------------------------
 BASOPT|        1     |       1     | 0.47786197E-03 | 0.35890091E+04 |   90.139
 BASOPT|        1     |       2     | 0.67306230E-03 | 0.24486395E+04 |   74.709
 BASOPT|        1     |       3     | 0.10686801E-02 | 0.44728930E+03 |   61.204
 BASOPT|        2     |       1     | 0.87925276E-03 | 0.24855164E+04 |   35.774
 BASOPT|        2     |       2     | 0.15959448E-02 | 0.13015574E+04 |   28.667
 BASOPT|        2     |       3     | 0.20432994E-02 | 0.42194993E+03 |   24.879
 BASOPT|        3     |       1     | 0.74514464E-03 | 0.47693755E+04 |   27.357
 BASOPT|        3     |       2     | 0.98211981E-03 | 0.27165752E+04 |   20.123
 BASOPT|        3     |       3     | 0.18331658E-02 | 0.77419013E+03 |   17.002
 BASOPT|        4     |       1     | 0.32041204E-03 | 0.22516927E+03 |    9.322
 BASOPT|        4     |       2     | 0.37956853E-03 | 0.21881372E+03 |    8.013
 BASOPT|        4     |       3     | 0.61995365E-03 | 0.48834025E+02 |    7.053
 BASOPT|        5     |       1     | 0.41669843E-03 | 0.17560728E+04 |   16.175
 BASOPT|        5     |       2     | 0.42794165E-03 | 0.12905315E+04 |   14.353
 BASOPT|        5     |       3     | 0.56424435E-03 | 0.30187406E+03 |   11.797
 BASOPT|        6     |       1     | 0.73481100E-03 | 0.22716470E+03 |   13.296
 BASOPT|        6     |       2     | 0.11713963E-02 | 0.14702662E+03 |   10.917
 BASOPT|        6     |       3     | 0.14651987E-02 | 0.75137627E+02 |    9.587
 BASOPT|        7     |       1     | 0.40865425E-03 | 0.32678209E+03 |   13.685
 BASOPT|        7     |       2     | 0.56012656E-03 | 0.21539698E+03 |   10.640
 BASOPT|        7     |       3     | 0.76552043E-03 | 0.10132700E+03 |    9.284
 BASOPT| -----------------------------------------------------------------------
 BASOPT| Total residuum value: -.11964890E+04

 BASOPT| Information at iteration number:     800
 BASOPT| Training set | Combination | Rho difference | Condition num. | Time
 BASOPT| -----------------------------------------------------------------------
 BASOPT|        1     |       1     | 0.48137280E-03 | 0.33505065E+04 |  103.056
 BASOPT|        1     |       2     | 0.67435408E-03 | 0.23417210E+04 |   85.416
 BASOPT|        1     |       3     | 0.10649471E-02 | 0.42959162E+03 |   69.976
 BASOPT|        2     |       1     | 0.88246948E-03 | 0.23296561E+04 |   40.905
 BASOPT|        2     |       2     | 0.15972157E-02 | 0.12428238E+04 |   32.770
 BASOPT|        2     |       3     | 0.20417338E-02 | 0.40845632E+03 |   28.445
 BASOPT|        3     |       1     | 0.75059840E-03 | 0.46825675E+04 |   31.271
 BASOPT|        3     |       2     | 0.98717574E-03 | 0.26844908E+04 |   23.005
 BASOPT|        3     |       3     | 0.18575399E-02 | 0.77273925E+03 |   19.439
 BASOPT|        4     |       1     | 0.31475006E-03 | 0.22454112E+03 |   10.657
 BASOPT|        4     |       2     | 0.37255934E-03 | 0.21809517E+03 |    9.162
 BASOPT|        4     |       3     | 0.61959609E-03 | 0.48387573E+02 |    8.063
 BASOPT|        5     |       1     | 0.42017063E-03 | 0.16455795E+04 |   18.487
 BASOPT|        5     |       2     | 0.43094380E-03 | 0.12220870E+04 |   16.406
 BASOPT|        5     |       3     | 0.55967963E-03 | 0.29135154E+03 |   13.484
 BASOPT|        6     |       1     | 0.73930697E-03 | 0.22453996E+03 |   15.199
 BASOPT|        6     |       2     | 0.11739796E-02 | 0.14509238E+03 |   12.479
 BASOPT|        6     |       3     | 0.14765750E-02 | 0.74406925E+02 |   10.960
 BASOPT|        7     |       1     | 0.41731202E-03 | 0.32418737E+03 |   15.637
 BASOPT|        7     |       2     | 0.56576757E-03 | 0.21326200E+03 |   12.161
 BASOPT|        7     |       3     | 0.76210168E-03 | 0.99950170E+02 |   10.610
 BASOPT| -----------------------------------------------------------------------
 BASOPT| Total residuum value: -.11964923E+04

 BASOPT| Information at iteration number:     900
 BASOPT| Training set | Combination | Rho difference | Condition num. | Time
 BASOPT| -----------------------------------------------------------------------
 BASOPT|        1     |       1     | 0.48221262E-03 | 0.33425576E+04 |  115.975
 BASOPT|        1     |       2     | 0.67439413E-03 | 0.23345108E+04 |   96.125
 BASOPT|        1     |       3     | 0.10596542E-02 | 0.44169061E+03 |   78.751
 BASOPT|        2     |       1     | 0.88375286E-03 | 0.22961736E+04 |   46.029
 BASOPT|        2     |       2     | 0.15945248E-02 | 0.12222121E+04 |   36.871
 BASOPT|        2     |       3     | 0.20685710E-02 | 0.41540666E+03 |   32.026
 BASOPT|        3     |       1     | 0.75357089E-03 | 0.46343652E+04 |   35.184
 BASOPT|        3     |       2     | 0.98836264E-03 | 0.26661450E+04 |   25.885
 BASOPT|        3     |       3     | 0.18471786E-02 | 0.77077137E+03 |   21.872
 BASOPT|        4     |       1     | 0.32122702E-03 | 0.22467063E+03 |   11.991
 BASOPT|        4     |       2     | 0.37906872E-03 | 0.21790512E+03 |   10.307
 BASOPT|        4     |       3     | 0.59756873E-03 | 0.48813515E+02 |    9.074
 BASOPT|        5     |       1     | 0.40734714E-03 | 0.16380319E+04 |   20.799
 BASOPT|        5     |       2     | 0.41642889E-03 | 0.12044158E+04 |   18.459
 BASOPT|        5     |       3     | 0.53831824E-03 | 0.30358895E+03 |   15.172
 BASOPT|        6     |       1     | 0.73679978E-03 | 0.22405163E+03 |   17.101
 BASOPT|        6     |       2     | 0.11702257E-02 | 0.14472175E+03 |   14.044
 BASOPT|        6     |       3     | 0.14806747E-02 | 0.74140054E+02 |   12.331
 BASOPT|        7     |       1     | 0.41508439E-03 | 0.32625629E+03 |   17.591
 BASOPT|        7     |       2     | 0.56365127E-03 | 0.21366070E+03 |   13.681
 BASOPT|        7     |       3     | 0.76368161E-03 | 0.10093918E+03 |   11.937
 BASOPT| -----------------------------------------------------------------------
 BASOPT| Total residuum value: -.11964923E+04

 BASOPT| Information at iteration number:    1000
 BASOPT| Training set | Combination | Rho difference | Condition num. | Time
 BASOPT| -----------------------------------------------------------------------
 BASOPT|        1     |       1     | 0.48163521E-03 | 0.31969824E+04 |  128.890
 BASOPT|        1     |       2     | 0.67327983E-03 | 0.22768820E+04 |  106.833
 BASOPT|        1     |       3     | 0.10678077E-02 | 0.40899168E+03 |   87.529
 BASOPT|        2     |       1     | 0.88159079E-03 | 0.22602991E+04 |   51.147
 BASOPT|        2     |       2     | 0.15964730E-02 | 0.11779882E+04 |   40.972
 BASOPT|        2     |       3     | 0.20600599E-02 | 0.38671115E+03 |   35.575
 BASOPT|        3     |       1     | 0.74344557E-03 | 0.45733602E+04 |   39.097
 BASOPT|        3     |       2     | 0.98005725E-03 | 0.26454148E+04 |   28.766
 BASOPT|        3     |       3     | 0.18310475E-02 | 0.76931568E+03 |   24.305
 BASOPT|        4     |       1     | 0.32291293E-03 | 0.22421534E+03 |   13.326
 BASOPT|        4     |       2     | 0.38326397E-03 | 0.21748951E+03 |   11.451
 BASOPT|        4     |       3     | 0.63095891E-03 | 0.48658039E+02 |   10.083
 BASOPT|        5     |       1     | 0.44256944E-03 | 0.15252539E+04 |   23.112
 BASOPT|        5     |       2     | 0.45445455E-03 | 0.11449579E+04 |   20.511
 BASOPT|        5     |       3     | 0.59111186E-03 | 0.28535148E+03 |   16.859
 BASOPT|        6     |       1     | 0.73554466E-03 | 0.22198263E+03 |   19.003
 BASOPT|        6     |       2     | 0.11712328E-02 | 0.14323428E+03 |   15.609
 BASOPT|        6     |       3     | 0.14710146E-02 | 0.73496515E+02 |   13.703
 BASOPT|        7     |       1     | 0.41356274E-03 | 0.32650208E+03 |   19.548
 BASOPT|        7     |       2     | 0.56129457E-03 | 0.21321333E+03 |   15.202
 BASOPT|        7     |       3     | 0.76505775E-03 | 0.10053455E+03 |   13.263
 BASOPT| -----------------------------------------------------------------------
 BASOPT| Total residuum value: -.11964941E+04

 BASOPT| Information at iteration number:    1100
 BASOPT| Training set | Combination | Rho difference | Condition num. | Time
 BASOPT| -----------------------------------------------------------------------
 BASOPT|        1     |       1     | 0.48296230E-03 | 0.32438121E+04 |  141.804
 BASOPT|        1     |       2     | 0.67480678E-03 | 0.22952551E+04 |  117.543
 BASOPT|        1     |       3     | 0.10647296E-02 | 0.41733670E+03 |   96.341
 BASOPT|        2     |       1     | 0.88313366E-03 | 0.22649905E+04 |   56.262
 BASOPT|        2     |       2     | 0.15945800E-02 | 0.11890347E+04 |   45.072
 BASOPT|        2     |       3     | 0.20627474E-02 | 0.39369035E+03 |   39.121
 BASOPT|        3     |       1     | 0.75195029E-03 | 0.45832529E+04 |   43.011
 BASOPT|        3     |       2     | 0.98714444E-03 | 0.26480613E+04 |   31.648
 BASOPT|        3     |       3     | 0.18434245E-02 | 0.76930096E+03 |   26.738
 BASOPT|        4     |       1     | 0.32298546E-03 | 0.22443573E+03 |   14.659
 BASOPT|        4     |       2     | 0.38142776E-03 | 0.21767995E+03 |   12.596
 BASOPT|        4     |       3     | 0.61739181E-03 | 0.48746541E+02 |   11.092
 BASOPT|        5     |       1     | 0.42184014E-03 | 0.15629793E+04 |   25.425
 BASOPT|        5     |       2     | 0.43161166E-03 | 0.11596653E+04 |   22.563
 BASOPT|        5     |       3     | 0.56078426E-03 | 0.28996354E+03 |   18.545
 BASOPT|        6     |       1     | 0.73605264E-03 | 0.22198875E+03 |   20.905
 BASOPT|        6     |       2     | 0.11706079E-02 | 0.14317510E+03 |   17.172
 BASOPT|        6     |       3     | 0.14761820E-02 | 0.73450272E+02 |   15.075
 BASOPT|        7     |       1     | 0.41597974E-03 | 0.32648581E+03 |   21.504
 BASOPT|        7     |       2     | 0.56373818E-03 | 0.21304155E+03 |   16.723
 BASOPT|        7     |       3     | 0.76593093E-03 | 0.10056973E+03 |   14.590
 BASOPT| -----------------------------------------------------------------------
 BASOPT| Total residuum value: -.11964963E+04

 BASOPT| Information at iteration number:    1200
 BASOPT| Training set | Combination | Rho difference | Condition num. | Time
 BASOPT| -----------------------------------------------------------------------
 BASOPT|        1     |       1     | 0.48105750E-03 | 0.32180513E+04 |  154.721
 BASOPT|        1     |       2     | 0.67238258E-03 | 0.22869490E+04 |  128.249
 BASOPT|        1     |       3     | 0.10655953E-02 | 0.42123119E+03 |  105.169
 BASOPT|        2     |       1     | 0.88256617E-03 | 0.22320430E+04 |   61.379
 BASOPT|        2     |       2     | 0.15971653E-02 | 0.11903042E+04 |   49.173
 BASOPT|        2     |       3     | 0.20577018E-02 | 0.39759309E+03 |   42.668
 BASOPT|        3     |       1     | 0.74780130E-03 | 0.45745010E+04 |   46.925
 BASOPT|        3     |       2     | 0.98409423E-03 | 0.26430382E+04 |   34.530
 BASOPT|        3     |       3     | 0.18412482E-02 | 0.76876288E+03 |   29.170
 BASOPT|        4     |       1     | 0.32061898E-03 | 0.22426634E+03 |   15.991
 BASOPT|        4     |       2     | 0.37999814E-03 | 0.21764376E+03 |   13.740
 BASOPT|        4     |       3     | 0.62032704E-03 | 0.48543509E+02 |   12.101
 BASOPT|        5     |       1     | 0.42646857E-03 | 0.15761101E+04 |   27.737
 BASOPT|        5     |       2     | 0.43634805E-03 | 0.11646254E+04 |   24.617
 BASOPT|        5     |       3     | 0.56734048E-03 | 0.29369486E+03 |   20.232
 BASOPT|        6     |       1     | 0.73562241E-03 | 0.22152735E+03 |   22.808
 BASOPT|        6     |       2     | 0.11709246E-02 | 0.14298908E+03 |   18.734
 BASOPT|        6     |       3     | 0.14736665E-02 | 0.73460833E+02 |   16.447
 BASOPT|        7     |       1     | 0.41423163E-03 | 0.32544936E+03 |   23.461
 BASOPT|        7     |       2     | 0.56166003E-03 | 0.21259632E+03 |   18.243
 BASOPT|        7     |       3     | 0.76403953E-03 | 0.10023393E+03 |   15.920
 BASOPT| -----------------------------------------------------------------------
 BASOPT| Total residuum value: -.11964975E+04

 BASOPT| Information at iteration number:    1300
 BASOPT| Training set | Combination | Rho difference | Condition num. | Time
 BASOPT| -----------------------------------------------------------------------
 BASOPT|        1     |       1     | 0.48177430E-03 | 0.31362551E+04 |  167.634
 BASOPT|        1     |       2     | 0.67306267E-03 | 0.22502635E+04 |  138.951
 BASOPT|        1     |       3     | 0.10657877E-02 | 0.42371804E+03 |  113.969
 BASOPT|        2     |       1     | 0.88272148E-03 | 0.21849073E+04 |   66.501
 BASOPT|        2     |       2     | 0.15975096E-02 | 0.11722769E+04 |   53.273
 BASOPT|        2     |       3     | 0.20544760E-02 | 0.39973574E+03 |   46.215
 BASOPT|        3     |       1     | 0.74979601E-03 | 0.45464015E+04 |   50.838
 BASOPT|        3     |       2     | 0.98617792E-03 | 0.26326726E+04 |   37.410
 BASOPT|        3     |       3     | 0.18463077E-02 | 0.76828094E+03 |   31.608
 BASOPT|        4     |       1     | 0.32162104E-03 | 0.22392869E+03 |   17.324
 BASOPT|        4     |       2     | 0.38110519E-03 | 0.21743492E+03 |   14.885
 BASOPT|        4     |       3     | 0.61963328E-03 | 0.48341127E+02 |   13.109
 BASOPT|        5     |       1     | 0.42904684E-03 | 0.15399653E+04 |   30.052
 BASOPT|        5     |       2     | 0.43877301E-03 | 0.11425714E+04 |   26.670
 BASOPT|        5     |       3     | 0.56650992E-03 | 0.29587684E+03 |   21.919
 BASOPT|        6     |       1     | 0.73656388E-03 | 0.22074348E+03 |   24.710
 BASOPT|        6     |       2     | 0.11715358E-02 | 0.14254708E+03 |   20.294
 BASOPT|        6     |       3     | 0.14755378E-02 | 0.73398775E+02 |   17.819
 BASOPT|        7     |       1     | 0.41547231E-03 | 0.32398583E+03 |   25.416
 BASOPT|        7     |       2     | 0.56244015E-03 | 0.21180507E+03 |   19.763
 BASOPT|        7     |       3     | 0.76371128E-03 | 0.99827785E+02 |   17.248
 BASOPT| -----------------------------------------------------------------------
 BASOPT| Total residuum value: -.11964985E+04

 BASOPT| Information at iteration number:    1400
 BASOPT| Training set | Combination | Rho difference | Condition num. | Time
 BASOPT| -----------------------------------------------------------------------
 BASOPT|        1     |       1     | 0.48238400E-03 | 0.30144926E+04 |  180.545
 BASOPT|        1     |       2     | 0.67297548E-03 | 0.21909258E+04 |  149.655
 BASOPT|        1     |       3     | 0.10741463E-02 | 0.42404289E+03 |  122.744
 BASOPT|        2     |       1     | 0.88245740E-03 | 0.20818662E+04 |   71.617
 BASOPT|        2     |       2     | 0.15964700E-02 | 0.11519917E+04 |   57.378
 BASOPT|        2     |       3     | 0.20529042E-02 | 0.39961600E+03 |   49.763
 BASOPT|        3     |       1     | 0.75352129E-03 | 0.45026305E+04 |   54.757
 BASOPT|        3     |       2     | 0.98968391E-03 | 0.26165289E+04 |   40.292
 BASOPT|        3     |       3     | 0.18465075E-02 | 0.76790480E+03 |   34.046
 BASOPT|        4     |       1     | 0.32244276E-03 | 0.22382167E+03 |   18.658
 BASOPT|        4     |       2     | 0.38189258E-03 | 0.21722221E+03 |   16.028
 BASOPT|        4     |       3     | 0.63031165E-03 | 0.48517706E+02 |   14.117
 BASOPT|        5     |       1     | 0.42757028E-03 | 0.15164243E+04 |   32.363
 BASOPT|        5     |       2     | 0.43642810E-03 | 0.11176592E+04 |   28.722
 BASOPT|        5     |       3     | 0.57569461E-03 | 0.29559242E+03 |   23.607
 BASOPT|        6     |       1     | 0.73680884E-03 | 0.21848898E+03 |   26.611
 BASOPT|        6     |       2     | 0.11713550E-02 | 0.14089348E+03 |   21.856
 BASOPT|        6     |       3     | 0.14692065E-02 | 0.72931773E+02 |   19.191
 BASOPT|        7     |       1     | 0.41715095E-03 | 0.32396232E+03 |   27.374
 BASOPT|        7     |       2     | 0.56354494E-03 | 0.21128023E+03 |   21.284
 BASOPT|        7     |       3     | 0.76676135E-03 | 0.99606763E+02 |   18.575
 BASOPT| -----------------------------------------------------------------------
 BASOPT| Total residuum value: -.11965010E+04

 BASOPT| Information at iteration number:    1500
 BASOPT| Training set | Combination | Rho difference | Condition num. | Time
 BASOPT| -----------------------------------------------------------------------
 BASOPT|        1     |       1     | 0.48283703E-03 | 0.28911532E+04 |  193.456
 BASOPT|        1     |       2     | 0.67302209E-03 | 0.21303195E+04 |  160.363
 BASOPT|        1     |       3     | 0.10688446E-02 | 0.42629149E+03 |  131.530
 BASOPT|        2     |       1     | 0.88274894E-03 | 0.19963082E+04 |   76.732
 BASOPT|        2     |       2     | 0.15978756E-02 | 0.11314966E+04 |   61.480
 BASOPT|        2     |       3     | 0.20552325E-02 | 0.40138823E+03 |   53.334
 BASOPT|        3     |       1     | 0.75430339E-03 | 0.44634157E+04 |   58.670
 BASOPT|        3     |       2     | 0.99077045E-03 | 0.26033985E+04 |   43.174
 BASOPT|        3     |       3     | 0.18493790E-02 | 0.76754034E+03 |   36.480
 BASOPT|        4     |       1     | 0.32409132E-03 | 0.22373791E+03 |   19.993
 BASOPT|        4     |       2     | 0.38410996E-03 | 0.21703255E+03 |   17.172
 BASOPT|        4     |       3     | 0.62383780E-03 | 0.48557780E+02 |   15.125
 BASOPT|        5     |       1     | 0.43165829E-03 | 0.14759632E+04 |   34.676
 BASOPT|        5     |       2     | 0.44017517E-03 | 0.10889846E+04 |   30.775
 BASOPT|        5     |       3     | 0.57328596E-03 | 0.29629411E+03 |   25.296
 BASOPT|        6     |       1     | 0.73649191E-03 | 0.21650537E+03 |   28.514
 BASOPT|        6     |       2     | 0.11712636E-02 | 0.13957678E+03 |   23.418
 BASOPT|        6     |       3     | 0.14727426E-02 | 0.72591220E+02 |   20.564
 BASOPT|        7     |       1     | 0.41692923E-03 | 0.32371178E+03 |   29.330
 BASOPT|        7     |       2     | 0.56295069E-03 | 0.21068078E+03 |   22.805
 BASOPT|        7     |       3     | 0.76545539E-03 | 0.99302065E+02 |   19.903
 BASOPT| -----------------------------------------------------------------------
 BASOPT| Total residuum value: -.11965030E+04

 BASOPT| Information at iteration number:    1600
 BASOPT| Training set | Combination | Rho difference | Condition num. | Time
 BASOPT| -----------------------------------------------------------------------
 BASOPT|        1     |       1     | 0.48324506E-03 | 0.25329816E+04 |  206.368
 BASOPT|        1     |       2     | 0.67149748E-03 | 0.19398705E+04 |  171.075
 BASOPT|        1     |       3     | 0.10646638E-02 | 0.42047225E+03 |  140.331
 BASOPT|        2     |       1     | 0.88447934E-03 | 0.17707197E+04 |   81.844
 BASOPT|        2     |       2     | 0.16015613E-02 | 0.10621611E+04 |   65.582
 BASOPT|        2     |       3     | 0.20625556E-02 | 0.39604238E+03 |   56.881
 BASOPT|        3     |       1     | 0.75692895E-03 | 0.43625251E+04 |   62.583
 BASOPT|        3     |       2     | 0.99439002E-03 | 0.25666260E+04 |   46.055
 BASOPT|        3     |       3     | 0.18558424E-02 | 0.76704984E+03 |   38.913
 BASOPT|        4     |       1     | 0.32828426E-03 | 0.22317343E+03 |   21.327
 BASOPT|        4     |       2     | 0.38954918E-03 | 0.21636005E+03 |   18.315
 BASOPT|        4     |       3     | 0.62609744E-03 | 0.48612467E+02 |   16.134
 BASOPT|        5     |       1     | 0.44616960E-03 | 0.13348948E+04 |   36.987
 BASOPT|        5     |       2     | 0.45429213E-03 | 0.10025288E+04 |   32.829
 BASOPT|        5     |       3     | 0.58679329E-03 | 0.28858080E+03 |   26.983
 BASOPT|        6     |       1     | 0.73935902E-03 | 0.21200868E+03 |   30.416
 BASOPT|        6     |       2     | 0.11735492E-02 | 0.13655265E+03 |   24.979
 BASOPT|        6     |       3     | 0.14775327E-02 | 0.71774185E+02 |   21.936
 BASOPT|        7     |       1     | 0.41900728E-03 | 0.32275505E+03 |   31.284
 BASOPT|        7     |       2     | 0.56371683E-03 | 0.20909677E+03 |   24.326
 BASOPT|        7     |       3     | 0.76478286E-03 | 0.98694306E+02 |   21.231
 BASOPT| -----------------------------------------------------------------------
 BASOPT| Total residuum value: -.11965066E+04

 BASOPT| Information at iteration number:    1700
 BASOPT| Training set | Combination | Rho difference | Condition num. | Time
 BASOPT| -----------------------------------------------------------------------
 BASOPT|        1     |       1     | 0.48443950E-03 | 0.24452572E+04 |  219.280
 BASOPT|        1     |       2     | 0.67231746E-03 | 0.18720248E+04 |  181.775
 BASOPT|        1     |       3     | 0.10693358E-02 | 0.41693807E+03 |  149.105
 BASOPT|        2     |       1     | 0.88327241E-03 | 0.16970920E+04 |   86.958
 BASOPT|        2     |       2     | 0.16005748E-02 | 0.10382898E+04 |   69.684
 BASOPT|        2     |       3     | 0.20645325E-02 | 0.39267414E+03 |   60.428
 BASOPT|        3     |       1     | 0.75932351E-03 | 0.43179087E+04 |   66.496
 BASOPT|        3     |       2     | 0.99630703E-03 | 0.25467987E+04 |   48.936
 BASOPT|        3     |       3     | 0.18578441E-02 | 0.76613825E+03 |   41.345
 BASOPT|        4     |       1     | 0.33067462E-03 | 0.22281589E+03 |   22.663
 BASOPT|        4     |       2     | 0.39226216E-03 | 0.21599551E+03 |   19.458
 BASOPT|        4     |       3     | 0.62995148E-03 | 0.48614499E+02 |   17.144
 BASOPT|        5     |       1     | 0.44494018E-03 | 0.13058655E+04 |   39.298
 BASOPT|        5     |       2     | 0.45236775E-03 | 0.97728532E+03 |   34.884
 BASOPT|        5     |       3     | 0.58700583E-03 | 0.28813775E+03 |   28.672
 BASOPT|        6     |       1     | 0.73769484E-03 | 0.20979901E+03 |   32.318
 BASOPT|        6     |       2     | 0.11721817E-02 | 0.13494840E+03 |   26.540
 BASOPT|        6     |       3     | 0.14751824E-02 | 0.71312420E+02 |   23.309
 BASOPT|        7     |       1     | 0.41897484E-03 | 0.32220335E+03 |   33.240
 BASOPT|        7     |       2     | 0.56321504E-03 | 0.20837780E+03 |   25.847
 BASOPT|        7     |       3     | 0.76447506E-03 | 0.98272809E+02 |   22.562
 BASOPT| -----------------------------------------------------------------------
 BASOPT| Total residuum value: -.11965087E+04

 BASOPT| Information at iteration number:    1800
 BASOPT| Training set | Combination | Rho difference | Condition num. | Time
 BASOPT| -----------------------------------------------------------------------
 BASOPT|        1     |       1     | 0.48514929E-03 | 0.23790178E+04 |  232.198
 BASOPT|        1     |       2     | 0.67254422E-03 | 0.18298560E+04 |  192.482
 BASOPT|        1     |       3     | 0.10705860E-02 | 0.41225316E+03 |  157.879
 BASOPT|        2     |       1     | 0.88382084E-03 | 0.16549101E+04 |   92.070
 BASOPT|        2     |       2     | 0.16000919E-02 | 0.10209786E+04 |   73.785
 BASOPT|        2     |       3     | 0.20653962E-02 | 0.38820250E+03 |   63.978
 BASOPT|        3     |       1     | 0.76120740E-03 | 0.42961230E+04 |   70.408
 BASOPT|        3     |       2     | 0.99798512E-03 | 0.25376911E+04 |   51.817
 BASOPT|        3     |       3     | 0.18596215E-02 | 0.76578376E+03 |   43.777
 BASOPT|        4     |       1     | 0.33265260E-03 | 0.22271781E+03 |   23.997
 BASOPT|        4     |       2     | 0.39423718E-03 | 0.21587730E+03 |   20.602
 BASOPT|        4     |       3     | 0.63219201E-03 | 0.48571103E+02 |   18.154
 BASOPT|        5     |       1     | 0.44559359E-03 | 0.12748789E+04 |   41.609
 BASOPT|        5     |       2     | 0.45290559E-03 | 0.95862716E+03 |   36.938
 BASOPT|        5     |       3     | 0.58834747E-03 | 0.28516779E+03 |   30.358
 BASOPT|        6     |       1     | 0.73819285E-03 | 0.20888353E+03 |   34.220
 BASOPT|        6     |       2     | 0.11720335E-02 | 0.13432576E+03 |   28.101
 BASOPT|        6     |       3     | 0.14748780E-02 | 0.71076445E+02 |   24.680
 BASOPT|        7     |       1     | 0.41986293E-03 | 0.32157172E+03 |   35.201
 BASOPT|        7     |       2     | 0.56377133E-03 | 0.20777886E+03 |   27.367
 BASOPT|        7     |       3     | 0.76573914E-03 | 0.98072044E+02 |   23.893
 BASOPT| -----------------------------------------------------------------------
 BASOPT| Total residuum value: -.11965096E+04

 BASOPT| Information at iteration number:    1900
 BASOPT| Training set | Combination | Rho difference | Condition num. | Time
 BASOPT| -----------------------------------------------------------------------
 BASOPT|        1     |       1     | 0.48542329E-03 | 0.23170000E+04 |  245.116
 BASOPT|        1     |       2     | 0.67212886E-03 | 0.17868658E+04 |  203.194
 BASOPT|        1     |       3     | 0.10693616E-02 | 0.41231902E+03 |  166.652
 BASOPT|        2     |       1     | 0.88517547E-03 | 0.16128947E+04 |   97.185
 BASOPT|        2     |       2     | 0.16023091E-02 | 0.10063186E+04 |   77.886
 BASOPT|        2     |       3     | 0.20641966E-02 | 0.38818565E+03 |   67.527
 BASOPT|        3     |       1     | 0.76039245E-03 | 0.42717000E+04 |   74.320
 BASOPT|        3     |       2     | 0.99795032E-03 | 0.25276442E+04 |   54.698
 BASOPT|        3     |       3     | 0.18623864E-02 | 0.76505875E+03 |   46.208
 BASOPT|        4     |       1     | 0.33324399E-03 | 0.22263892E+03 |   25.331
 BASOPT|        4     |       2     | 0.39572497E-03 | 0.21576741E+03 |   21.746
 BASOPT|        4     |       3     | 0.63328665E-03 | 0.48443843E+02 |   19.163
 BASOPT|        5     |       1     | 0.45578160E-03 | 0.12498204E+04 |   43.920
 BASOPT|        5     |       2     | 0.46322915E-03 | 0.94106848E+03 |   38.990
 BASOPT|        5     |       3     | 0.59701624E-03 | 0.28516660E+03 |   32.045
 BASOPT|        6     |       1     | 0.74040965E-03 | 0.20759395E+03 |   36.121
 BASOPT|        6     |       2     | 0.11740059E-02 | 0.13361405E+03 |   29.661
 BASOPT|        6     |       3     | 0.14780577E-02 | 0.70863195E+02 |   26.051
 BASOPT|        7     |       1     | 0.42118182E-03 | 0.32047472E+03 |   37.161
 BASOPT|        7     |       2     | 0.56463854E-03 | 0.20692625E+03 |   28.887
 BASOPT|        7     |       3     | 0.76670049E-03 | 0.97680753E+02 |   25.223
 BASOPT| -----------------------------------------------------------------------
 BASOPT| Total residuum value: -.11965106E+04

 BASOPT| Information at iteration number:    2000
 BASOPT| Training set | Combination | Rho difference | Condition num. | Time
 BASOPT| -----------------------------------------------------------------------
 BASOPT|        1     |       1     | 0.48765198E-03 | 0.22320382E+04 |  258.040
 BASOPT|        1     |       2     | 0.67375982E-03 | 0.17158804E+04 |  213.905
 BASOPT|        1     |       3     | 0.10710350E-02 | 0.40126634E+03 |  175.434
 BASOPT|        2     |       1     | 0.88477022E-03 | 0.15442441E+04 |  102.300
 BASOPT|        2     |       2     | 0.16001796E-02 | 0.97406859E+03 |   81.985
 BASOPT|        2     |       3     | 0.20666501E-02 | 0.37772617E+03 |   71.078
 BASOPT|        3     |       1     | 0.76324597E-03 | 0.42259626E+04 |   78.232
 BASOPT|        3     |       2     | 0.10002568E-02 | 0.25058764E+04 |   57.578
 BASOPT|        3     |       3     | 0.18651203E-02 | 0.76436878E+03 |   48.641
 BASOPT|        4     |       1     | 0.33147684E-03 | 0.22221554E+03 |   26.665
 BASOPT|        4     |       2     | 0.39352821E-03 | 0.21533251E+03 |   22.888
 BASOPT|        4     |       3     | 0.63202603E-03 | 0.48449287E+02 |   20.172
 BASOPT|        5     |       1     | 0.45321827E-03 | 0.12075509E+04 |   46.232
 BASOPT|        5     |       2     | 0.46019627E-03 | 0.91021772E+03 |   41.044
 BASOPT|        5     |       3     | 0.59407038E-03 | 0.27825227E+03 |   33.733
 BASOPT|        6     |       1     | 0.74003364E-03 | 0.20543654E+03 |   38.024
 BASOPT|        6     |       2     | 0.11721490E-02 | 0.13203191E+03 |   31.223
 BASOPT|        6     |       3     | 0.14753221E-02 | 0.70308947E+02 |   27.421
 BASOPT|        7     |       1     | 0.42442004E-03 | 0.31900625E+03 |   39.120
 BASOPT|        7     |       2     | 0.56663247E-03 | 0.20566906E+03 |   30.409
 BASOPT|        7     |       3     | 0.76720455E-03 | 0.97191045E+02 |   26.552
 BASOPT| -----------------------------------------------------------------------
 BASOPT| Total residuum value: -.11965128E+04

 BASOPT| Information at iteration number:    2100
 BASOPT| Training set | Combination | Rho difference | Condition num. | Time
 BASOPT| -----------------------------------------------------------------------
 BASOPT|        1     |       1     | 0.48889114E-03 | 0.21536522E+04 |  270.966
 BASOPT|        1     |       2     | 0.67485316E-03 | 0.16648982E+04 |  224.613
 BASOPT|        1     |       3     | 0.10716140E-02 | 0.39754994E+03 |  184.205
 BASOPT|        2     |       1     | 0.88567223E-03 | 0.14903194E+04 |  107.413
 BASOPT|        2     |       2     | 0.15999279E-02 | 0.94487033E+03 |   86.084
 BASOPT|        2     |       3     | 0.20692986E-02 | 0.37323279E+03 |   74.628
 BASOPT|        3     |       1     | 0.76459507E-03 | 0.41886413E+04 |   82.146
 BASOPT|        3     |       2     | 0.10018205E-02 | 0.24891120E+04 |   60.459
 BASOPT|        3     |       3     | 0.18653518E-02 | 0.76380391E+03 |   51.074
 BASOPT|        4     |       1     | 0.33376260E-03 | 0.22198795E+03 |   27.998
 BASOPT|        4     |       2     | 0.39602761E-03 | 0.21506872E+03 |   24.031
 BASOPT|        4     |       3     | 0.62831593E-03 | 0.48321542E+02 |   21.181
 BASOPT|        5     |       1     | 0.45438278E-03 | 0.11603328E+04 |   48.543
 BASOPT|        5     |       2     | 0.46114719E-03 | 0.87863854E+03 |   43.100
 BASOPT|        5     |       3     | 0.59187051E-03 | 0.27656188E+03 |   35.419
 BASOPT|        6     |       1     | 0.73957510E-03 | 0.20364362E+03 |   39.926
 BASOPT|        6     |       2     | 0.11708532E-02 | 0.13087892E+03 |   32.785
 BASOPT|        6     |       3     | 0.14746304E-02 | 0.69956157E+02 |   28.793
 BASOPT|        7     |       1     | 0.42525283E-03 | 0.31792918E+03 |   41.077
 BASOPT|        7     |       2     | 0.56693020E-03 | 0.20466596E+03 |   31.930
 BASOPT|        7     |       3     | 0.76818214E-03 | 0.96791308E+02 |   27.880
 BASOPT| -----------------------------------------------------------------------
 BASOPT| Total residuum value: -.11965139E+04

 BASOPT| Information at iteration number:    2200
 BASOPT| Training set | Combination | Rho difference | Condition num. | Time
 BASOPT| -----------------------------------------------------------------------
 BASOPT|        1     |       1     | 0.49068250E-03 | 0.20800457E+04 |  283.901
 BASOPT|        1     |       2     | 0.67664706E-03 | 0.16129945E+04 |  235.314
 BASOPT|        1     |       3     | 0.10759303E-02 | 0.39539738E+03 |  192.974
 BASOPT|        2     |       1     | 0.88715864E-03 | 0.14385907E+04 |  112.529
 BASOPT|        2     |       2     | 0.16014211E-02 | 0.91753751E+03 |   90.189
 BASOPT|        2     |       3     | 0.20671746E-02 | 0.36996509E+03 |   78.180
 BASOPT|        3     |       1     | 0.76641852E-03 | 0.41523915E+04 |   86.067
 BASOPT|        3     |       2     | 0.10040913E-02 | 0.24725031E+04 |   63.341
 BASOPT|        3     |       3     | 0.18675459E-02 | 0.76292715E+03 |   53.506
 BASOPT|        4     |       1     | 0.33621157E-03 | 0.22187860E+03 |   29.331
 BASOPT|        4     |       2     | 0.39918245E-03 | 0.21491142E+03 |   25.174
 BASOPT|        4     |       3     | 0.62866136E-03 | 0.48105598E+02 |   22.190
 BASOPT|        5     |       1     | 0.45909152E-03 | 0.11161845E+04 |   50.855
 BASOPT|        5     |       2     | 0.46557788E-03 | 0.84776451E+03 |   45.155
 BASOPT|        5     |       3     | 0.59514668E-03 | 0.27628476E+03 |   37.105
 BASOPT|        6     |       1     | 0.74040613E-03 | 0.20135658E+03 |   41.827
 BASOPT|        6     |       2     | 0.11712833E-02 | 0.12949821E+03 |   34.349
 BASOPT|        6     |       3     | 0.14737190E-02 | 0.69533553E+02 |   30.164
 BASOPT|        7     |       1     | 0.42706887E-03 | 0.31636780E+03 |   43.032
 BASOPT|        7     |       2     | 0.56836449E-03 | 0.20337657E+03 |   33.450
 BASOPT|        7     |       3     | 0.77189161E-03 | 0.96162616E+02 |   29.207
 BASOPT| -----------------------------------------------------------------------
 BASOPT| Total residuum value: -.11965154E+04

 BASOPT| Information at iteration number:    2300
 BASOPT| Training set | Combination | Rho difference | Condition num. | Time
 BASOPT| -----------------------------------------------------------------------
 BASOPT|        1     |       1     | 0.49270613E-03 | 0.20095917E+04 |  296.820
 BASOPT|        1     |       2     | 0.67835384E-03 | 0.15576791E+04 |  246.023
 BASOPT|        1     |       3     | 0.10774190E-02 | 0.38036996E+03 |  201.744
 BASOPT|        2     |       1     | 0.88782377E-03 | 0.13872404E+04 |  117.644
 BASOPT|        2     |       2     | 0.16004093E-02 | 0.89368063E+03 |   94.294
 BASOPT|        2     |       3     | 0.20670501E-02 | 0.35727273E+03 |   81.728
 BASOPT|        3     |       1     | 0.76732475E-03 | 0.41217774E+04 |   89.980
 BASOPT|        3     |       2     | 0.10052912E-02 | 0.24589956E+04 |   66.221
 BASOPT|        3     |       3     | 0.18754961E-02 | 0.76277686E+03 |   55.937
 BASOPT|        4     |       1     | 0.33606382E-03 | 0.22183599E+03 |   30.666
 BASOPT|        4     |       2     | 0.39931080E-03 | 0.21468885E+03 |   26.318
 BASOPT|        4     |       3     | 0.63212160E-03 | 0.47942840E+02 |   23.198
 BASOPT|        5     |       1     | 0.46807289E-03 | 0.10762465E+04 |   53.169
 BASOPT|        5     |       2     | 0.47466038E-03 | 0.82062957E+03 |   47.209
 BASOPT|        5     |       3     | 0.60142317E-03 | 0.26623037E+03 |   38.792
 BASOPT|        6     |       1     | 0.74102469E-03 | 0.19881250E+03 |   43.729
 BASOPT|        6     |       2     | 0.11707070E-02 | 0.12772892E+03 |   35.913
 BASOPT|        6     |       3     | 0.14752488E-02 | 0.68818958E+02 |   31.535
 BASOPT|        7     |       1     | 0.43043175E-03 | 0.31529816E+03 |   44.986
 BASOPT|        7     |       2     | 0.57082098E-03 | 0.20207597E+03 |   34.971
 BASOPT|        7     |       3     | 0.77234660E-03 | 0.95298738E+02 |   30.535
 BASOPT| -----------------------------------------------------------------------
 BASOPT| Total residuum value: -.11965172E+04

 BASOPT| Information at iteration number:    2400
 BASOPT| Training set | Combination | Rho difference | Condition num. | Time
 BASOPT| -----------------------------------------------------------------------
 BASOPT|        1     |       1     | 0.49396689E-03 | 0.19677991E+04 |  309.739
 BASOPT|        1     |       2     | 0.67972751E-03 | 0.15197230E+04 |  256.727
 BASOPT|        1     |       3     | 0.10828782E-02 | 0.37557324E+03 |  210.524
 BASOPT|        2     |       1     | 0.88771738E-03 | 0.13536089E+04 |  122.758
 BASOPT|        2     |       2     | 0.15990527E-02 | 0.87802094E+03 |   98.397
 BASOPT|        2     |       3     | 0.20676495E-02 | 0.35274571E+03 |   85.279
 BASOPT|        3     |       1     | 0.76871280E-03 | 0.41000766E+04 |   93.893
 BASOPT|        3     |       2     | 0.10066913E-02 | 0.24494214E+04 |   69.103
 BASOPT|        3     |       3     | 0.18759976E-02 | 0.76251636E+03 |   58.369
 BASOPT|        4     |       1     | 0.33853696E-03 | 0.22178817E+03 |   32.002
 BASOPT|        4     |       2     | 0.40213789E-03 | 0.21448170E+03 |   27.463
 BASOPT|        4     |       3     | 0.63773325E-03 | 0.47927296E+02 |   24.206
 BASOPT|        5     |       1     | 0.46986269E-03 | 0.10525436E+04 |   55.485
 BASOPT|        5     |       2     | 0.47638492E-03 | 0.80236307E+03 |   49.263
 BASOPT|        5     |       3     | 0.60658117E-03 | 0.26356827E+03 |   40.479
 BASOPT|        6     |       1     | 0.74035316E-03 | 0.19696316E+03 |   45.632
 BASOPT|        6     |       2     | 0.11694229E-02 | 0.12648220E+03 |   37.476
 BASOPT|        6     |       3     | 0.14716451E-02 | 0.68367353E+02 |   32.906
 BASOPT|        7     |       1     | 0.43126124E-03 | 0.31436120E+03 |   46.945
 BASOPT|        7     |       2     | 0.57133294E-03 | 0.20113027E+03 |   36.492
 BASOPT|        7     |       3     | 0.77346230E-03 | 0.94896136E+02 |   31.864
 BASOPT| -----------------------------------------------------------------------
 BASOPT| Total residuum value: -.11965184E+04

 BASOPT| Information at iteration number:    2500
 BASOPT| Training set | Combination | Rho difference | Condition num. | Time
 BASOPT| -----------------------------------------------------------------------
 BASOPT|        1     |       1     | 0.49460087E-03 | 0.19555414E+04 |  322.663
 BASOPT|        1     |       2     | 0.68063489E-03 | 0.14982882E+04 |  267.438
 BASOPT|        1     |       3     | 0.10849952E-02 | 0.37270941E+03 |  219.292
 BASOPT|        2     |       1     | 0.88753571E-03 | 0.13389271E+04 |  127.872
 BASOPT|        2     |       2     | 0.15990478E-02 | 0.87343323E+03 |  102.499
 BASOPT|        2     |       3     | 0.20674093E-02 | 0.35062305E+03 |   88.852
 BASOPT|        3     |       1     | 0.76895797E-03 | 0.40904900E+04 |   97.807
 BASOPT|        3     |       2     | 0.10070665E-02 | 0.24453421E+04 |   71.985
 BASOPT|        3     |       3     | 0.18796830E-02 | 0.76239761E+03 |   60.804
 BASOPT|        4     |       1     | 0.33813245E-03 | 0.22181976E+03 |   33.334
 BASOPT|        4     |       2     | 0.40206828E-03 | 0.21443439E+03 |   28.607
 BASOPT|        4     |       3     | 0.63905719E-03 | 0.47870984E+02 |   25.215
 BASOPT|        5     |       1     | 0.47000855E-03 | 0.10470766E+04 |   57.800
 BASOPT|        5     |       2     | 0.47630041E-03 | 0.79673656E+03 |   51.319
 BASOPT|        5     |       3     | 0.60605571E-03 | 0.26184430E+03 |   42.166
 BASOPT|        6     |       1     | 0.73967391E-03 | 0.19572823E+03 |   47.534
 BASOPT|        6     |       2     | 0.11685832E-02 | 0.12569677E+03 |   39.037
 BASOPT|        6     |       3     | 0.14712709E-02 | 0.68070669E+02 |   34.276
 BASOPT|        7     |       1     | 0.43169620E-03 | 0.31356520E+03 |   48.902
 BASOPT|        7     |       2     | 0.57158087E-03 | 0.20047581E+03 |   38.012
 BASOPT|        7     |       3     | 0.77288612E-03 | 0.94485987E+02 |   33.192
 BASOPT| -----------------------------------------------------------------------
 BASOPT| Total residuum value: -.11965191E+04

 BASOPT| Information at iteration number:    2600
 BASOPT| Training set | Combination | Rho difference | Condition num. | Time
 BASOPT| -----------------------------------------------------------------------
 BASOPT|        1     |       1     | 0.49540610E-03 | 0.19328054E+04 |  335.583
 BASOPT|        1     |       2     | 0.68123099E-03 | 0.14748801E+04 |  278.138
 BASOPT|        1     |       3     | 0.10829322E-02 | 0.37649577E+03 |  228.064
 BASOPT|        2     |       1     | 0.88823547E-03 | 0.13205542E+04 |  132.983
 BASOPT|        2     |       2     | 0.15998067E-02 | 0.86550339E+03 |  106.599
 BASOPT|        2     |       3     | 0.20695211E-02 | 0.35331608E+03 |   92.401
 BASOPT|        3     |       1     | 0.76831628E-03 | 0.40762773E+04 |  101.721
 BASOPT|        3     |       2     | 0.10069503E-02 | 0.24380612E+04 |   74.866
 BASOPT|        3     |       3     | 0.18795273E-02 | 0.76171125E+03 |   63.238
 BASOPT|        4     |       1     | 0.33895220E-03 | 0.22179783E+03 |   34.667
 BASOPT|        4     |       2     | 0.40364021E-03 | 0.21439434E+03 |   29.751
 BASOPT|        4     |       3     | 0.63378295E-03 | 0.47796914E+02 |   26.224
 BASOPT|        5     |       1     | 0.48062230E-03 | 0.10347621E+04 |   60.120
 BASOPT|        5     |       2     | 0.48713266E-03 | 0.78809156E+03 |   53.375
 BASOPT|        5     |       3     | 0.61217030E-03 | 0.26525302E+03 |   43.852
 BASOPT|        6     |       1     | 0.74184376E-03 | 0.19481527E+03 |   49.436
 BASOPT|        6     |       2     | 0.11703530E-02 | 0.12517806E+03 |   40.600
 BASOPT|        6     |       3     | 0.14752447E-02 | 0.67909797E+02 |   35.646
 BASOPT|        7     |       1     | 0.43393292E-03 | 0.31250589E+03 |   50.857
 BASOPT|        7     |       2     | 0.57345462E-03 | 0.19979617E+03 |   39.533
 BASOPT|        7     |       3     | 0.77412138E-03 | 0.94238746E+02 |   34.520
 BASOPT| -----------------------------------------------------------------------
 BASOPT| Total residuum value: -.11965195E+04

 BASOPT| Information at iteration number:    2700
 BASOPT| Training set | Combination | Rho difference | Condition num. | Time
 BASOPT| -----------------------------------------------------------------------
 BASOPT|        1     |       1     | 0.49534572E-03 | 0.18829014E+04 |  348.500
 BASOPT|        1     |       2     | 0.68077660E-03 | 0.14294539E+04 |  288.836
 BASOPT|        1     |       3     | 0.10894636E-02 | 0.38230031E+03 |  236.851
 BASOPT|        2     |       1     | 0.88767114E-03 | 0.12816237E+04 |  138.097
 BASOPT|        2     |       2     | 0.15994986E-02 | 0.84501974E+03 |  110.700
 BASOPT|        2     |       3     | 0.20631464E-02 | 0.35713675E+03 |   95.952
 BASOPT|        3     |       1     | 0.76836739E-03 | 0.40476472E+04 |  105.635
 BASOPT|        3     |       2     | 0.10072117E-02 | 0.24227104E+04 |   77.748
 BASOPT|        3     |       3     | 0.18798230E-02 | 0.76071354E+03 |   65.675
 BASOPT|        4     |       1     | 0.34037569E-03 | 0.22162104E+03 |   36.001
 BASOPT|        4     |       2     | 0.40587775E-03 | 0.21423993E+03 |   30.895
 BASOPT|        4     |       3     | 0.63826273E-03 | 0.47554408E+02 |   27.233
 BASOPT|        5     |       1     | 0.48454238E-03 | 0.10043915E+04 |   62.439
 BASOPT|        5     |       2     | 0.49097666E-03 | 0.76782992E+03 |   55.430
 BASOPT|        5     |       3     | 0.61901261E-03 | 0.27063390E+03 |   45.539
 BASOPT|        6     |       1     | 0.74257855E-03 | 0.19338778E+03 |   51.338
 BASOPT|        6     |       2     | 0.11704069E-02 | 0.12430556E+03 |   42.160
 BASOPT|        6     |       3     | 0.14706088E-02 | 0.67682023E+02 |   37.016
 BASOPT|        7     |       1     | 0.43508824E-03 | 0.31105724E+03 |   52.817
 BASOPT|        7     |       2     | 0.57399694E-03 | 0.19889299E+03 |   41.053
 BASOPT|        7     |       3     | 0.77472828E-03 | 0.93704186E+02 |   35.846
 BASOPT| -----------------------------------------------------------------------
 BASOPT| Total residuum value: -.11965206E+04

 BASOPT| Information at iteration number:    2800
 BASOPT| Training set | Combination | Rho difference | Condition num. | Time
 BASOPT| -----------------------------------------------------------------------
 BASOPT|        1     |       1     | 0.49618789E-03 | 0.18789237E+04 |  361.412
 BASOPT|        1     |       2     | 0.68176974E-03 | 0.14168365E+04 |  299.548
 BASOPT|        1     |       3     | 0.10907161E-02 | 0.38897555E+03 |  245.625
 BASOPT|        2     |       1     | 0.88849958E-03 | 0.12689265E+04 |  143.212
 BASOPT|        2     |       2     | 0.16002418E-02 | 0.83553315E+03 |  114.799
 BASOPT|        2     |       3     | 0.20664005E-02 | 0.36152213E+03 |   99.501
 BASOPT|        3     |       1     | 0.77064425E-03 | 0.40304538E+04 |  109.547
 BASOPT|        3     |       2     | 0.10094972E-02 | 0.24132702E+04 |   80.629
 BASOPT|        3     |       3     | 0.18828841E-02 | 0.75993102E+03 |   68.108
 BASOPT|        4     |       1     | 0.34343929E-03 | 0.22158895E+03 |   37.334
 BASOPT|        4     |       2     | 0.40936427E-03 | 0.21422803E+03 |   32.038
 BASOPT|        4     |       3     | 0.63009708E-03 | 0.47417423E+02 |   28.241
 BASOPT|        5     |       1     | 0.47955009E-03 | 0.99678988E+03 |   64.751
 BASOPT|        5     |       2     | 0.48563074E-03 | 0.75793934E+03 |   57.483
 BASOPT|        5     |       3     | 0.60779326E-03 | 0.27689979E+03 |   47.232
 BASOPT|        6     |       1     | 0.74272339E-03 | 0.19256159E+03 |   53.239
 BASOPT|        6     |       2     | 0.11704259E-02 | 0.12383256E+03 |   43.720
 BASOPT|        6     |       3     | 0.14736518E-02 | 0.67599268E+02 |   38.387
 BASOPT|        7     |       1     | 0.43553339E-03 | 0.31014334E+03 |   54.772
 BASOPT|        7     |       2     | 0.57420170E-03 | 0.19837738E+03 |   42.573
 BASOPT|        7     |       3     | 0.77605118E-03 | 0.93424120E+02 |   37.177
 BASOPT| -----------------------------------------------------------------------
 BASOPT| Total residuum value: -.11965213E+04

 BASOPT| Information at iteration number:    2900
 BASOPT| Training set | Combination | Rho difference | Condition num. | Time
 BASOPT| -----------------------------------------------------------------------
 BASOPT|        1     |       1     | 0.49672974E-03 | 0.18589625E+04 |  374.334
 BASOPT|        1     |       2     | 0.68206507E-03 | 0.13987681E+04 |  310.258
 BASOPT|        1     |       3     | 0.10912532E-02 | 0.38685882E+03 |  254.404
 BASOPT|        2     |       1     | 0.88889737E-03 | 0.12521491E+04 |  148.323
 BASOPT|        2     |       2     | 0.16002520E-02 | 0.82547454E+03 |  118.899
 BASOPT|        2     |       3     | 0.20679599E-02 | 0.35901374E+03 |  103.051
 BASOPT|        3     |       1     | 0.77107748E-03 | 0.40170236E+04 |  113.460
 BASOPT|        3     |       2     | 0.10101176E-02 | 0.24055133E+04 |   83.510
 BASOPT|        3     |       3     | 0.18851886E-02 | 0.75933657E+03 |   70.541
 BASOPT|        4     |       1     | 0.34379277E-03 | 0.22150146E+03 |   38.671
 BASOPT|        4     |       2     | 0.40986652E-03 | 0.21420576E+03 |   33.181
 BASOPT|        4     |       3     | 0.62846739E-03 | 0.47291587E+02 |   29.252
 BASOPT|        5     |       1     | 0.48046260E-03 | 0.98212177E+03 |   67.062
 BASOPT|        5     |       2     | 0.48652838E-03 | 0.74802077E+03 |   59.539
 BASOPT|        5     |       3     | 0.60640259E-03 | 0.27615880E+03 |   48.921
 BASOPT|        6     |       1     | 0.74287189E-03 | 0.19187517E+03 |   55.141
 BASOPT|        6     |       2     | 0.11701625E-02 | 0.12339155E+03 |   45.282
 BASOPT|        6     |       3     | 0.14749524E-02 | 0.67408762E+02 |   39.759
 BASOPT|        7     |       1     | 0.43645173E-03 | 0.30930629E+03 |   56.730
 BASOPT|        7     |       2     | 0.57462322E-03 | 0.19779456E+03 |   44.094
 BASOPT|        7     |       3     | 0.77604337E-03 | 0.93145408E+02 |   38.508
 BASOPT| -----------------------------------------------------------------------
 BASOPT| Total residuum value: -.11965218E+04

 BASOPT| Information at iteration number:    3000
 BASOPT| Training set | Combination | Rho difference | Condition num. | Time
 BASOPT| -----------------------------------------------------------------------
 BASOPT|        1     |       1     | 0.49665061E-03 | 0.18392402E+04 |  387.261
 BASOPT|        1     |       2     | 0.68167876E-03 | 0.13823974E+04 |  320.967
 BASOPT|        1     |       3     | 0.10949180E-02 | 0.38368867E+03 |  263.187
 BASOPT|        2     |       1     | 0.88798337E-03 | 0.12373774E+04 |  153.435
 BASOPT|        2     |       2     | 0.15997014E-02 | 0.81698238E+03 |  123.001
 BASOPT|        2     |       3     | 0.20656324E-02 | 0.35589779E+03 |  106.602
 BASOPT|        3     |       1     | 0.76969777E-03 | 0.40055197E+04 |  117.373
 BASOPT|        3     |       2     | 0.10089047E-02 | 0.23988227E+04 |   86.391
 BASOPT|        3     |       3     | 0.18848526E-02 | 0.75877341E+03 |   72.972
 BASOPT|        4     |       1     | 0.34353395E-03 | 0.22136834E+03 |   40.004
 BASOPT|        4     |       2     | 0.40983906E-03 | 0.21411558E+03 |   34.322
 BASOPT|        4     |       3     | 0.63430588E-03 | 0.47168277E+02 |   30.261
 BASOPT|        5     |       1     | 0.48174964E-03 | 0.96915547E+03 |   69.375
 BASOPT|        5     |       2     | 0.48785111E-03 | 0.73940722E+03 |   61.593
 BASOPT|        5     |       3     | 0.61097828E-03 | 0.27458224E+03 |   50.609
 BASOPT|        6     |       1     | 0.74102330E-03 | 0.19118718E+03 |   57.042
 BASOPT|        6     |       2     | 0.11683096E-02 | 0.12295714E+03 |   46.847
 BASOPT|        6     |       3     | 0.14709773E-02 | 0.67224614E+02 |   41.130
 BASOPT|        7     |       1     | 0.43546628E-03 | 0.30840721E+03 |   58.679
 BASOPT|        7     |       2     | 0.57319474E-03 | 0.19716165E+03 |   45.615
 BASOPT|        7     |       3     | 0.77434402E-03 | 0.92855802E+02 |   39.834
 BASOPT| -----------------------------------------------------------------------
 BASOPT| Total residuum value: -.11965217E+04

 BASOPT| Information at iteration number:    3100
 BASOPT| Training set | Combination | Rho difference | Condition num. | Time
 BASOPT| -----------------------------------------------------------------------
 BASOPT|        1     |       1     | 0.49761567E-03 | 0.18306429E+04 |  400.182
 BASOPT|        1     |       2     | 0.68262639E-03 | 0.13715923E+04 |  331.672
 BASOPT|        1     |       3     | 0.10932222E-02 | 0.38242554E+03 |  271.979
 BASOPT|        2     |       1     | 0.88954134E-03 | 0.12281007E+04 |  158.548
 BASOPT|        2     |       2     | 0.16003345E-02 | 0.81151084E+03 |  127.102
 BASOPT|        2     |       3     | 0.20716547E-02 | 0.35418641E+03 |  110.153
 BASOPT|        3     |       1     | 0.77097894E-03 | 0.39975179E+04 |  121.286
 BASOPT|        3     |       2     | 0.10103085E-02 | 0.23943714E+04 |   89.271
 BASOPT|        3     |       3     | 0.18860659E-02 | 0.75841068E+03 |   75.404
 BASOPT|        4     |       1     | 0.34582469E-03 | 0.22128814E+03 |   41.339
 BASOPT|        4     |       2     | 0.41246984E-03 | 0.21402823E+03 |   35.466
 BASOPT|        4     |       3     | 0.62993426E-03 | 0.47150854E+02 |   31.270
 BASOPT|        5     |       1     | 0.48584253E-03 | 0.96221502E+03 |   71.688
 BASOPT|        5     |       2     | 0.49200409E-03 | 0.73421119E+03 |   63.649
 BASOPT|        5     |       3     | 0.61073345E-03 | 0.27444612E+03 |   52.298
 BASOPT|        6     |       1     | 0.74338126E-03 | 0.19084967E+03 |   58.943
 BASOPT|        6     |       2     | 0.11701367E-02 | 0.12275739E+03 |   48.411
 BASOPT|        6     |       3     | 0.14762927E-02 | 0.67152749E+02 |   42.500
 BASOPT|        7     |       1     | 0.43747741E-03 | 0.30818761E+03 |   60.635
 BASOPT|        7     |       2     | 0.57508827E-03 | 0.19694756E+03 |   47.137
 BASOPT|        7     |       3     | 0.77653917E-03 | 0.92831306E+02 |   41.160
 BASOPT| -----------------------------------------------------------------------
 BASOPT| Total residuum value: -.11965227E+04

 BASOPT| Information at iteration number:    3200
 BASOPT| Training set | Combination | Rho difference | Condition num. | Time
 BASOPT| -----------------------------------------------------------------------
 BASOPT|        1     |       1     | 0.49805134E-03 | 0.18244305E+04 |  413.110
 BASOPT|        1     |       2     | 0.68317866E-03 | 0.13598413E+04 |  342.380
 BASOPT|        1     |       3     | 0.10945480E-02 | 0.38128685E+03 |  280.768
 BASOPT|        2     |       1     | 0.88922035E-03 | 0.12203653E+04 |  163.659
 BASOPT|        2     |       2     | 0.15995758E-02 | 0.80710340E+03 |  131.202
 BASOPT|        2     |       3     | 0.20737038E-02 | 0.35304861E+03 |  113.725
 BASOPT|        3     |       1     | 0.77211466E-03 | 0.39913311E+04 |  125.199
 BASOPT|        3     |       2     | 0.10112164E-02 | 0.23913919E+04 |   92.152
 BASOPT|        3     |       3     | 0.18875550E-02 | 0.75832668E+03 |   77.836
 BASOPT|        4     |       1     | 0.34617168E-03 | 0.22119043E+03 |   42.671
 BASOPT|        4     |       2     | 0.41296421E-03 | 0.21384288E+03 |   36.610
 BASOPT|        4     |       3     | 0.62921836E-03 | 0.47176456E+02 |   32.279
 BASOPT|        5     |       1     | 0.48410660E-03 | 0.95811810E+03 |   74.000
 BASOPT|        5     |       2     | 0.49019323E-03 | 0.72955179E+03 |   65.702
 BASOPT|        5     |       3     | 0.60841797E-03 | 0.27415728E+03 |   53.987
 BASOPT|        6     |       1     | 0.74360989E-03 | 0.19033752E+03 |   60.845
 BASOPT|        6     |       2     | 0.11698749E-02 | 0.12240547E+03 |   49.972
 BASOPT|        6     |       3     | 0.14766757E-02 | 0.67037460E+02 |   43.871
 BASOPT|        7     |       1     | 0.43824106E-03 | 0.30797867E+03 |   62.592
 BASOPT|        7     |       2     | 0.57570910E-03 | 0.19674078E+03 |   48.660
 BASOPT|        7     |       3     | 0.77676989E-03 | 0.92759104E+02 |   42.486
 BASOPT| -----------------------------------------------------------------------
 BASOPT| Total residuum value: -.11965233E+04

 BASOPT| Information at iteration number:    3300
 BASOPT| Training set | Combination | Rho difference | Condition num. | Time
 BASOPT| -----------------------------------------------------------------------
 BASOPT|        1     |       1     | 0.49802300E-03 | 0.18168318E+04 |  426.041
 BASOPT|        1     |       2     | 0.68306666E-03 | 0.13491912E+04 |  353.082
 BASOPT|        1     |       3     | 0.10971492E-02 | 0.37717632E+03 |  289.540
 BASOPT|        2     |       1     | 0.88864160E-03 | 0.12132677E+04 |  168.770
 BASOPT|        2     |       2     | 0.15988602E-02 | 0.80326346E+03 |  135.303
 BASOPT|        2     |       3     | 0.20719297E-02 | 0.34974138E+03 |  117.286
 BASOPT|        3     |       1     | 0.77217173E-03 | 0.39871832E+04 |  129.111
 BASOPT|        3     |       2     | 0.10111745E-02 | 0.23892378E+04 |   95.032
 BASOPT|        3     |       3     | 0.18888104E-02 | 0.75833094E+03 |   80.271
 BASOPT|        4     |       1     | 0.34629707E-03 | 0.22107970E+03 |   44.002
 BASOPT|        4     |       2     | 0.41326025E-03 | 0.21373820E+03 |   37.754
 BASOPT|        4     |       3     | 0.63467883E-03 | 0.47200129E+02 |   33.288
 BASOPT|        5     |       1     | 0.48488340E-03 | 0.95321497E+03 |   76.313
 BASOPT|        5     |       2     | 0.49100548E-03 | 0.72600498E+03 |   67.754
 BASOPT|        5     |       3     | 0.61212383E-03 | 0.27112886E+03 |   55.676
 BASOPT|        6     |       1     | 0.74359722E-03 | 0.18992185E+03 |   62.747
 BASOPT|        6     |       2     | 0.11696656E-02 | 0.12207840E+03 |   51.534
 BASOPT|        6     |       3     | 0.14748822E-02 | 0.66904874E+02 |   45.242
 BASOPT|        7     |       1     | 0.43850741E-03 | 0.30777894E+03 |   64.553
 BASOPT|        7     |       2     | 0.57590075E-03 | 0.19659923E+03 |   50.184
 BASOPT|        7     |       3     | 0.77709462E-03 | 0.92657685E+02 |   43.811
 BASOPT| -----------------------------------------------------------------------
 BASOPT| Total residuum value: -.11965236E+04

 BASOPT| Information at iteration number:    3400
 BASOPT| Training set | Combination | Rho difference | Condition num. | Time
 BASOPT| -----------------------------------------------------------------------
 BASOPT|        1     |       1     | 0.49856660E-03 | 0.17989827E+04 |  438.973
 BASOPT|        1     |       2     | 0.68337759E-03 | 0.13344296E+04 |  363.792
 BASOPT|        1     |       3     | 0.10963840E-02 | 0.37228286E+03 |  298.346
 BASOPT|        2     |       1     | 0.88869057E-03 | 0.11997635E+04 |  173.878
 BASOPT|        2     |       2     | 0.15988457E-02 | 0.79563575E+03 |  139.405
 BASOPT|        2     |       3     | 0.20743872E-02 | 0.34548531E+03 |  120.847
 BASOPT|        3     |       1     | 0.77180131E-03 | 0.39818212E+04 |  133.022
 BASOPT|        3     |       2     | 0.10108577E-02 | 0.23871049E+04 |   97.913
 BASOPT|        3     |       3     | 0.18890200E-02 | 0.75844555E+03 |   82.703
 BASOPT|        4     |       1     | 0.34774945E-03 | 0.22105351E+03 |   45.336
 BASOPT|        4     |       2     | 0.41513525E-03 | 0.21359131E+03 |   38.898
 BASOPT|        4     |       3     | 0.63507356E-03 | 0.47265087E+02 |   34.297
 BASOPT|        5     |       1     | 0.48922968E-03 | 0.94215398E+03 |   78.627
 BASOPT|        5     |       2     | 0.49554809E-03 | 0.71763288E+03 |   69.806
 BASOPT|        5     |       3     | 0.61569883E-03 | 0.26754105E+03 |   57.365
 BASOPT|        6     |       1     | 0.74339789E-03 | 0.18917251E+03 |   64.649
[...]
 BASOPT|        3     |       2     | 0.10183046E-02 | 0.22989370E+04 | 1435.405
 BASOPT|        3     |       3     | 0.19637798E-02 | 0.74883321E+03 | 1212.063
 BASOPT|        4     |       1     | 0.40528570E-03 | 0.21209543E+03 |  660.003
 BASOPT|        4     |       2     | 0.50113696E-03 | 0.19836734E+03 |  568.974
 BASOPT|        4     |       3     | 0.68038673E-03 | 0.43981573E+02 |  502.479
 BASOPT|        5     |       1     | 0.56301993E-03 | 0.44133732E+03 | 1151.805
 BASOPT|        5     |       2     | 0.57320097E-03 | 0.35463386E+03 | 1023.936
 BASOPT|        5     |       3     | 0.68143360E-03 | 0.23298408E+03 |  840.857
 BASOPT|        6     |       1     | 0.76504097E-03 | 0.14382772E+03 |  947.880
 BASOPT|        6     |       2     | 0.11357372E-02 | 0.97376959E+02 |  777.082
 BASOPT|        6     |       3     | 0.14343332E-02 | 0.59875438E+02 |  682.717
 BASOPT|        7     |       1     | 0.44623651E-03 | 0.25027074E+03 |  975.698
 BASOPT|        7     |       2     | 0.56833561E-03 | 0.15413346E+03 |  758.388
 BASOPT|        7     |       3     | 0.78616582E-03 | 0.81061526E+02 |  661.294
 BASOPT| -----------------------------------------------------------------------
 BASOPT| Total residuum value: -.11965759E+04

 BASOPT| Information at iteration number:   49900
 BASOPT| Training set | Combination | Rho difference | Condition num. | Time
 BASOPT| -----------------------------------------------------------------------
 BASOPT|        1     |       1     | 0.49951515E-03 | 0.10045638E+04 | 6443.419
 BASOPT|        1     |       2     | 0.68440804E-03 | 0.69116489E+03 | 5347.814
 BASOPT|        1     |       3     | 0.11616505E-02 | 0.32715325E+03 | 4379.419
 BASOPT|        2     |       1     | 0.92899320E-03 | 0.66557376E+03 | 2552.085
 BASOPT|        2     |       2     | 0.15894423E-02 | 0.49255482E+03 | 2048.257
 BASOPT|        2     |       3     | 0.20551263E-02 | 0.29863319E+03 | 1772.646
 BASOPT|        3     |       1     | 0.74842075E-03 | 0.44815465E+04 | 1954.227
 BASOPT|        3     |       2     | 0.10174957E-02 | 0.23074762E+04 | 1438.287
 BASOPT|        3     |       3     | 0.19612647E-02 | 0.74836738E+03 | 1214.495
 BASOPT|        4     |       1     | 0.40383340E-03 | 0.21218157E+03 |  661.325
 BASOPT|        4     |       2     | 0.50035087E-03 | 0.19831698E+03 |  570.114
 BASOPT|        4     |       3     | 0.67992271E-03 | 0.43973736E+02 |  503.487
 BASOPT|        5     |       1     | 0.57532457E-03 | 0.43844961E+03 | 1154.117
 BASOPT|        5     |       2     | 0.58610331E-03 | 0.35284621E+03 | 1025.990
 BASOPT|        5     |       3     | 0.69393432E-03 | 0.23408639E+03 |  842.543
 BASOPT|        6     |       1     | 0.76529691E-03 | 0.14309478E+03 |  949.784
 BASOPT|        6     |       2     | 0.11361383E-02 | 0.97001495E+02 |  778.642
 BASOPT|        6     |       3     | 0.14348112E-02 | 0.59740811E+02 |  684.092
 BASOPT|        7     |       1     | 0.44499245E-03 | 0.24920851E+03 |  977.655
 BASOPT|        7     |       2     | 0.56736759E-03 | 0.15349324E+03 |  759.913
 BASOPT|        7     |       3     | 0.78622423E-03 | 0.80865115E+02 |  662.620
 BASOPT| -----------------------------------------------------------------------
 BASOPT| Total residuum value: -.11965761E+04

 BASOPT| Information at iteration number:   50000
 BASOPT| Training set | Combination | Rho difference | Condition num. | Time
 BASOPT| -----------------------------------------------------------------------
 BASOPT|        1     |       1     | 0.49940925E-03 | 0.10066261E+04 | 6456.383
 BASOPT|        1     |       2     | 0.68449406E-03 | 0.69592205E+03 | 5358.528
 BASOPT|        1     |       3     | 0.11613851E-02 | 0.32698483E+03 | 4388.201
 BASOPT|        2     |       1     | 0.92862122E-03 | 0.66951271E+03 | 2557.195
 BASOPT|        2     |       2     | 0.15886708E-02 | 0.49573368E+03 | 2052.367
 BASOPT|        2     |       3     | 0.20570241E-02 | 0.29792413E+03 | 1776.197
 BASOPT|        3     |       1     | 0.74886752E-03 | 0.45004466E+04 | 1958.142
 BASOPT|        3     |       2     | 0.10179388E-02 | 0.23142846E+04 | 1441.167
 BASOPT|        3     |       3     | 0.19603120E-02 | 0.74776447E+03 | 1216.926
 BASOPT|        4     |       1     | 0.40289206E-03 | 0.21241767E+03 |  662.652
 BASOPT|        4     |       2     | 0.49980296E-03 | 0.19829885E+03 |  571.256
 BASOPT|        4     |       3     | 0.67929734E-03 | 0.44022101E+02 |  504.495
 BASOPT|        5     |       1     | 0.57383092E-03 | 0.44195805E+03 | 1156.429
 BASOPT|        5     |       2     | 0.58449082E-03 | 0.35456604E+03 | 1028.044
 BASOPT|        5     |       3     | 0.69196604E-03 | 0.23494210E+03 |  844.229
 BASOPT|        6     |       1     | 0.76422118E-03 | 0.14312932E+03 |  951.689
 BASOPT|        6     |       2     | 0.11351306E-02 | 0.97139631E+02 |  780.202
 BASOPT|        6     |       3     | 0.14365561E-02 | 0.59735115E+02 |  685.466
 BASOPT|        7     |       1     | 0.44355396E-03 | 0.24901278E+03 |  979.621
 BASOPT|        7     |       2     | 0.56626239E-03 | 0.15335815E+03 |  761.437
 BASOPT|        7     |       3     | 0.78682919E-03 | 0.80959250E+02 |  663.947
 BASOPT| -----------------------------------------------------------------------
 BASOPT| Total residuum value: -.11965762E+04


 -------------------------------------------------------------------------------
 -                                                                             -
 -                                DBCSR STATISTICS                             -
 -                                                                             -
 -------------------------------------------------------------------------------
 COUNTER                                    TOTAL       BLAS       SMM       ACC
 flops    68 x    68 x     6               166464       0.0%    100.0%      0.0%
 flops    68 x   136 x     6               332928       0.0%    100.0%      0.0%
 flops   136 x   136 x     6               665856       0.0%    100.0%      0.0%
 flops   116 x   136 x    10               946560       0.0%    100.0%      0.0%
 flops   136 x   116 x    10               946560       0.0%    100.0%      0.0%
 flops   136 x   136 x    10              1109760       0.0%    100.0%      0.0%
 flops   116 x   116 x     9              1453248       0.0%    100.0%      0.0%
 flops   116 x   136 x     9              1703808       0.0%    100.0%      0.0%
 flops   136 x   136 x     9              1997568       0.0%    100.0%      0.0%
 flops   116 x   116 x    14              2260608       0.0%    100.0%      0.0%
 flops   116 x   116 x    10              2422080       0.0%    100.0%      0.0%
 flops   116 x   136 x    14              2650368       0.0%    100.0%      0.0%
 flops   136 x   116 x    14              2650368       0.0%    100.0%      0.0%
 flops   136 x   136 x    11              3662208       0.0%    100.0%      0.0%
 flops   136 x   136 x    14              9321984       0.0%    100.0%      0.0%
 flops inhomo. stacks                           0       0.0%      0.0%      0.0%
 flops total                        32.290368E+06       0.0%    100.0%      0.0%
 flops max/rank                      1.122880E+06       0.0%    100.0%      0.0%
 matmuls inhomo. stacks                         0       0.0%      0.0%      0.0%
 matmuls total                                 90       0.0%    100.0%      0.0%
 number of processed stacks                    75       0.0%    100.0%      0.0%
 average stack size                                     0.0       1.2       0.0
 marketing flops                    46.656384E+06
 -------------------------------------------------------------------------------
 # multiplications                              1
 max memory usage/rank             293.711872E+06
 # max total images/rank                        3
 # max 3D layers                                1
 # MPI messages exchanged                      66
 MPI messages size (bytes):
  total size                       819.840000E+03
  min size                           0.000000E+00
  max size                          43.456000E+03
  average size                      12.421818E+03
 MPI breakdown and total messages size (bytes):
             size <=      128                  39                        0
       128 < size <=     8192                   0                        0
      8192 < size <=    32768                  15                   298368
     32768 < size <=   131072                  12                   521472
    131072 < size <=  4194304                   0                        0
   4194304 < size <= 16777216                   0                        0
  16777216 < size                               0                        0
 -------------------------------------------------------------------------------

 *** WARNING in dbcsr_mm.F:294 :: Using a non-square number of MPI ranks ***
 *** might lead to poor performance. Used ranks: 3 Suggested: 4 4        ***

 -------------------------------------------------------------------------------
 -                                                                             -
 -                      DBCSR MESSAGE PASSING PERFORMANCE                      -
 -                                                                             -
 -------------------------------------------------------------------------------
 ROUTINE             CALLS      AVE VOLUME [Bytes]
 MP_Bcast               16                     12.
 MP_Allreduce           56                     22.
 MP_Alltoall       3000081                  74194.
 MP_ISend               12                   6014.
 MP_IRecv                8                     52.
 -------------------------------------------------------------------------------

 -------------------------------------------------------------------------------
 -                                                                             -
 -                                GRID STATISTICS                              -
 -                                                                             -
 -------------------------------------------------------------------------------
 LP    KERNEL             BACKEND                              COUNT     PERCENT
 4     collocate ortho    REF                                   9273      18.51%
 4     integrate ortho    REF                                   9273      18.51%
 2     collocate ortho    REF                                   7605      15.18%
 2     integrate ortho    REF                                   7605      15.18%
 6     collocate ortho    REF                                   3408       6.80%
 6     integrate ortho    REF                                   3408       6.80%
 5     collocate ortho    REF                                   2568       5.12%
 5     integrate ortho    REF                                   2568       5.12%
 7     collocate ortho    REF                                    993       1.98%
 7     integrate ortho    REF                                    993       1.98%
 8     collocate ortho    REF                                    402       0.80%
 8     integrate ortho    REF                                    402       0.80%
 3     collocate ortho    REF                                    372       0.74%
 3     integrate ortho    REF                                    372       0.74%
 1     collocate ortho    REF                                    216       0.43%
 1     integrate ortho    REF                                    216       0.43%
 0     collocate ortho    REF                                    192       0.38%
 0     integrate ortho    REF                                    192       0.38%
 0     collocate general  REF                                     51       0.10%
 -------------------------------------------------------------------------------

 MEMORY| Estimated peak process memory [MiB]                                 457

 -------------------------------------------------------------------------------
 -                                                                             -
 -                         MESSAGE PASSING PERFORMANCE                         -
 -                                                                             -
 -------------------------------------------------------------------------------

 ROUTINE             CALLS      AVE VOLUME [Bytes]
 MP_Bcast            50064                   2269.
 MP_Allreduce       350372                    174.
 MP_Sync             50001
 MP_Alltoall            18                4481685.
 MP_ISendRecv           18                 310267.
 MP_Wait                18
 MP_comm_split           1
 -------------------------------------------------------------------------------


 -------------------------------------------------------------------------------
 -                                                                             -
 -                           R E F E R E N C E S                               -
 -                                                                             -
 -------------------------------------------------------------------------------
 
 CP2K version 9.0 (Development Version), the CP2K developers group (2020).
 CP2K is freely available from https://www.cp2k.org/ .

 Kuehne,Thomas D.; Iannuzzi,Marcella; Del Ben,Mauro;
 Rybkin,Vladimir V.; Seewald,Patrick; Stein,Frederick; Laino,Teodoro;
 Khaliullin,Rustam Z.; Schuett,Ole; Schiffmann,Florian; Golze,Dorothea;
 Wilhelm,Jan; Chulkov,Sergey; Bani-Hashemian,Mohammad Hossein;
 Weber,Valery; Borstnik,Urban; Taillefumier,Mathieu;
 Jakobovits,Alice Shoshana; Lazzaro,Alfio; Pabst,Hans; Mueller,Tiziano;
 Schade,Robert; Guidon,Manuel; Andermatt,Samuel; Holmberg,Nico;
 Schenter,Gregory K.; Hehn,Anna; Bussy,Augustin; Belleflamme,Fabian;
 Tabacchi,Gloria; Gloess,Andreas; Lass,Michael; Bethune,Iain;
 Mundy,Christopher J.; Plessl,Christian; Watkins,Matt;
 VandeVondele,Joost; Krack,Matthias; Hutter,Juerg. 
 The Journal of Chemical Physics, 152 (19), (2020). 
 CP2K: An electronic structure and molecular dynamics software package -
 Quickstep: Efficient and accurate electronic structure calculations.
 https://doi.org/10.1063/5.0007045

 Schuett, Ole; Messmer, Peter; Hutter, Juerg; VandeVondele, Joost. 
 Electronic Structure Calculations on Graphics Processing Units, John
 Wiley & Sons, Ltd, 173-190 (2016). 
 GPU-Accelerated Sparse Matrix-Matrix Multiplication for
 Linear Scaling Density Functional Theory.
 https://doi.org/10.1002/9781118670712.ch8

 Borstnik, U; VandeVondele, J; Weber, V; Hutter, J. 
 PARALLEL COMPUTING, 40 (5-6), 47-58 (2014). 
 Sparse matrix multiplication: The distributed block-compressed sparse
 row library.
 https://doi.org/10.1016/j.parco.2014.03.012

 Hutter, J; Iannuzzi, M; Schiffmann, F; VandeVondele, J. 
 WIREs Comput Mol Sci., 4 (1), 15-25 (2014). 
 CP2K: atomistic simulations of condensed matter systems.
 https://doi.org/10.1002/wcms.1159

 Marek, A; Blum, V; Johanni, R; Havu, V; Lang, B; Auckenthaler, T;
 Heinecke, A; Bungartz, H; Lederer, H. 
 Journal of Physics: Condensed Matter, 26 (21), (2014). 
 The ELPA library: scalable parallel eigenvalue solutions for
 electronic structure
 theory and computational science.
 https://doi.org/10.1088/0953-8984/26/21/213201

 Guidon, M; Hutter, J; VandeVondele, J. 
 JOURNAL OF CHEMICAL THEORY AND COMPUTATION, 6 (8), 2348-2364 (2010). 
 Auxiliary Density Matrix Methods for Hartree-Fock Exchange Calculations.
 https://doi.org/10.1021/ct1002225

 VandeVondele, J; Hutter, J. 
 JOURNAL OF CHEMICAL PHYSICS, 127 (11), 114105 (2007). 
 Gaussian basis sets for accurate calculations on molecular systems in
 gas and condensed phases.
 https://doi.org/10.1063/1.2770708

 Krack, M. 
 THEORETICAL CHEMISTRY ACCOUNTS, 114 (1-3), 145-152 (2005). 
 Pseudopotentials for H to Kr optimized for gradient-corrected
 exchange-correlation functionals.
 https://doi.org/10.1007/s00214-005-0655-y

 VandeVondele, J; Krack, M; Mohamed, F; Parrinello, M; Chassaing, T;
 Hutter, J. COMPUTER PHYSICS COMMUNICATIONS, 167 (2), 103-128 (2005). 
 QUICKSTEP: Fast and accurate density functional calculations using a
 mixed Gaussian and plane waves approach.
 https://doi.org/10.1016/j.cpc.2004.12.014

 Frigo, M; Johnson, SG. 
 PROCEEDINGS OF THE IEEE, 93 (2), 216-231 (2005). 
 The design and implementation of FFTW3.
 https://doi.org/10.1109/JPROC.2004.840301

 Hartwigsen, C; Goedecker, S; Hutter, J. 
 PHYSICAL REVIEW B, 58 (7), 3641-3662 (1998). 
 Relativistic separable dual-space Gaussian pseudopotentials from H to Rn.
 https://doi.org/10.1103/PhysRevB.58.3641

 Lippert, G; Hutter, J; Parrinello, M. 
 MOLECULAR PHYSICS, 92 (3), 477-487 (1997). 
 A hybrid Gaussian and plane wave density functional scheme.
 https://doi.org/10.1080/002689797170220

 Perdew, JP; Burke, K; Ernzerhof, M. 
 PHYSICAL REVIEW LETTERS, 77 (18), 3865-3868 (1996). 
 Generalized gradient approximation made simple.
 https://doi.org/10.1103/PhysRevLett.77.3865

 Goedecker, S; Teter, M; Hutter, J. 
 PHYSICAL REVIEW B, 54 (3), 1703-1710 (1996). 
 Separable dual-space Gaussian pseudopotentials.
 https://doi.org/10.1103/PhysRevB.54.1703


 -------------------------------------------------------------------------------
 -                                                                             -
 -                                T I M I N G                                  -
 -                                                                             -
 -------------------------------------------------------------------------------
 SUBROUTINE                       CALLS  ASD         SELF TIME        TOTAL TIME
                                MAXIMUM       AVERAGE  MAXIMUM  AVERAGE  MAXIMUM
 CP2K                                 1  1.0    0.002    0.004 6486.909 6487.794
 run_optimize_basis                   1  2.0    0.005    0.007 6486.897 6487.781
 driver_para_opt_basis                1  3.0    0.000    0.000 6486.881 6487.765
 driver_optimization_para_low         1  4.0    0.766    1.739 6486.879 6487.763
 compute_residuum_vectors         50001  5.0    3.412    4.454 6462.813 6463.982
 mp_sum_dv                       250006  5.8 4458.248 5957.104 4458.248 5957.104
 build_overlap_matrix_low        100006  6.0  538.240 3459.533  540.663 3462.871
 admm_fit_mo_coeffs               50001  6.0    0.134    0.210  569.749 2984.114
 fit_mo_coeffs                    50001  7.0    0.468    0.587  437.155 2784.404
 cp_gemm                         600012  7.2    0.874    1.004  957.228 2461.594
 cp_gemm_fm_gemm                 600012  8.2    0.515    0.595  956.354 2460.792
 cp_fm_gemm                      600012  9.2  955.839 2460.296  955.839 2460.296
 copy_dbcsr_to_fm                250006  6.8    2.602    3.483  249.835 2046.930
 dbcsr_desymmetrize_deep         250006  7.8    6.910   11.217  165.650 1947.665
 mp_alltoall_i22                 500013  8.8  143.992 1923.209  143.992 1923.209
 cp_fm_syevd                     100002  7.0    0.324    0.385  135.464  244.673
 cp_fm_syevd_base                100002  8.0  135.004  244.245  135.004  244.245
 purify_mo_diag                   50001  7.0    0.600    0.739  132.459  207.010
 -------------------------------------------------------------------------------

 The number of warnings for this run is : 1
 
 -------------------------------------------------------------------------------
  **** **** ******  **  PROGRAM ENDED AT                 2021-01-23 12:52:34.436
 ***** ** ***  *** **   PROGRAM RAN ON                                   tcopt10
 **    ****   ******    PROGRAM RAN BY                                    hutter
 ***** **    ** ** **   PROGRAM PROCESS ID                                 69181
  **** **  *******  **  PROGRAM STOPPED IN /data/hutter/GITHUB/BASIS/MOLOPT/PBE/
                                           Cu
