 DBCSR| CPU Multiplication driver                                           XSMM
 DBCSR| Multrec recursion limit                                              512
 DBCSR| Multiplication stack size                                           1000
 DBCSR| Maximum elements for images                                    UNLIMITED
 DBCSR| Multiplicative factor virtual images                                   1
 DBCSR| Use multiplication densification                                       T
 DBCSR| Multiplication size stacks                                             3
 DBCSR| Use memory pool for CPU allocation                                     F
 DBCSR| Number of 3D layers                                               SINGLE
 DBCSR| Use MPI memory allocation                                              F
 DBCSR| Use RMA algorithm                                                      F
 DBCSR| Use Communication thread                                               T
 DBCSR| Communication thread load                                             87
 DBCSR| MPI: My node id                                                        0
 DBCSR| MPI: Number of nodes                                                  36
 DBCSR| OMP: Current number of threads                                         1
 DBCSR| OMP: Max number of threads                                             1
 DBCSR| Split modifier for TAS multiplication algorithm                  1.0E+00


  **** **** ******  **  PROGRAM STARTED AT               2022-06-07 16:41:15.060
 ***** ** ***  *** **   PROGRAM STARTED ON                               tcopt10
 **    ****   ******    PROGRAM STARTED BY                                hutter
 ***** **    ** ** **   PROGRAM PROCESS ID                                 70543
  **** **  *******  **  PROGRAM STARTED IN /data/hutter/GITHUB/BASIS/scMOLOPT/PB
                                           E/Ba

 CP2K| version string:                   CP2K version 10.0 (Development Version)
 CP2K| source code revision number:                                  git:d19b00a
 CP2K| cp2kflags: omp libint fftw3 libxc elpa parallel mpi3 scalapack cosma xsmm
 CP2K|             spglib sirius libvori libbqb
 CP2K| is freely available from                            https://www.cp2k.org/
 CP2K| Program compiled at                      Wed 18 May 2022 12:15:59 PM CEST
 CP2K| Program compiled on                                               tcopt10
 CP2K| Program compiled for                                                local
 CP2K| Data directory path                   /data/hutter/GITHUB/TDLRI/cp2k/data
 CP2K| Input file name                                               BaF-ref.inp

 GLOBAL| Force Environment number                                              1
 GLOBAL| Basis set file name                                        ../def2QZVPP
 GLOBAL| Potential file name                                        ../POTENTIAL
 GLOBAL| MM Potential file name                                     MM_POTENTIAL
 GLOBAL| Coordinate file name                                      __STD_INPUT__
 GLOBAL| Method name                                                        CP2K
 GLOBAL| Project name                                                     refBaF
 GLOBAL| Run type                                                         ENERGY
 GLOBAL| FFT library                                                       FFTW3
 GLOBAL| Diagonalization library                                            ELPA
 GLOBAL| Minimum number of eigenvectors for ELPA usage                        16
 GLOBAL| Orthonormality check for eigenvectors                          DISABLED
 GLOBAL| Matrix multiplication library                                     COSMA
 GLOBAL| All-to-all communication in single precision                          F
 GLOBAL| FFTs using library dependent lengths                                  F
 GLOBAL| Grid backend                                                       AUTO
 GLOBAL| Global print level                                                  LOW
 GLOBAL| MPI I/O enabled                                                       T
 GLOBAL| Total number of message passing processes                            36
 GLOBAL| Number of threads for this process                                    1
 GLOBAL| This output is from process                                           0
 GLOBAL| Stack size for threads created by OpenMP (OMP_STACKSIZE)        default
 GLOBAL| CPU model name                          AMD EPYC 7401 24-Core Processor
 GLOBAL| CPUID                                                              1002

 MEMORY| system memory details [Kb]
 MEMORY|                        rank 0           min           max       average
 MEMORY| MemTotal            263969132     263969132     263969132     263969132
 MEMORY| MemFree             237113180     237113180     237113180     237113180
 MEMORY| Buffers                  2836          2836          2836          2836
 MEMORY| Cached               20320120      20320116      20320120      20320116
 MEMORY| Slab                  1476152       1476152       1476152       1476152
 MEMORY| SReclaimable           875500        875500        875500        875500
 MEMORY| MemLikelyFree       258311636     258311632     258311636     258311632


 GENERATE|  Preliminary Number of Bonds generated:                             0
 GENERATE|  Achieved consistency in connectivity generation.

 *******************************************************************************
 *******************************************************************************
 **                                                                           **
 **     #####                         ##              ##                      **
 **    ##   ##            ##          ##              ##                      **
 **   ##     ##                       ##            ######                    **
 **   ##     ##  ##   ##  ##   #####  ##  ##   ####   ##    #####    #####    **
 **   ##     ##  ##   ##  ##  ##      ## ##   ##      ##   ##   ##  ##   ##   **
 **   ##  ## ##  ##   ##  ##  ##      ####     ###    ##   ######   ######    **
 **    ##  ###   ##   ##  ##  ##      ## ##      ##   ##   ##       ##        **
 **     #######   #####   ##   #####  ##  ##  ####    ##    #####   ##        **
 **           ##                                                    ##        **
 **                                                                           **
 **                                                ... make the atoms dance   **
 **                                                                           **
 **            Copyright (C) by CP2K developers group (2000-2022)             **
 **                      J. Chem. Phys. 152, 194103 (2020)                    **
 **                                                                           **
 *******************************************************************************


 TOTAL NUMBERS AND MAXIMUM NUMBERS

  Total number of            - Atomic kinds:                                   2
                             - Atoms:                                          2
                             - Shell sets:                                    35
                             - Shells:                                        35
                             - Primitive Cartesian functions:                 56
                             - Cartesian basis functions:                    147
                             - Spherical basis functions:                    117

  Maximum angular momentum of- Orbital basis functions:                        4
                             - Local part of the GTH pseudopotential:          2
                             - Non-local part of the GTH pseudopotential:      3


 SCF PARAMETERS         Density guess:                                    ATOMIC
                        --------------------------------------------------------
                        max_scf:                                              20
                        max_scf_history:                                       0
                        max_diis:                                              4
                        --------------------------------------------------------
                        eps_scf:                                        1.00E-07
                        eps_scf_history:                                0.00E+00
                        eps_diis:                                       1.00E-01
                        eps_eigval:                                     1.00E-05
                        --------------------------------------------------------
                        level_shift [a.u.]:                             0.000000
                        --------------------------------------------------------
                        Outer loop SCF in use 
                        No variables optimised in outer loop
                        eps_scf                                         1.00E-07
                        max_scf                                                5
                        No outer loop optimization
                        step_size                                       5.00E-01

 Spin 1

 Number of electrons:                                                         10
 Number of occupied orbitals:                                                 10
 Number of molecular orbitals:                                                10

 Spin 2

 Number of electrons:                                                          9
 Number of occupied orbitals:                                                  9
 Number of molecular orbitals:                                                 9

 Number of orbital functions:                                                117
 Number of independent orbital functions:                                    117

 Extrapolation method: initial_guess


 SCF WAVEFUNCTION OPTIMIZATION

  ----------------------------------- OT ---------------------------------------
  Minimizer      : DIIS                : direct inversion
                                         in the iterative subspace
                                         using   7 DIIS vectors
                                         safer DIIS on
  Preconditioner : FULL_ALL            : diagonalization, state selective
  Precond_solver : DEFAULT
  stepsize       :    0.10000000                  energy_gap     :    0.08000000
  eps_taylor     :   0.10000E-15                  max_taylor     :             4
  ----------------------------------- OT ---------------------------------------

  Step     Update method      Time    Convergence         Total energy    Change
  ------------------------------------------------------------------------------
     1 OT DIIS     0.10E+00    1.3     0.03761046      -124.5362452346 -1.25E+02
     2 OT DIIS     0.10E+00    1.5     0.02605450      -124.7943822729 -2.58E-01
     3 OT DIIS     0.10E+00    1.6     0.01866625      -124.9806893858 -1.86E-01
     4 OT DIIS     0.10E+00    1.6     0.00890412      -125.1315457906 -1.51E-01
     5 OT DIIS     0.10E+00    1.5     0.00760562      -125.1439785199 -1.24E-02
     6 OT DIIS     0.10E+00    1.6     0.00617312      -125.1570957377 -1.31E-02
     7 OT DIIS     0.10E+00    1.6     0.00433476      -125.1732533114 -1.62E-02
     8 OT DIIS     0.10E+00    1.6     0.00439088      -125.1823907829 -9.14E-03
     9 OT DIIS     0.10E+00    1.5     0.00226495      -125.1929395365 -1.05E-02
    10 OT DIIS     0.10E+00    1.6     0.00317006      -125.1929615976 -2.21E-05
    11 OT DIIS     0.10E+00    1.5     0.00213645      -125.1978896296 -4.93E-03
    12 OT DIIS     0.10E+00    1.5     0.00217296      -125.1970878960  8.02E-04
    13 OT DIIS     0.10E+00    1.6     0.00041458      -125.1986502588 -1.56E-03
    14 OT DIIS     0.10E+00    1.5     0.00024902      -125.1987054459 -5.52E-05
    15 OT DIIS     0.10E+00    1.5     0.00014570      -125.1987390819 -3.36E-05
    16 OT DIIS     0.10E+00    1.5     0.00022831      -125.1987335557  5.53E-06
    17 OT DIIS     0.10E+00    1.6     0.00011766      -125.1987472700 -1.37E-05
    18 OT DIIS     0.10E+00    1.6     0.00009858      -125.1987467486  5.21E-07
    19 OT DIIS     0.10E+00    1.6     0.00001607      -125.1987499713 -3.22E-06
    20 OT DIIS     0.10E+00    1.6     0.00000932      -125.1987501489 -1.78E-07

  Leaving inner SCF loop after reaching    20 steps.


  Electronic density on regular grids:        -16.5079864284        2.4920135716
  Core density on regular grids:               19.0000000000        0.0000000000
  Hard and soft densities (Lebedev):          -22.4047640383      -19.9127503022
  Total Rho_soft + Rho1_hard - Rho1_soft      -19.0000001644
  Total charge density (r-space):              -0.0000001644
  Total Rho_soft + Rho0_soft (g-space):        -0.0000003337

  Overlap energy of the core charge distribution:               0.00000000002617
  Self energy of the core charge distribution:               -156.76613385200483
  Core Hamiltonian energy:                                      5.04024160720060
  Hartree energy:                                              81.79026981496541
  Exchange-correlation energy:                                 -7.75384584036088

  GAPW| Exc from hard and soft atomic rho1:                    -6.24409633121210
  GAPW| local Eh = 1 center integrals:                        -41.26518554753528

  Total energy:                                              -125.19875014892089

  outer SCF iter =    1 RMS gradient =   0.93E-05 energy =       -125.1987501489

  ----------------------------------- OT ---------------------------------------
  Minimizer      : DIIS                : direct inversion
                                         in the iterative subspace
                                         using   7 DIIS vectors
                                         safer DIIS on
  Preconditioner : FULL_ALL            : diagonalization, state selective
  Precond_solver : DEFAULT
  stepsize       :    0.10000000                  energy_gap     :    0.08000000
  eps_taylor     :   0.10000E-15                  max_taylor     :             4
  ----------------------------------- OT ---------------------------------------

  Step     Update method      Time    Convergence         Total energy    Change
  ------------------------------------------------------------------------------
     1 OT DIIS     0.10E+00    3.1     0.00001105      -125.1987501883 -3.94E-08
     2 OT DIIS     0.10E+00    1.5     0.00000883      -125.1987502127 -2.44E-08
     3 OT DIIS     0.10E+00    1.6     0.00000087      -125.1987502562 -4.35E-08
     4 OT DIIS     0.10E+00    1.5     0.00000044      -125.1987502565 -2.40E-10
     5 OT DIIS     0.10E+00    1.5     0.00000022      -125.1987502566 -9.95E-11
     6 OT DIIS     0.10E+00    1.6     0.00000013      -125.1987502566 -1.27E-11
     7 OT DIIS     0.10E+00    1.5     0.00000010      -125.1987502566  1.79E-12

  *** SCF run converged in     7 steps ***


  Electronic density on regular grids:        -16.5080022809        2.4919977191
  Core density on regular grids:               19.0000000000        0.0000000000
  Hard and soft densities (Lebedev):          -22.4047451321      -19.9127472486
  Total Rho_soft + Rho1_hard - Rho1_soft      -19.0000001645
  Total charge density (r-space):              -0.0000001645
  Total Rho_soft + Rho0_soft (g-space):        -0.0000003337

  Overlap energy of the core charge distribution:               0.00000000002617
  Self energy of the core charge distribution:               -156.76613385200483
  Core Hamiltonian energy:                                      5.04012983684194
  Hartree energy:                                              81.79033624282148
  Exchange-correlation energy:                                 -7.75384048219071

  GAPW| Exc from hard and soft atomic rho1:                    -6.24407739212670
  GAPW| local Eh = 1 center integrals:                        -41.26516460993069

  Total energy:                                              -125.19875025656333

  outer SCF iter =    2 RMS gradient =   0.96E-07 energy =       -125.1987502566
  outer SCF loop converged in   2 iterations or   27 steps


  Integrated absolute spin density  :                               1.0154346801
  Ideal and single determinant S**2 :                    0.750000       0.750249

 ENERGY| Total FORCE_EVAL ( QS ) energy [a.u.]:             -125.198750256563329

 -------------------------------------------------------------------------------
 -                                                                             -
 -                                DBCSR STATISTICS                             -
 -                                                                             -
 -------------------------------------------------------------------------------
 COUNTER                                    TOTAL       BLAS       SMM       ACC
 flops     9 x     9 x     9               263898       0.0%    100.0%      0.0%
 flops    10 x    10 x    10               362000       0.0%    100.0%      0.0%
 flops     9 x     9 x    57              1015740       0.0%    100.0%      0.0%
 flops     9 x     9 x    60              1069200       0.0%    100.0%      0.0%
 flops    10 x    10 x    57              1254000       0.0%    100.0%      0.0%
 flops    57 x     9 x     9              1265058       0.0%    100.0%      0.0%
 flops    10 x    10 x    60              1320000       0.0%    100.0%      0.0%
 flops    60 x     9 x     9              1331640       0.0%    100.0%      0.0%
 flops    57 x    10 x    10              1561800       0.0%    100.0%      0.0%
 flops    57 x    57 x     9              1637496       0.0%    100.0%      0.0%
 flops    60 x    10 x    10              1644000       0.0%    100.0%      0.0%
 flops    57 x    60 x     9              1723680       0.0%    100.0%      0.0%
 flops    60 x    60 x     9              1814400       0.0%    100.0%      0.0%
 flops    57 x    57 x    10              1819440       0.0%    100.0%      0.0%
 flops    57 x    60 x    10              1915200       0.0%    100.0%      0.0%
 flops    60 x    60 x    10              2016000       0.0%    100.0%      0.0%
 flops    57 x     9 x    57              7427214       0.0%    100.0%      0.0%
 flops    60 x     9 x    57              7818120       0.0%    100.0%      0.0%
 flops    57 x     9 x    60              7818120       0.0%    100.0%      0.0%
 flops    57 x    10 x    57              8187480       0.0%    100.0%      0.0%
 flops    60 x     9 x    60              8229600       0.0%    100.0%      0.0%
 flops    60 x    10 x    57              8618400       0.0%    100.0%      0.0%
 flops    57 x    10 x    60              8618400       0.0%    100.0%      0.0%
 flops    60 x    10 x    60              9072000       0.0%    100.0%      0.0%
 flops inhomo. stacks                           0       0.0%      0.0%      0.0%
 flops total                        87.802886E+06       0.0%    100.0%      0.0%
 flops max/rank                     45.828998E+06       0.0%    100.0%      0.0%
 matmuls inhomo. stacks                         0       0.0%      0.0%      0.0%
 matmuls total                               2530       0.0%    100.0%      0.0%
 number of processed stacks                  2530       0.0%    100.0%      0.0%
 average stack size                                     0.0       1.0       0.0
 marketing flops                    91.526320E+06
 -------------------------------------------------------------------------------
 # multiplications                           1169
 max memory usage/rank             518.201344E+06
 # max total images/rank                        1
 # max 3D layers                                1
 # MPI messages exchanged                  420840
 MPI messages size (bytes):
  total size                       190.115456E+06
  min size                           0.000000E+00
  max size                          28.800000E+03
  average size                     451.752350E+00
 MPI breakdown and total messages size (bytes):
             size <=      128              400000                        0
       128 < size <=     8192               15780                 51582760
      8192 < size <=    32768                5060                138532680
     32768 < size <=   131072                   0                        0
    131072 < size <=  4194304                   0                        0
   4194304 < size <= 16777216                   0                        0
  16777216 < size                               0                        0
 -------------------------------------------------------------------------------
 -                                                                             -
 -                      DBCSR MESSAGE PASSING PERFORMANCE                      -
 -                                                                             -
 -------------------------------------------------------------------------------
 ROUTINE             CALLS      AVE VOLUME [Bytes]
 MP_Bcast               25                     12.
 MP_Allreduce         6254                      8.
 MP_Alltoall          4521                   2478.
 MP_ISend            28040                    871.
 MP_IRecv            28040                    409.
 -------------------------------------------------------------------------------

 -------------------------------------------------------------------------------
 -                                                                             -
 -                                GRID STATISTICS                              -
 -                                                                             -
 -------------------------------------------------------------------------------
 LP    KERNEL             BACKEND                              COUNT     PERCENT
 2     collocate ortho    REF                                  62160      12.08%
 2     integrate ortho    REF                                  59940      11.65%
 1     collocate ortho    REF                                  58520      11.38%
 1     integrate ortho    REF                                  56430      10.97%
 3     collocate ortho    REF                                  55608      10.81%
 3     integrate ortho    REF                                  53622      10.42%
 4     collocate ortho    REF                                  35392       6.88%
 4     integrate ortho    REF                                  34128       6.63%
 0     collocate ortho    REF                                  27720       5.39%
 0     integrate ortho    REF                                  26730       5.20%
 5     collocate ortho    REF                                  14504       2.82%
 5     integrate ortho    REF                                  13986       2.72%
 6     collocate ortho    REF                                   4760       0.93%
 6     integrate ortho    REF                                   4590       0.89%
 2     collocate general  REF                                   1944       0.38%
 2     integrate general  REF                                   1944       0.38%
 7     collocate ortho    REF                                   1064       0.21%
 7     integrate ortho    REF                                   1026       0.20%
 8     collocate ortho    REF                                    168       0.03%
 8     integrate ortho    REF                                    162       0.03%
 -------------------------------------------------------------------------------

 MEMORY| Estimated peak process memory [MiB]                                 495

 -------------------------------------------------------------------------------
 -                                                                             -
 -                         MESSAGE PASSING PERFORMANCE                         -
 -                                                                             -
 -------------------------------------------------------------------------------

 ROUTINE             CALLS      AVE VOLUME [Bytes]
 MP_Group                4
 MP_Bcast              884                 330403.
 MP_Allreduce         2482                 137299.
 MP_Sync               108
 MP_Alltoall          1050                6291069.
 MP_ISendRecv        11550                 115968.
 MP_Wait             19586
 MP_comm_split          52
 MP_ISend             7216                 367724.
 MP_IRecv             7216                 367724.
 MP_Recv                16                   1872.
 -------------------------------------------------------------------------------


 -------------------------------------------------------------------------------
 -                                                                             -
 -                           R E F E R E N C E S                               -
 -                                                                             -
 -------------------------------------------------------------------------------
 
 CP2K version 10.0 (Development Version), the CP2K developers group (2022).
 CP2K is freely available from https://www.cp2k.org/ .

 Kuehne,Thomas D.; Iannuzzi,Marcella; Del Ben,Mauro;
 Rybkin,Vladimir V.; Seewald,Patrick; Stein,Frederick; Laino,Teodoro;
 Khaliullin,Rustam Z.; Schuett,Ole; Schiffmann,Florian; Golze,Dorothea;
 Wilhelm,Jan; Chulkov,Sergey; Bani-Hashemian,Mohammad Hossein;
 Weber,Valery; Borstnik,Urban; Taillefumier,Mathieu;
 Jakobovits,Alice Shoshana; Lazzaro,Alfio; Pabst,Hans; Mueller,Tiziano;
 Schade,Robert; Guidon,Manuel; Andermatt,Samuel; Holmberg,Nico;
 Schenter,Gregory K.; Hehn,Anna; Bussy,Augustin; Belleflamme,Fabian;
 Tabacchi,Gloria; Gloess,Andreas; Lass,Michael; Bethune,Iain;
 Mundy,Christopher J.; Plessl,Christian; Watkins,Matt;
 VandeVondele,Joost; Krack,Matthias; Hutter,Juerg. 
 The Journal of Chemical Physics, 152 (19), (2020). 
 CP2K: An electronic structure and molecular dynamics software package -
 Quickstep: Efficient and accurate electronic structure calculations.
 https://doi.org/10.1063/5.0007045

 Schuett, Ole; Messmer, Peter; Hutter, Juerg; VandeVondele, Joost. 
 Electronic Structure Calculations on Graphics Processing Units, John
 Wiley & Sons, Ltd, 173-190 (2016). 
 GPU-Accelerated Sparse Matrix-Matrix Multiplication for
 Linear Scaling Density Functional Theory.
 https://doi.org/10.1002/9781118670712.ch8

 Heinecke, A; Henry, G; Hutchinson, M; Pabst, H. 
 Proceedings of Intl. Supercomputing Conference, 981-991 (2016). 
 LIBXSMM: Accelerating Small Matrix Multiplications
 by Runtime Code Generation.
 https://doi.org/10.1109/SC.2016.83

 Borstnik, U; VandeVondele, J; Weber, V; Hutter, J. 
 PARALLEL COMPUTING, 40 (5-6), 47-58 (2014). 
 Sparse matrix multiplication: The distributed block-compressed sparse
 row library.
 https://doi.org/10.1016/j.parco.2014.03.012

 Hutter, J; Iannuzzi, M; Schiffmann, F; VandeVondele, J. 
 WIREs Comput Mol Sci., 4 (1), 15-25 (2014). 
 CP2K: atomistic simulations of condensed matter systems.
 https://doi.org/10.1002/wcms.1159

 Marek, A; Blum, V; Johanni, R; Havu, V; Lang, B; Auckenthaler, T;
 Heinecke, A; Bungartz, H; Lederer, H. 
 Journal of Physics: Condensed Matter, 26 (21), (2014). 
 The ELPA library: scalable parallel eigenvalue solutions for
 electronic structure
 theory and computational science.
 https://doi.org/10.1088/0953-8984/26/21/213201

 Krack, M. 
 THEORETICAL CHEMISTRY ACCOUNTS, 114 (1-3), 145-152 (2005). 
 Pseudopotentials for H to Kr optimized for gradient-corrected
 exchange-correlation functionals.
 https://doi.org/10.1007/s00214-005-0655-y

 Frigo, M; Johnson, SG. 
 PROCEEDINGS OF THE IEEE, 93 (2), 216-231 (2005). 
 The design and implementation of FFTW3.
 https://doi.org/10.1109/JPROC.2004.840301

 VandeVondele, J; Hutter, J. 
 JOURNAL OF CHEMICAL PHYSICS, 118 (10), 4365-4369 (2003). 
 An efficient orbital transformation method for electronic structure
 calculations.
 https://doi.org/10.1063/1.1543154

 Lippert, G; Hutter, J; Parrinello, M. 
 THEORETICAL CHEMISTRY ACCOUNTS, 103 (2), 124-140 (1999). 
 The Gaussian and augmented-plane-wave density functional method for ab
 initio molecular dynamics simulations.
 https://doi.org/10.1007/s002140050523

 Krack, M; Parrinello, M. 
 PHYSICAL CHEMISTRY CHEMICAL PHYSICS, 2 (10), 2105-2112 (2000). 
 All-electron ab-initio molecular dynamics.
 https://doi.org/10.1039/b001167n

 Hartwigsen, C; Goedecker, S; Hutter, J. 
 PHYSICAL REVIEW B, 58 (7), 3641-3662 (1998). 
 Relativistic separable dual-space Gaussian pseudopotentials from H to Rn.
 https://doi.org/10.1103/PhysRevB.58.3641

 Perdew, JP; Burke, K; Ernzerhof, M. 
 PHYSICAL REVIEW LETTERS, 77 (18), 3865-3868 (1996). 
 Generalized gradient approximation made simple.
 https://doi.org/10.1103/PhysRevLett.77.3865

 Goedecker, S; Teter, M; Hutter, J. 
 PHYSICAL REVIEW B, 54 (3), 1703-1710 (1996). 
 Separable dual-space Gaussian pseudopotentials.
 https://doi.org/10.1103/PhysRevB.54.1703


 -------------------------------------------------------------------------------
 -                                                                             -
 -                                T I M I N G                                  -
 -                                                                             -
 -------------------------------------------------------------------------------
 SUBROUTINE                       CALLS  ASD         SELF TIME        TOTAL TIME
                                MAXIMUM       AVERAGE  MAXIMUM  AVERAGE  MAXIMUM
 CP2K                                 1  1.0    0.019    0.041   42.901   42.903
 qs_energies                          1  2.0    0.000    0.000   42.614   42.614
 scf_env_do_scf                       1  3.0    0.000    0.000   41.823   41.824
 scf_env_do_scf_inner_loop           27  4.0    0.000    0.001   39.332   39.333
 qs_ks_update_qs_env                 29  5.0    0.000    0.000   33.136   33.137
 rebuild_ks_matrix                   27  6.0    0.000    0.000   33.131   33.132
 qs_ks_build_kohn_sham_matrix        27  7.0    0.006    0.007   33.131   33.132
 pw_transfer                       1009 10.2    0.101    0.125   12.527   12.732
 fft_wrap_pw1pw2                    928 11.3    0.013    0.017   12.365   12.572
 fft_wrap_pw1pw2_300                598 12.8    0.830    0.931   11.504   11.708
 qs_vxc_create                       27  8.0    0.001    0.001   11.203   11.203
 xc_vxc_pw_create                    27  9.0    0.200    0.253   11.202   11.203
 fft3d_ps                           928 13.3    5.001    5.540    9.506   10.048
 rs_pw_transfer                     494  9.5    0.011    0.014    8.601    8.930
 qs_rho_update_rho                   28  5.0    0.001    0.001    7.888    7.891
 prepare_gapw_den                    27  8.0    0.001    0.001    7.617    7.645
 calculate_rho_elec                  56  6.0    0.040    0.040    7.481    7.482
 xc_pw_derive                       324 11.0    0.003    0.004    7.030    7.148
 density_rs2pw                       56  7.0    0.003    0.003    5.595    5.930
 xc_rho_set_and_dset_create          27 10.0    0.149    0.191    5.853    5.923
 sum_up_and_integrate                27  8.0    0.028    0.036    5.858    5.863
 integrate_v_rspace                  54  9.0    0.002    0.002    5.830    5.834
 mp_sum_d                          1712  8.1    5.119    5.414    5.119    5.414
 xc_pw_divergence                    54 10.0    0.002    0.002    4.931    5.020
 potential_pw2rs                     54 10.0    0.004    0.005    4.903    4.908
 mp_alltoall_z22v                   928 15.3    3.432    4.366    3.432    4.366
 calculate_rho0_atom                 54  9.0    3.503    4.208    3.503    4.208
 calculate_vxc_atom                  27  8.0    0.025    0.434    4.045    4.045
 calculate_rho_atom                  54  9.0    0.623    3.815    0.623    3.815
 rs_pw_transfer_RS2PW_300            83  9.7    1.725    2.183    3.200    3.527
 gaVxcgb_GC                          54  9.0    0.096    3.455    0.096    3.455
 rs_pw_transfer_PW2RS_300            81 11.3    1.767    2.149    3.258    3.406
 mp_waitany                        7216 11.5    2.330    3.248    2.330    3.248
 yz_to_x                            467 13.9    0.486    0.640    2.442    2.996
 integrate_vhg0_rspace               27  8.0    0.160    0.599    2.463    2.503
 init_scf_loop                        2  4.0    0.000    0.000    2.489    2.489
 xc_functional_eval                 135 10.9    0.000    0.001    2.296    2.431
 pbe_lsd_eval                       135 11.9    2.295    2.430    2.295    2.430
 x_to_yz                            461 14.8    0.553    0.638    2.029    2.395
 mp_sum_dv                          878 13.0    1.745    2.154    1.745    2.154
 mp_waitall_1                     87186 13.9    1.493    1.886    1.493    1.886
 put_rho0_on_grid                    27  9.0    0.022    0.026    1.749    1.777
 grid_collocate_task_list            56  7.0    1.524    1.768    1.524    1.768
 mp_sum_dm                          278  7.4    1.398    1.571    1.398    1.571
 rs_pw_transfer_PW2RS_100            54 12.0    0.212    0.238    1.016    1.269
 pw_gather_p                        467 12.9    1.002    1.221    1.002    1.221
 dbcsr_multiply_generic            1169 10.1    0.031    0.032    1.164    1.183
 pw_scatter_p                       461 13.8    0.979    1.094    0.979    1.094
 qs_scf_new_mos                      27  5.0    0.000    0.000    0.963    0.964
 qs_scf_loop_do_ot                   27  6.0    0.000    0.000    0.963    0.964
 grid_integrate_task_list            54 10.0    0.708    0.924    0.708    0.924
 ot_scf_mini                         27  7.0    0.000    0.001    0.918    0.919
 -------------------------------------------------------------------------------

 The number of warnings for this run is : 0
 
 -------------------------------------------------------------------------------
  **** **** ******  **  PROGRAM ENDED AT                 2022-06-07 16:41:58.364
 ***** ** ***  *** **   PROGRAM RAN ON                                   tcopt10
 **    ****   ******    PROGRAM RAN BY                                    hutter
 ***** **    ** ** **   PROGRAM PROCESS ID                                 70543
  **** **  *******  **  PROGRAM STOPPED IN /data/hutter/GITHUB/BASIS/scMOLOPT/PB
                                           E/Ba
