 DBCSR| CPU Multiplication driver                                           XSMM
 DBCSR| Multrec recursion limit                                              512
 DBCSR| Multiplication stack size                                           1000
 DBCSR| Maximum elements for images                                    UNLIMITED
 DBCSR| Multiplicative factor virtual images                                   1
 DBCSR| Use multiplication densification                                       T
 DBCSR| Multiplication size stacks                                             3
 DBCSR| Use memory pool for CPU allocation                                     F
 DBCSR| Number of 3D layers                                               SINGLE
 DBCSR| Use MPI memory allocation                                              F
 DBCSR| Use RMA algorithm                                                      F
 DBCSR| Use Communication thread                                               T
 DBCSR| Communication thread load                                             87
 DBCSR| MPI: My node id                                                        0
 DBCSR| MPI: Number of nodes                                                  36
 DBCSR| OMP: Current number of threads                                         1
 DBCSR| OMP: Max number of threads                                             1
 DBCSR| Split modifier for TAS multiplication algorithm                  1.0E+00


  **** **** ******  **  PROGRAM STARTED AT               2022-06-07 16:42:09.213
 ***** ** ***  *** **   PROGRAM STARTED ON                               tcopt10
 **    ****   ******    PROGRAM STARTED BY                                hutter
 ***** **    ** ** **   PROGRAM PROCESS ID                                 70756
  **** **  *******  **  PROGRAM STARTED IN /data/hutter/GITHUB/BASIS/scMOLOPT/PB
                                           E/Ba

 CP2K| version string:                   CP2K version 10.0 (Development Version)
 CP2K| source code revision number:                                  git:d19b00a
 CP2K| cp2kflags: omp libint fftw3 libxc elpa parallel mpi3 scalapack cosma xsmm
 CP2K|             spglib sirius libvori libbqb
 CP2K| is freely available from                            https://www.cp2k.org/
 CP2K| Program compiled at                      Wed 18 May 2022 12:15:59 PM CEST
 CP2K| Program compiled on                                               tcopt10
 CP2K| Program compiled for                                                local
 CP2K| Data directory path                   /data/hutter/GITHUB/TDLRI/cp2k/data
 CP2K| Input file name                                              BaH2-ref.inp

 GLOBAL| Force Environment number                                              1
 GLOBAL| Basis set file name                                        ../def2QZVPP
 GLOBAL| Potential file name                                        ../POTENTIAL
 GLOBAL| MM Potential file name                                     MM_POTENTIAL
 GLOBAL| Coordinate file name                                      __STD_INPUT__
 GLOBAL| Method name                                                        CP2K
 GLOBAL| Project name                                                    refBaH2
 GLOBAL| Run type                                                         ENERGY
 GLOBAL| FFT library                                                       FFTW3
 GLOBAL| Diagonalization library                                            ELPA
 GLOBAL| Minimum number of eigenvectors for ELPA usage                        16
 GLOBAL| Orthonormality check for eigenvectors                          DISABLED
 GLOBAL| Matrix multiplication library                                     COSMA
 GLOBAL| All-to-all communication in single precision                          F
 GLOBAL| FFTs using library dependent lengths                                  F
 GLOBAL| Grid backend                                                       AUTO
 GLOBAL| Global print level                                                  LOW
 GLOBAL| MPI I/O enabled                                                       T
 GLOBAL| Total number of message passing processes                            36
 GLOBAL| Number of threads for this process                                    1
 GLOBAL| This output is from process                                           0
 GLOBAL| Stack size for threads created by OpenMP (OMP_STACKSIZE)        default
 GLOBAL| CPU model name                          AMD EPYC 7401 24-Core Processor
 GLOBAL| CPUID                                                              1002

 MEMORY| system memory details [Kb]
 MEMORY|                        rank 0           min           max       average
 MEMORY| MemTotal            263969132     263969132     263969132     263969132
 MEMORY| MemFree             237110104     237110104     237110104     237110104
 MEMORY| Buffers                  2836          2836          2836          2836
 MEMORY| Cached               20319616      20319612      20319616      20319612
 MEMORY| Slab                  1475532       1475532       1475532       1475532
 MEMORY| SReclaimable           875372        875372        875372        875372
 MEMORY| MemLikelyFree       258307928     258307924     258307928     258307924


 GENERATE|  Preliminary Number of Bonds generated:                             0
 GENERATE|  Achieved consistency in connectivity generation.

 *******************************************************************************
 *******************************************************************************
 **                                                                           **
 **     #####                         ##              ##                      **
 **    ##   ##            ##          ##              ##                      **
 **   ##     ##                       ##            ######                    **
 **   ##     ##  ##   ##  ##   #####  ##  ##   ####   ##    #####    #####    **
 **   ##     ##  ##   ##  ##  ##      ## ##   ##      ##   ##   ##  ##   ##   **
 **   ##  ## ##  ##   ##  ##  ##      ####     ###    ##   ######   ######    **
 **    ##  ###   ##   ##  ##  ##      ## ##      ##   ##   ##       ##        **
 **     #######   #####   ##   #####  ##  ##  ####    ##    #####   ##        **
 **           ##                                                    ##        **
 **                                                                           **
 **                                                ... make the atoms dance   **
 **                                                                           **
 **            Copyright (C) by CP2K developers group (2000-2022)             **
 **                      J. Chem. Phys. 152, 194103 (2020)                    **
 **                                                                           **
 *******************************************************************************


 TOTAL NUMBERS AND MAXIMUM NUMBERS

  Total number of            - Atomic kinds:                                   2
                             - Atoms:                                          3
                             - Shell sets:                                    38
                             - Shells:                                        38
                             - Primitive Cartesian functions:                 53
                             - Cartesian basis functions:                    145
                             - Spherical basis functions:                    120

  Maximum angular momentum of- Orbital basis functions:                        4
                             - Local part of the GTH pseudopotential:          2
                             - Non-local part of the GTH pseudopotential:      3


 SCF PARAMETERS         Density guess:                                    ATOMIC
                        --------------------------------------------------------
                        max_scf:                                              20
                        max_scf_history:                                       0
                        max_diis:                                              4
                        --------------------------------------------------------
                        eps_scf:                                        1.00E-07
                        eps_scf_history:                                0.00E+00
                        eps_diis:                                       1.00E-01
                        eps_eigval:                                     1.00E-05
                        --------------------------------------------------------
                        level_shift [a.u.]:                             0.000000
                        --------------------------------------------------------
                        Outer loop SCF in use 
                        No variables optimised in outer loop
                        eps_scf                                         1.00E-07
                        max_scf                                                5
                        No outer loop optimization
                        step_size                                       5.00E-01

 Number of electrons:                                                         12
 Number of occupied orbitals:                                                  6
 Number of molecular orbitals:                                                 6

 Number of orbital functions:                                                120
 Number of independent orbital functions:                                    120

 Extrapolation method: initial_guess


 SCF WAVEFUNCTION OPTIMIZATION

  ----------------------------------- OT ---------------------------------------
  Minimizer      : DIIS                : direct inversion
                                         in the iterative subspace
                                         using   7 DIIS vectors
                                         safer DIIS on
  Preconditioner : FULL_ALL            : diagonalization, state selective
  Precond_solver : DEFAULT
  stepsize       :    0.10000000                  energy_gap     :    0.08000000
  eps_taylor     :   0.10000E-15                  max_taylor     :             4
  ----------------------------------- OT ---------------------------------------

  Step     Update method      Time    Convergence         Total energy    Change
  ------------------------------------------------------------------------------
     1 OT DIIS     0.10E+00    0.7     0.11007758       -25.7848850346 -2.58E+01
     2 OT DIIS     0.10E+00    0.8     0.13218082       -25.8853085592 -1.00E-01
     3 OT DIIS     0.10E+00    0.8     0.05231215       -26.1997464722 -3.14E-01
     4 OT DIIS     0.10E+00    0.8     0.04224100       -26.2752801920 -7.55E-02
     5 OT DIIS     0.10E+00    0.8     0.03031836       -26.3579716057 -8.27E-02
     6 OT DIIS     0.10E+00    0.8     0.03044932       -26.3985796853 -4.06E-02
     7 OT DIIS     0.10E+00    0.8     0.02060518       -26.4375186729 -3.89E-02
     8 OT DIIS     0.10E+00    0.8     0.01020583       -26.4449806282 -7.46E-03
     9 OT DIIS     0.10E+00    0.8     0.00777752       -26.4524408542 -7.46E-03
    10 OT DIIS     0.10E+00    0.8     0.00782967       -26.4584433889 -6.00E-03
    11 OT DIIS     0.10E+00    0.8     0.00532480       -26.4606232088 -2.18E-03
    12 OT DIIS     0.10E+00    0.8     0.00545570       -26.4600830448  5.40E-04
    13 OT DIIS     0.10E+00    0.8     0.00244076       -26.4615167302 -1.43E-03
    14 OT DIIS     0.10E+00    0.8     0.00069370       -26.4621288350 -6.12E-04
    15 OT DIIS     0.10E+00    0.8     0.00061827       -26.4621553412 -2.65E-05
    16 OT DIIS     0.10E+00    0.8     0.00018621       -26.4621719541 -1.66E-05
    17 OT DIIS     0.10E+00    0.8     0.00007486       -26.4621741327 -2.18E-06
    18 OT DIIS     0.10E+00    0.8     0.00004242       -26.4621746756 -5.43E-07
    19 OT DIIS     0.10E+00    0.8     0.00001907       -26.4621748592 -1.84E-07
    20 OT DIIS     0.10E+00    0.8     0.00000893       -26.4621748892 -3.00E-08

  Leaving inner SCF loop after reaching    20 steps.


  Electronic density on regular grids:        -11.9092235838        0.0907764162
  Core density on regular grids:               12.0000000000       -0.0000000000
  Hard and soft densities (Lebedev):          -14.6303015268      -14.5395251750
  Total Rho_soft + Rho1_hard - Rho1_soft      -11.9999999356
  Total charge density (r-space):               0.0000000644
  Total Rho_soft + Rho0_soft (g-space):         0.0000000258

  Overlap energy of the core charge distribution:               0.00000000000037
  Self energy of the core charge distribution:                -55.02369208494544
  Core Hamiltonian energy:                                     10.63610150797216
  Hartree energy:                                              92.71689339503956
  Exchange-correlation energy:                                 -4.28381615831775

  GAPW| Exc from hard and soft atomic rho1:                    -0.03668182804332
  GAPW| local Eh = 1 center integrals:                        -70.47097972090096

  Total energy:                                               -26.46217488919538

  outer SCF iter =    1 RMS gradient =   0.89E-05 energy =        -26.4621748892

  ----------------------------------- OT ---------------------------------------
  Minimizer      : DIIS                : direct inversion
                                         in the iterative subspace
                                         using   7 DIIS vectors
                                         safer DIIS on
  Preconditioner : FULL_ALL            : diagonalization, state selective
  Precond_solver : DEFAULT
  stepsize       :    0.10000000                  energy_gap     :    0.08000000
  eps_taylor     :   0.10000E-15                  max_taylor     :             4
  ----------------------------------- OT ---------------------------------------

  Step     Update method      Time    Convergence         Total energy    Change
  ------------------------------------------------------------------------------
     1 OT DIIS     0.10E+00    1.6     0.00000540       -26.4621748967 -7.47E-09
     2 OT DIIS     0.10E+00    0.8     0.00000321       -26.4621748983 -1.67E-09
     3 OT DIIS     0.10E+00    0.8     0.00000026       -26.4621748993 -9.25E-10
     4 OT DIIS     0.10E+00    0.8     0.00000007       -26.4621748993 -5.29E-12

  *** SCF run converged in     4 steps ***


  Electronic density on regular grids:        -11.9092214598        0.0907785402
  Core density on regular grids:               12.0000000000       -0.0000000000
  Hard and soft densities (Lebedev):          -14.6303021081      -14.5395236323
  Total Rho_soft + Rho1_hard - Rho1_soft      -11.9999999356
  Total charge density (r-space):               0.0000000644
  Total Rho_soft + Rho0_soft (g-space):         0.0000000258

  Overlap energy of the core charge distribution:               0.00000000000037
  Self energy of the core charge distribution:                -55.02369208494544
  Core Hamiltonian energy:                                     10.63611320457807
  Hartree energy:                                              92.71689308815536
  Exchange-correlation energy:                                 -4.28382394901578

  GAPW| Exc from hard and soft atomic rho1:                    -0.03668318893453
  GAPW| local Eh = 1 center integrals:                        -70.47098196910699

  Total energy:                                               -26.46217489926895

  outer SCF iter =    2 RMS gradient =   0.74E-07 energy =        -26.4621748993
  outer SCF loop converged in   2 iterations or   24 steps


 ENERGY| Total FORCE_EVAL ( QS ) energy [a.u.]:              -26.462174899268952

 -------------------------------------------------------------------------------
 -                                                                             -
 -                                DBCSR STATISTICS                             -
 -                                                                             -
 -------------------------------------------------------------------------------
 COUNTER                                    TOTAL       BLAS       SMM       ACC
 flops     6 x     6 x     6                76896       0.0%    100.0%      0.0%
 flops     6 x     6 x    60               423360       0.0%    100.0%      0.0%
 flops     6 x     6 x    30               423360       0.0%    100.0%      0.0%
 flops    60 x     6 x     6               527040       0.0%    100.0%      0.0%
 flops    30 x     6 x     6               527040       0.0%    100.0%      0.0%
 flops    30 x    60 x     6               540000       0.0%    100.0%      0.0%
 flops    60 x    30 x     6               540000       0.0%    100.0%      0.0%
 flops    30 x    30 x     6               810000       0.0%    100.0%      0.0%
 flops    60 x    60 x     6              1080000       0.0%    100.0%      0.0%
 flops    60 x     6 x    60              4924800       0.0%    100.0%      0.0%
 flops    60 x     6 x    30              4924800       0.0%    100.0%      0.0%
 flops    30 x     6 x    30              4924800       0.0%    100.0%      0.0%
 flops    30 x     6 x    60              4924800       0.0%    100.0%      0.0%
 flops inhomo. stacks                           0       0.0%      0.0%      0.0%
 flops total                        24.646896E+06       0.0%    100.0%      0.0%
 flops max/rank                     12.380256E+06       0.0%    100.0%      0.0%
 matmuls inhomo. stacks                         0       0.0%      0.0%      0.0%
 matmuls total                               2014       0.0%    100.0%      0.0%
 number of processed stacks                  2014       0.0%    100.0%      0.0%
 average stack size                                     0.0       1.0       0.0
 marketing flops                    26.014176E+06
 -------------------------------------------------------------------------------
 # multiplications                            539
 max memory usage/rank             442.437632E+06
 # max total images/rank                        1
 # max 3D layers                                1
 # MPI messages exchanged                  194040
 MPI messages size (bytes):
  total size                        80.233920E+06
  min size                           0.000000E+00
  max size                          28.800000E+03
  average size                     413.491638E+00
 MPI breakdown and total messages size (bytes):
             size <=      128              179290                        0
       128 < size <=     8192               11900                 30985920
      8192 < size <=    32768                2850                 49248000
     32768 < size <=   131072                   0                        0
    131072 < size <=  4194304                   0                        0
   4194304 < size <= 16777216                   0                        0
  16777216 < size                               0                        0
 -------------------------------------------------------------------------------
 -                                                                             -
 -                      DBCSR MESSAGE PASSING PERFORMANCE                      -
 -                                                                             -
 -------------------------------------------------------------------------------
 ROUTINE             CALLS      AVE VOLUME [Bytes]
 MP_Bcast               14                     12.
 MP_Allreduce         2888                      8.
 MP_Alltoall          2118                   2407.
 MP_ISend            12928                    752.
 MP_IRecv            12928                    379.
 -------------------------------------------------------------------------------

 -------------------------------------------------------------------------------
 -                                                                             -
 -                                GRID STATISTICS                              -
 -                                                                             -
 -------------------------------------------------------------------------------
 LP    KERNEL             BACKEND                              COUNT     PERCENT
 1     collocate ortho    REF                                  33200      12.10%
 2     collocate ortho    REF                                  33050      12.05%
 1     integrate ortho    REF                                  31872      11.62%
 2     integrate ortho    REF                                  31728      11.57%
 3     collocate ortho    REF                                  28450      10.37%
 3     integrate ortho    REF                                  27312       9.96%
 0     collocate ortho    REF                                  18375       6.70%
 0     integrate ortho    REF                                  17640       6.43%
 4     collocate ortho    REF                                  16250       5.92%
 4     integrate ortho    REF                                  15600       5.69%
 5     collocate ortho    REF                                   5950       2.17%
 5     integrate ortho    REF                                   5712       2.08%
 2     collocate general  REF                                   2592       0.94%
 2     integrate general  REF                                   2592       0.94%
 6     collocate ortho    REF                                   1775       0.65%
 6     integrate ortho    REF                                   1704       0.62%
 7     collocate ortho    REF                                    250       0.09%
 7     integrate ortho    REF                                    240       0.09%
 8     collocate ortho    REF                                     25       0.01%
 8     integrate ortho    REF                                     24       0.01%
 -------------------------------------------------------------------------------

 MEMORY| Estimated peak process memory [MiB]                                 431

 -------------------------------------------------------------------------------
 -                                                                             -
 -                         MESSAGE PASSING PERFORMANCE                         -
 -                                                                             -
 -------------------------------------------------------------------------------

 ROUTINE             CALLS      AVE VOLUME [Bytes]
 MP_Group                4
 MP_Bcast              464                 609062.
 MP_Allreduce         1467                 184185.
 MP_Sync                56
 MP_Alltoall           498                6398102.
 MP_ISendRecv         5145                 115968.
 MP_Wait              9898
 MP_comm_split          26
 MP_ISend             4268                 367724.
 MP_IRecv             4268                 367724.
 MP_Recv                10                    960.
 -------------------------------------------------------------------------------


 -------------------------------------------------------------------------------
 -                                                                             -
 -                           R E F E R E N C E S                               -
 -                                                                             -
 -------------------------------------------------------------------------------
 
 CP2K version 10.0 (Development Version), the CP2K developers group (2022).
 CP2K is freely available from https://www.cp2k.org/ .

 Kuehne,Thomas D.; Iannuzzi,Marcella; Del Ben,Mauro;
 Rybkin,Vladimir V.; Seewald,Patrick; Stein,Frederick; Laino,Teodoro;
 Khaliullin,Rustam Z.; Schuett,Ole; Schiffmann,Florian; Golze,Dorothea;
 Wilhelm,Jan; Chulkov,Sergey; Bani-Hashemian,Mohammad Hossein;
 Weber,Valery; Borstnik,Urban; Taillefumier,Mathieu;
 Jakobovits,Alice Shoshana; Lazzaro,Alfio; Pabst,Hans; Mueller,Tiziano;
 Schade,Robert; Guidon,Manuel; Andermatt,Samuel; Holmberg,Nico;
 Schenter,Gregory K.; Hehn,Anna; Bussy,Augustin; Belleflamme,Fabian;
 Tabacchi,Gloria; Gloess,Andreas; Lass,Michael; Bethune,Iain;
 Mundy,Christopher J.; Plessl,Christian; Watkins,Matt;
 VandeVondele,Joost; Krack,Matthias; Hutter,Juerg. 
 The Journal of Chemical Physics, 152 (19), (2020). 
 CP2K: An electronic structure and molecular dynamics software package -
 Quickstep: Efficient and accurate electronic structure calculations.
 https://doi.org/10.1063/5.0007045

 Schuett, Ole; Messmer, Peter; Hutter, Juerg; VandeVondele, Joost. 
 Electronic Structure Calculations on Graphics Processing Units, John
 Wiley & Sons, Ltd, 173-190 (2016). 
 GPU-Accelerated Sparse Matrix-Matrix Multiplication for
 Linear Scaling Density Functional Theory.
 https://doi.org/10.1002/9781118670712.ch8

 Heinecke, A; Henry, G; Hutchinson, M; Pabst, H. 
 Proceedings of Intl. Supercomputing Conference, 981-991 (2016). 
 LIBXSMM: Accelerating Small Matrix Multiplications
 by Runtime Code Generation.
 https://doi.org/10.1109/SC.2016.83

 Borstnik, U; VandeVondele, J; Weber, V; Hutter, J. 
 PARALLEL COMPUTING, 40 (5-6), 47-58 (2014). 
 Sparse matrix multiplication: The distributed block-compressed sparse
 row library.
 https://doi.org/10.1016/j.parco.2014.03.012

 Hutter, J; Iannuzzi, M; Schiffmann, F; VandeVondele, J. 
 WIREs Comput Mol Sci., 4 (1), 15-25 (2014). 
 CP2K: atomistic simulations of condensed matter systems.
 https://doi.org/10.1002/wcms.1159

 Marek, A; Blum, V; Johanni, R; Havu, V; Lang, B; Auckenthaler, T;
 Heinecke, A; Bungartz, H; Lederer, H. 
 Journal of Physics: Condensed Matter, 26 (21), (2014). 
 The ELPA library: scalable parallel eigenvalue solutions for
 electronic structure
 theory and computational science.
 https://doi.org/10.1088/0953-8984/26/21/213201

 Krack, M. 
 THEORETICAL CHEMISTRY ACCOUNTS, 114 (1-3), 145-152 (2005). 
 Pseudopotentials for H to Kr optimized for gradient-corrected
 exchange-correlation functionals.
 https://doi.org/10.1007/s00214-005-0655-y

 Frigo, M; Johnson, SG. 
 PROCEEDINGS OF THE IEEE, 93 (2), 216-231 (2005). 
 The design and implementation of FFTW3.
 https://doi.org/10.1109/JPROC.2004.840301

 VandeVondele, J; Hutter, J. 
 JOURNAL OF CHEMICAL PHYSICS, 118 (10), 4365-4369 (2003). 
 An efficient orbital transformation method for electronic structure
 calculations.
 https://doi.org/10.1063/1.1543154

 Lippert, G; Hutter, J; Parrinello, M. 
 THEORETICAL CHEMISTRY ACCOUNTS, 103 (2), 124-140 (1999). 
 The Gaussian and augmented-plane-wave density functional method for ab
 initio molecular dynamics simulations.
 https://doi.org/10.1007/s002140050523

 Krack, M; Parrinello, M. 
 PHYSICAL CHEMISTRY CHEMICAL PHYSICS, 2 (10), 2105-2112 (2000). 
 All-electron ab-initio molecular dynamics.
 https://doi.org/10.1039/b001167n

 Hartwigsen, C; Goedecker, S; Hutter, J. 
 PHYSICAL REVIEW B, 58 (7), 3641-3662 (1998). 
 Relativistic separable dual-space Gaussian pseudopotentials from H to Rn.
 https://doi.org/10.1103/PhysRevB.58.3641

 Perdew, JP; Burke, K; Ernzerhof, M. 
 PHYSICAL REVIEW LETTERS, 77 (18), 3865-3868 (1996). 
 Generalized gradient approximation made simple.
 https://doi.org/10.1103/PhysRevLett.77.3865

 Goedecker, S; Teter, M; Hutter, J. 
 PHYSICAL REVIEW B, 54 (3), 1703-1710 (1996). 
 Separable dual-space Gaussian pseudopotentials.
 https://doi.org/10.1103/PhysRevB.54.1703


 -------------------------------------------------------------------------------
 -                                                                             -
 -                                T I M I N G                                  -
 -                                                                             -
 -------------------------------------------------------------------------------
 SUBROUTINE                       CALLS  ASD         SELF TIME        TOTAL TIME
                                MAXIMUM       AVERAGE  MAXIMUM  AVERAGE  MAXIMUM
 CP2K                                 1  1.0    0.015    0.033   20.699   20.700
 qs_energies                          1  2.0    0.000    0.000   20.441   20.441
 scf_env_do_scf                       1  3.0    0.000    0.000   19.831   19.831
 scf_env_do_scf_inner_loop           24  4.0    0.000    0.001   18.496   18.496
 qs_ks_update_qs_env                 26  5.0    0.000    0.000   15.877   15.879
 rebuild_ks_matrix                   24  6.0    0.000    0.000   15.875   15.877
 qs_ks_build_kohn_sham_matrix        24  7.0    0.005    0.006   15.875   15.877
 pw_transfer                        509 10.1    0.053    0.063    6.015    6.122
 fft_wrap_pw1pw2                    437 11.3    0.006    0.008    5.906    6.028
 fft_wrap_pw1pw2_300                290 12.6    0.405    0.463    5.512    5.653
 qs_vxc_create                       24  8.0    0.001    0.001    5.349    5.352
 xc_vxc_pw_create                    24  9.0    0.054    0.064    5.349    5.351
 rs_pw_transfer                     244  9.5    0.006    0.007    4.838    5.073
 fft3d_ps                           437 13.3    2.372    2.778    4.516    4.681
 prepare_gapw_den                    24  8.0    0.001    0.001    3.654    3.708
 qs_rho_update_rho                   25  5.0    0.000    0.001    3.592    3.593
 calculate_rho_elec                  25  6.0    0.018    0.018    3.433    3.433
 xc_pw_derive                       144 11.0    0.002    0.002    3.132    3.160
 xc_rho_set_and_dset_create          24 10.0    0.039    0.050    3.009    3.044
 density_rs2pw                       25  7.0    0.001    0.001    2.580    2.758
 sum_up_and_integrate                24  8.0    0.012    0.016    2.550    2.553
 integrate_v_rspace                  24  9.0    0.001    0.001    2.538    2.541
 xc_pw_divergence                    24 10.0    0.001    0.001    2.173    2.206
 potential_pw2rs                     24 10.0    0.002    0.002    2.172    2.174
 rs_pw_transfer_RS2PW_300            49 10.0    1.098    1.348    1.924    2.110
 mp_alltoall_z22v                   437 15.3    1.611    2.036    1.611    2.036
 rs_pw_transfer_PW2RS_300            48 11.0    1.081    1.296    1.939    2.033
 integrate_vhg0_rspace               24  8.0    0.119    0.303    2.012    2.028
 mp_waitany                        4268 11.5    1.311    1.998    1.311    1.998
 mp_sum_d                          1077  6.4    1.672    1.822    1.672    1.822
 calculate_rho0_atom                 48  9.0    1.425    1.717    1.425    1.717
 put_rho0_on_grid                    24  9.0    0.020    0.026    1.498    1.551
 xc_functional_eval                  72 10.9    0.000    0.001    1.440    1.482
 pbe_lda_eval                        72 11.9    1.439    1.481    1.439    1.481
 yz_to_x                            220 13.9    0.246    0.322    1.140    1.384
 calculate_rho_atom                  48  9.0    0.327    1.369    0.327    1.369
 init_scf_loop                        2  4.0    0.000    0.000    1.334    1.335
 x_to_yz                            217 14.7    0.270    0.311    0.987    1.125
 calculate_vxc_atom                  24  8.0    0.013    0.098    1.021    1.031
 mp_sum_dm                          222  7.6    0.854    1.007    0.854    1.007
 mp_waitall_1                     40126 13.9    0.700    0.930    0.700    0.930
 gaVxcgb_GC                          24  9.0    0.031    0.873    0.031    0.873
 grid_collocate_task_list            25  7.0    0.699    0.817    0.699    0.817
 pw_gather_p                        220 12.9    0.491    0.593    0.491    0.593
 rs_pw_transfer_PW2RS_100            24 12.0    0.096    0.121    0.469    0.590
 pw_scatter_p                       217 13.7    0.472    0.557    0.472    0.557
 mp_sum_dv                          366 12.7    0.405    0.554    0.405    0.554
 dbcsr_multiply_generic             539 10.1    0.015    0.015    0.522    0.530
 rs_grid_zero                        96 10.8    0.440    0.523    0.440    0.523
 qs_energies_init_hamiltonians        1  3.0    0.000    0.000    0.453    0.453
 qs_env_update_s_mstruct              1  4.0    0.000    0.000    0.425    0.453
 qs_create_task_list                  1  5.0    0.000    0.000    0.424    0.453
 generate_qs_task_list                1  6.0    0.000    0.005    0.424    0.453
 distribute_tasks                     1  7.0    0.000    0.000    0.424    0.453
 get_current_loads                   10  8.8    0.000    0.000    0.423    0.452
 mp_alltoall_l                       11  9.7    0.423    0.451    0.423    0.451
 load_balance_distributed             1  8.0    0.000    0.000    0.423    0.451
 compute_load_list                    2  9.0    0.000    0.000    0.423    0.451
 qs_scf_new_mos                      24  5.0    0.000    0.000    0.446    0.448
 qs_scf_loop_do_ot                   24  6.0    0.000    0.000    0.446    0.448
 build_core_hamiltonian_matrix        1  4.0    0.000    0.000    0.029    0.446
 ot_scf_mini                         24  7.0    0.000    0.000    0.427    0.429
 -------------------------------------------------------------------------------

 The number of warnings for this run is : 0
 
 -------------------------------------------------------------------------------
  **** **** ******  **  PROGRAM ENDED AT                 2022-06-07 16:42:30.310
 ***** ** ***  *** **   PROGRAM RAN ON                                   tcopt10
 **    ****   ******    PROGRAM RAN BY                                    hutter
 ***** **    ** ** **   PROGRAM PROCESS ID                                 70756
  **** **  *******  **  PROGRAM STOPPED IN /data/hutter/GITHUB/BASIS/scMOLOPT/PB
                                           E/Ba
