
  **** **** ******  **  PROGRAM STARTED AT               2021-01-23 16:37:11.987
 ***** ** ***  *** **   PROGRAM STARTED ON                               tcopt10
 **    ****   ******    PROGRAM STARTED BY                                hutter
 ***** **    ** ** **   PROGRAM PROCESS ID                                 96099
  **** **  *******  **  PROGRAM STARTED IN /data/hutter/GITHUB/BASIS/MOLOPT/PBE/
                                           Ga

 CP2K| version string:                    CP2K version 9.0 (Development Version)
 CP2K| source code revision number:                                  git:7d6847f
 CP2K| cp2kflags: omp libint fftw3 libxc elpa parallel mpi3 scalapack xsmm spgli
 CP2K|            b sirius libvori libbqb
 CP2K| is freely available from                            https://www.cp2k.org/
 CP2K| Program compiled at                          Fre Jan 15 16:26:00 CET 2021
 CP2K| Program compiled on                                               tcopt10
 CP2K| Program compiled for                                                local
 CP2K| Data directory path                 /data/hutter/GITHUB/CURRENT/cp2k/data
 CP2K| Input file name                                               opt-all.inp

 GLOBAL| Method name                                              OPTIMIZE_BASIS
 GLOBAL| Project name                                                     molopt
 GLOBAL| Preferred FFT library                                             FFTW3
 GLOBAL| Preferred diagonalization lib.                                     ELPA
 GLOBAL| Run type                                                   ENERGY_FORCE
 GLOBAL| All-to-all communication in single precision                          F
 GLOBAL| FFTs using library dependent lengths                                  F
 GLOBAL| Global print level                                               MEDIUM
 GLOBAL| MPI I/O enabled                                                       T
 GLOBAL| Total number of message passing processes                            48
 GLOBAL| Number of threads for this process                                    1
 GLOBAL| This output is from process                                           0
 GLOBAL| CPU model name                          AMD EPYC 7401 24-Core Processor
 GLOBAL| CPUID                                                              1002

 MEMORY| system memory details [Kb]
 MEMORY|                        rank 0           min           max       average
 MEMORY| MemTotal            263969964     263969964     263969964     263969964
 MEMORY| MemFree             258727092     258727092     258727092     258727092
 MEMORY| Buffers                    20            20            20            20
 MEMORY| Cached                1217056       1217056       1217056       1217056
 MEMORY| Slab                   602936        602936        602936        602936
 MEMORY| SReclaimable           242164        242164        242164        242164
 MEMORY| MemLikelyFree       260186332     260186332     260186332     260186332


 *** Fundamental physical constants (SI units) ***

 *** Literature: B. J. Mohr and B. N. Taylor,
 ***             CODATA recommended values of the fundamental physical
 ***             constants: 2006, Web Version 5.1
 ***             http://physics.nist.gov/constants

 Speed of light in vacuum [m/s]                             2.99792458000000E+08
 Magnetic constant or permeability of vacuum [N/A**2]       1.25663706143592E-06
 Electric constant or permittivity of vacuum [F/m]          8.85418781762039E-12
 Planck constant (h) [J*s]                                  6.62606896000000E-34
 Planck constant (h-bar) [J*s]                              1.05457162825177E-34
 Elementary charge [C]                                      1.60217648700000E-19
 Electron mass [kg]                                         9.10938215000000E-31
 Electron g factor [ ]                                     -2.00231930436220E+00
 Proton mass [kg]                                           1.67262163700000E-27
 Fine-structure constant                                    7.29735253760000E-03
 Rydberg constant [1/m]                                     1.09737315685270E+07
 Avogadro constant [1/mol]                                  6.02214179000000E+23
 Boltzmann constant [J/K]                                   1.38065040000000E-23
 Atomic mass unit [kg]                                      1.66053878200000E-27
 Bohr radius [m]                                            5.29177208590000E-11

 *** Conversion factors ***

 [u] -> [a.u.]                                              1.82288848426455E+03
 [Angstrom] -> [Bohr] = [a.u.]                              1.88972613288564E+00
 [a.u.] = [Bohr] -> [Angstrom]                              5.29177208590000E-01
 [a.u.] -> [s]                                              2.41888432650478E-17
 [a.u.] -> [fs]                                             2.41888432650478E-02
 [a.u.] -> [J]                                              4.35974393937059E-18
 [a.u.] -> [N]                                              8.23872205491840E-08
 [a.u.] -> [K]                                              3.15774647902944E+05
 [a.u.] -> [kJ/mol]                                         2.62549961709828E+03
 [a.u.] -> [kcal/mol]                                       6.27509468713739E+02
 [a.u.] -> [Pa]                                             2.94210107994716E+13
 [a.u.] -> [bar]                                            2.94210107994716E+08
 [a.u.] -> [atm]                                            2.90362800883016E+08
 [a.u.] -> [eV]                                             2.72113838565563E+01
 [a.u.] -> [Hz]                                             6.57968392072181E+15
 [a.u.] -> [1/cm] (wave numbers)                            2.19474631370540E+05
 [a.u./Bohr**2] -> [1/cm]                                   5.14048714338585E+03
 
 DBCSR| CPU Multiplication driver                                           XSMM
 DBCSR| Multrec recursion limit                                              512
 DBCSR| Multiplication stack size                                           1000
 DBCSR| Maximum elements for images                                    UNLIMITED
 DBCSR| Multiplicative factor virtual images                                   1
 DBCSR| Use multiplication densification                                       T
 DBCSR| Multiplication size stacks                                             3
 DBCSR| Use memory pool for CPU allocation                                     F
 DBCSR| Number of 3D layers                                               SINGLE
 DBCSR| Use MPI memory allocation                                              F
 DBCSR| Use RMA algorithm                                                      F
 DBCSR| Use Communication thread                                               T
 DBCSR| Communication thread load                                             87
 DBCSR| MPI: My node id                                                        0
 DBCSR| MPI: Number of nodes                                                  48
 DBCSR| OMP: Current number of threads                                         1
 DBCSR| OMP: Max number of threads                                             1
 DBCSR| Split modifier for TAS multiplication algorithm                  1.0E+00

 BASOPT| Total number of calculations     18

 BASOPT| Content of basis combination      1
 BASOPT|     Element:   GA    Basis set:    TZV2P-MOLOPT-PBE-GTH-Q13
 BASOPT|     Element:    H    Basis set:    TZV2P-MOLOPT-PBE-GTH-Q1
 BASOPT|     Element:    O    Basis set:    TZV2P-MOLOPT-PBE-GTH-Q6
 BASOPT|     Element:    F    Basis set:    TZV2P-MOLOPT-PBE-GTH-Q7
 BASOPT|     Element:   CL    Basis set:    TZV2P-MOLOPT-PBE-GTH-Q7

 BASOPT| Content of basis combination      2
 BASOPT|     Element:   GA    Basis set:    TZVP-MOLOPT-PBE-GTH-q13
 BASOPT|     Element:    H    Basis set:    TZVP-MOLOPT-PBE-GTH-q1
 BASOPT|     Element:    O    Basis set:    TZVP-MOLOPT-PBE-GTH-q6
 BASOPT|     Element:    F    Basis set:    TZVP-MOLOPT-PBE-GTH-q7
 BASOPT|     Element:   CL    Basis set:    TZVP-MOLOPT-PBE-GTH-q7

 BASOPT| Content of basis combination      3
 BASOPT|     Element:   GA    Basis set:    DZVP-MOLOPT-PBE-GTH-q13
 BASOPT|     Element:    H    Basis set:    DZVP-MOLOPT-PBE-GTH-q1
 BASOPT|     Element:    O    Basis set:    DZVP-MOLOPT-PBE-GTH-q6
 BASOPT|     Element:    F    Basis set:    DZVP-MOLOPT-PBE-GTH-q7
 BASOPT|     Element:   CL    Basis set:    DZVP-MOLOPT-PBE-GTH-q7

 BASOPT| Information at iteration number:       0
 BASOPT| Training set | Combination | Rho difference | Condition num. | Time
 BASOPT| -----------------------------------------------------------------------
 BASOPT|        1     |       1     | 0.15100432E-02 | 0.39089049E+03 |    0.081
 BASOPT|        1     |       2     | 0.24573079E-02 | 0.27363118E+03 |    0.063
 BASOPT|        1     |       3     | 0.27454298E-02 | 0.10469653E+03 |    0.050
 BASOPT|        2     |       1     | 0.14256308E-02 | 0.63110282E+03 |    0.056
 BASOPT|        2     |       2     | 0.19647748E-02 | 0.45610371E+03 |    0.047
 BASOPT|        2     |       3     | 0.29231643E-02 | 0.14363288E+03 |    0.039
 BASOPT|        3     |       1     | 0.29863994E-03 | 0.67895752E+03 |    0.039
 BASOPT|        3     |       2     | 0.44706337E-03 | 0.27194317E+03 |    0.028
 BASOPT|        3     |       3     | 0.10748624E-02 | 0.58660175E+02 |    0.024
 BASOPT|        4     |       1     | 0.78919848E-03 | 0.23792516E+03 |    0.022
 BASOPT|        4     |       2     | 0.10920025E-02 | 0.15002699E+03 |    0.021
 BASOPT|        4     |       3     | 0.14615313E-02 | 0.57904199E+02 |    0.023
 BASOPT|        5     |       1     | 0.50980045E-03 | 0.49056562E+03 |    0.019
 BASOPT|        5     |       2     | 0.67966480E-03 | 0.35665511E+03 |    0.015
 BASOPT|        5     |       3     | 0.10073289E-02 | 0.12374396E+03 |    0.015
 BASOPT|        6     |       1     | 0.90987551E-03 | 0.10570602E+04 |    0.024
 BASOPT|        6     |       2     | 0.13241318E-02 | 0.55119623E+03 |    0.020
 BASOPT|        6     |       3     | 0.18732043E-02 | 0.15963727E+03 |    0.017
 BASOPT| -----------------------------------------------------------------------
 BASOPT| Total residuum value: -.22962651E+04

 BASOPT| Information at iteration number:     100
 BASOPT| Training set | Combination | Rho difference | Condition num. | Time
 BASOPT| -----------------------------------------------------------------------
 BASOPT|        1     |       1     | 0.15061787E-02 | 0.39467927E+03 |    7.176
 BASOPT|        1     |       2     | 0.24573079E-02 | 0.27363118E+03 |    5.184
 BASOPT|        1     |       3     | 0.27454298E-02 | 0.10469653E+03 |    4.163
 BASOPT|        2     |       1     | 0.14212615E-02 | 0.62557923E+03 |    5.448
 BASOPT|        2     |       2     | 0.19647748E-02 | 0.45610371E+03 |    4.134
 BASOPT|        2     |       3     | 0.29231643E-02 | 0.14363288E+03 |    3.604
 BASOPT|        3     |       1     | 0.29972788E-03 | 0.64472957E+03 |    3.029
 BASOPT|        3     |       2     | 0.44706337E-03 | 0.27194317E+03 |    2.090
 BASOPT|        3     |       3     | 0.10748624E-02 | 0.58660175E+02 |    1.839
 BASOPT|        4     |       1     | 0.78627762E-03 | 0.24258740E+03 |    1.667
 BASOPT|        4     |       2     | 0.10920025E-02 | 0.15002699E+03 |    1.409
 BASOPT|        4     |       3     | 0.14615313E-02 | 0.57904199E+02 |    1.250
 BASOPT|        5     |       1     | 0.50936233E-03 | 0.48774734E+03 |    1.643
 BASOPT|        5     |       2     | 0.67966480E-03 | 0.35665511E+03 |    1.357
 BASOPT|        5     |       3     | 0.10073289E-02 | 0.12374396E+03 |    1.224
 BASOPT|        6     |       1     | 0.90768636E-03 | 0.10530652E+04 |    2.294
 BASOPT|        6     |       2     | 0.13241318E-02 | 0.55119623E+03 |    1.937
 BASOPT|        6     |       3     | 0.18732043E-02 | 0.15963727E+03 |    1.724
 BASOPT| -----------------------------------------------------------------------
 BASOPT| Total residuum value: -.22962665E+04

 BASOPT| Information at iteration number:     200
 BASOPT| Training set | Combination | Rho difference | Condition num. | Time
 BASOPT| -----------------------------------------------------------------------
 BASOPT|        1     |       1     | 0.15295015E-02 | 0.39804691E+03 |   15.022
 BASOPT|        1     |       2     | 0.24722315E-02 | 0.27681705E+03 |   10.765
 BASOPT|        1     |       3     | 0.27613169E-02 | 0.10650034E+03 |    8.722
 BASOPT|        2     |       1     | 0.14698489E-02 | 0.63779864E+03 |   11.336
 BASOPT|        2     |       2     | 0.20137270E-02 | 0.47333272E+03 |    8.591
 BASOPT|        2     |       3     | 0.29992492E-02 | 0.14518328E+03 |    7.500
 BASOPT|        3     |       1     | 0.32374177E-03 | 0.69755488E+03 |    6.278
 BASOPT|        3     |       2     | 0.47176686E-03 | 0.27081217E+03 |    4.360
 BASOPT|        3     |       3     | 0.10650020E-02 | 0.58491992E+02 |    3.822
 BASOPT|        4     |       1     | 0.81470400E-03 | 0.24279936E+03 |    3.461
 BASOPT|        4     |       2     | 0.11156590E-02 | 0.15190169E+03 |    2.919
 BASOPT|        4     |       3     | 0.14864922E-02 | 0.58852631E+02 |    2.581
 BASOPT|        5     |       1     | 0.53411851E-03 | 0.49638949E+03 |    3.418
 BASOPT|        5     |       2     | 0.70572484E-03 | 0.36130618E+03 |    2.823
 BASOPT|        5     |       3     | 0.10411575E-02 | 0.12470062E+03 |    2.535
 BASOPT|        6     |       1     | 0.95610739E-03 | 0.10801026E+04 |    4.772
 BASOPT|        6     |       2     | 0.13691411E-02 | 0.56118241E+03 |    4.038
 BASOPT|        6     |       3     | 0.19264376E-02 | 0.16053114E+03 |    3.577
 BASOPT| -----------------------------------------------------------------------
 BASOPT| Total residuum value: -.22965203E+04

 BASOPT| Information at iteration number:     300
 BASOPT| Training set | Combination | Rho difference | Condition num. | Time
 BASOPT| -----------------------------------------------------------------------
 BASOPT|        1     |       1     | 0.15152778E-02 | 0.39435472E+03 |   23.268
 BASOPT|        1     |       2     | 0.24547555E-02 | 0.27208164E+03 |   16.602
 BASOPT|        1     |       3     | 0.27463921E-02 | 0.10510642E+03 |   13.536
 BASOPT|        2     |       1     | 0.14388432E-02 | 0.62383477E+03 |   17.491
 BASOPT|        2     |       2     | 0.19817066E-02 | 0.46283669E+03 |   13.260
 BASOPT|        2     |       3     | 0.29622818E-02 | 0.14525602E+03 |   11.582
 BASOPT|        3     |       1     | 0.31491398E-03 | 0.76906477E+03 |    9.674
 BASOPT|        3     |       2     | 0.45640373E-03 | 0.26686340E+03 |    6.751
 BASOPT|        3     |       3     | 0.10818801E-02 | 0.58488145E+02 |    5.902
 BASOPT|        4     |       1     | 0.81328022E-03 | 0.23997760E+03 |    5.341
 BASOPT|        4     |       2     | 0.11148367E-02 | 0.14849957E+03 |    4.499
 BASOPT|        4     |       3     | 0.14843524E-02 | 0.58533730E+02 |    3.971
 BASOPT|        5     |       1     | 0.53452680E-03 | 0.46972132E+03 |    5.279
 BASOPT|        5     |       2     | 0.70741426E-03 | 0.34024796E+03 |    4.360
 BASOPT|        5     |       3     | 0.10498645E-02 | 0.12482339E+03 |    3.901
 BASOPT|        6     |       1     | 0.94231828E-03 | 0.10635756E+04 |    7.370
 BASOPT|        6     |       2     | 0.13494277E-02 | 0.52955287E+03 |    6.241
 BASOPT|        6     |       3     | 0.19032728E-02 | 0.16125671E+03 |    5.511
 BASOPT| -----------------------------------------------------------------------
 BASOPT| Total residuum value: -.22965336E+04

 BASOPT| Information at iteration number:     400
 BASOPT| Training set | Combination | Rho difference | Condition num. | Time
 BASOPT| -----------------------------------------------------------------------
 BASOPT|        1     |       1     | 0.15176234E-02 | 0.40524549E+03 |   31.612
 BASOPT|        1     |       2     | 0.24547747E-02 | 0.26304405E+03 |   22.442
 BASOPT|        1     |       3     | 0.27580617E-02 | 0.10540746E+03 |   18.347
 BASOPT|        2     |       1     | 0.14309164E-02 | 0.60411686E+03 |   23.651
 BASOPT|        2     |       2     | 0.19719308E-02 | 0.44757645E+03 |   17.929
 BASOPT|        2     |       3     | 0.29903774E-02 | 0.14495765E+03 |   15.669
 BASOPT|        3     |       1     | 0.30655667E-03 | 0.81208633E+03 |   13.071
 BASOPT|        3     |       2     | 0.44945594E-03 | 0.26024764E+03 |    9.141
 BASOPT|        3     |       3     | 0.10684618E-02 | 0.58321966E+02 |    7.984
 BASOPT|        4     |       1     | 0.81168077E-03 | 0.23750632E+03 |    7.222
 BASOPT|        4     |       2     | 0.11131364E-02 | 0.14588441E+03 |    6.082
 BASOPT|        4     |       3     | 0.14863271E-02 | 0.58291569E+02 |    5.362
 BASOPT|        5     |       1     | 0.52698613E-03 | 0.44459250E+03 |    7.143
 BASOPT|        5     |       2     | 0.69769441E-03 | 0.32118478E+03 |    5.900
 BASOPT|        5     |       3     | 0.10416248E-02 | 0.12423356E+03 |    5.269
 BASOPT|        6     |       1     | 0.93295260E-03 | 0.10241583E+04 |    9.969
 BASOPT|        6     |       2     | 0.13302725E-02 | 0.50021709E+03 |    8.444
 BASOPT|        6     |       3     | 0.19149582E-02 | 0.15995988E+03 |    7.446
 BASOPT| -----------------------------------------------------------------------
 BASOPT| Total residuum value: -.22965426E+04

 BASOPT| Information at iteration number:     500
 BASOPT| Training set | Combination | Rho difference | Condition num. | Time
 BASOPT| -----------------------------------------------------------------------
 BASOPT|        1     |       1     | 0.15207889E-02 | 0.40511989E+03 |   39.873
 BASOPT|        1     |       2     | 0.24558521E-02 | 0.25314407E+03 |   28.283
 BASOPT|        1     |       3     | 0.27802675E-02 | 0.10405153E+03 |   23.156
 BASOPT|        2     |       1     | 0.14275629E-02 | 0.57575076E+03 |   29.812
 BASOPT|        2     |       2     | 0.19692591E-02 | 0.42660796E+03 |   22.596
 BASOPT|        2     |       3     | 0.30036918E-02 | 0.14409089E+03 |   19.753
 BASOPT|        3     |       1     | 0.29652565E-03 | 0.83673244E+03 |   16.468
 BASOPT|        3     |       2     | 0.44438724E-03 | 0.25319500E+03 |   11.529
 BASOPT|        3     |       3     | 0.11116208E-02 | 0.58505103E+02 |   10.063
 BASOPT|        4     |       1     | 0.81306381E-03 | 0.23188627E+03 |    9.102
 BASOPT|        4     |       2     | 0.11133067E-02 | 0.14212201E+03 |    7.661
 BASOPT|        4     |       3     | 0.14987359E-02 | 0.57212697E+02 |    6.748
 BASOPT|        5     |       1     | 0.52459937E-03 | 0.41270323E+03 |    9.006
 BASOPT|        5     |       2     | 0.69442464E-03 | 0.29786820E+03 |    7.436
 BASOPT|        5     |       3     | 0.10456834E-02 | 0.12333451E+03 |    6.635
 BASOPT|        6     |       1     | 0.92758447E-03 | 0.95030721E+03 |   12.570
 BASOPT|        6     |       2     | 0.13217013E-02 | 0.46104495E+03 |   10.653
 BASOPT|        6     |       3     | 0.19376016E-02 | 0.15819570E+03 |    9.380
 BASOPT| -----------------------------------------------------------------------
 BASOPT| Total residuum value: -.22965529E+04

 BASOPT| Information at iteration number:     600
 BASOPT| Training set | Combination | Rho difference | Condition num. | Time
 BASOPT| -----------------------------------------------------------------------
 BASOPT|        1     |       1     | 0.15327364E-02 | 0.40752689E+03 |   48.127
 BASOPT|        1     |       2     | 0.24721434E-02 | 0.25136008E+03 |   34.128
 BASOPT|        1     |       3     | 0.28291556E-02 | 0.10437456E+03 |   27.963
 BASOPT|        2     |       1     | 0.14551122E-02 | 0.57129229E+03 |   35.976
 BASOPT|        2     |       2     | 0.20002596E-02 | 0.42287323E+03 |   27.262
 BASOPT|        2     |       3     | 0.31361342E-02 | 0.14454665E+03 |   23.836
 BASOPT|        3     |       1     | 0.29548194E-03 | 0.83699917E+03 |   19.869
 BASOPT|        3     |       2     | 0.45122507E-03 | 0.25246774E+03 |   13.917
 BASOPT|        3     |       3     | 0.10583745E-02 | 0.57939262E+02 |   12.144
 BASOPT|        4     |       1     | 0.82296432E-03 | 0.23198000E+03 |   10.982
 BASOPT|        4     |       2     | 0.11209567E-02 | 0.14221041E+03 |    9.242
 BASOPT|        4     |       3     | 0.15431704E-02 | 0.57338503E+02 |    8.135
 BASOPT|        5     |       1     | 0.53091466E-03 | 0.40867916E+03 |   10.869
 BASOPT|        5     |       2     | 0.69847345E-03 | 0.29488266E+03 |    8.971
 BASOPT|        5     |       3     | 0.10717149E-02 | 0.12300155E+03 |    8.002
 BASOPT|        6     |       1     | 0.94858161E-03 | 0.94131157E+03 |   15.168
 BASOPT|        6     |       2     | 0.13468274E-02 | 0.45587038E+03 |   12.854
 BASOPT|        6     |       3     | 0.20565130E-02 | 0.15729913E+03 |   11.315
 BASOPT| -----------------------------------------------------------------------
 BASOPT| Total residuum value: -.22965084E+04

 BASOPT| Information at iteration number:     700
 BASOPT| Training set | Combination | Rho difference | Condition num. | Time
 BASOPT| -----------------------------------------------------------------------
 BASOPT|        1     |       1     | 0.15214139E-02 | 0.40458155E+03 |   56.367
 BASOPT|        1     |       2     | 0.24576384E-02 | 0.24824655E+03 |   39.971
 BASOPT|        1     |       3     | 0.27951849E-02 | 0.10339998E+03 |   32.770
 BASOPT|        2     |       1     | 0.14206405E-02 | 0.56482585E+03 |   42.136
 BASOPT|        2     |       2     | 0.19599150E-02 | 0.41860990E+03 |   31.929
 BASOPT|        2     |       3     | 0.30051346E-02 | 0.14473349E+03 |   27.924
 BASOPT|        3     |       1     | 0.29085588E-03 | 0.84216677E+03 |   23.269
 BASOPT|        3     |       2     | 0.44245877E-03 | 0.25065410E+03 |   16.305
 BASOPT|        3     |       3     | 0.11522418E-02 | 0.58490384E+02 |   14.233
 BASOPT|        4     |       1     | 0.81348093E-03 | 0.22967193E+03 |   12.864
 BASOPT|        4     |       2     | 0.11141948E-02 | 0.14056732E+03 |   10.821
 BASOPT|        4     |       3     | 0.15044834E-02 | 0.56890842E+02 |    9.522
 BASOPT|        5     |       1     | 0.52337511E-03 | 0.40069884E+03 |   12.733
 BASOPT|        5     |       2     | 0.69227993E-03 | 0.28913348E+03 |   10.507
 BASOPT|        5     |       3     | 0.10497489E-02 | 0.12340097E+03 |    9.370
 BASOPT|        6     |       1     | 0.92353982E-03 | 0.92103278E+03 |   17.775
 BASOPT|        6     |       2     | 0.13167680E-02 | 0.44530691E+03 |   15.058
 BASOPT|        6     |       3     | 0.19490960E-02 | 0.15820852E+03 |   13.249
 BASOPT| -----------------------------------------------------------------------
 BASOPT| Total residuum value: -.22965566E+04

 BASOPT| Information at iteration number:     800
 BASOPT| Training set | Combination | Rho difference | Condition num. | Time
 BASOPT| -----------------------------------------------------------------------
 BASOPT|        1     |       1     | 0.15140416E-02 | 0.40793505E+03 |   64.679
 BASOPT|        1     |       2     | 0.24462883E-02 | 0.24882799E+03 |   45.814
 BASOPT|        1     |       3     | 0.27733933E-02 | 0.10397589E+03 |   37.580
 BASOPT|        2     |       1     | 0.14193154E-02 | 0.56546586E+03 |   48.299
 BASOPT|        2     |       2     | 0.19552005E-02 | 0.41876417E+03 |   36.597
 BASOPT|        2     |       3     | 0.29883477E-02 | 0.14403547E+03 |   32.009
 BASOPT|        3     |       1     | 0.29531355E-03 | 0.83861070E+03 |   26.663
 BASOPT|        3     |       2     | 0.44568291E-03 | 0.25017224E+03 |   18.694
 BASOPT|        3     |       3     | 0.11332484E-02 | 0.58525982E+02 |   16.311
 BASOPT|        4     |       1     | 0.81668896E-03 | 0.23089781E+03 |   14.743
 BASOPT|        4     |       2     | 0.11175427E-02 | 0.14110377E+03 |   12.402
 BASOPT|        4     |       3     | 0.15017061E-02 | 0.57058603E+02 |   10.909
 BASOPT|        5     |       1     | 0.52798780E-03 | 0.39958333E+03 |   14.597
 BASOPT|        5     |       2     | 0.69672548E-03 | 0.28849502E+03 |   12.043
 BASOPT|        5     |       3     | 0.10492171E-02 | 0.12312077E+03 |   10.736
 BASOPT|        6     |       1     | 0.93233106E-03 | 0.92459080E+03 |   20.384
 BASOPT|        6     |       2     | 0.13170934E-02 | 0.44538593E+03 |   17.264
 BASOPT|        6     |       3     | 0.19343358E-02 | 0.15779298E+03 |   15.184
 BASOPT| -----------------------------------------------------------------------
 BASOPT| Total residuum value: -.22965572E+04

 BASOPT| Information at iteration number:     900
 BASOPT| Training set | Combination | Rho difference | Condition num. | Time
 BASOPT| -----------------------------------------------------------------------
 BASOPT|        1     |       1     | 0.15205695E-02 | 0.40393456E+03 |   72.975
 BASOPT|        1     |       2     | 0.24569068E-02 | 0.24653346E+03 |   51.653
 BASOPT|        1     |       3     | 0.27834598E-02 | 0.10327841E+03 |   42.387
 BASOPT|        2     |       1     | 0.14203479E-02 | 0.55482751E+03 |   54.463
 BASOPT|        2     |       2     | 0.19572448E-02 | 0.41200639E+03 |   41.261
 BASOPT|        2     |       3     | 0.29888745E-02 | 0.14351964E+03 |   36.092
 BASOPT|        3     |       1     | 0.29457989E-03 | 0.83761825E+03 |   30.066
 BASOPT|        3     |       2     | 0.44603291E-03 | 0.24893345E+03 |   21.083
 BASOPT|        3     |       3     | 0.11241614E-02 | 0.58556534E+02 |   18.389
 BASOPT|        4     |       1     | 0.81452278E-03 | 0.22837212E+03 |   16.622
 BASOPT|        4     |       2     | 0.11156015E-02 | 0.13978286E+03 |   13.981
 BASOPT|        4     |       3     | 0.15013672E-02 | 0.56641132E+02 |   12.297
 BASOPT|        5     |       1     | 0.52337077E-03 | 0.39431847E+03 |   16.460
 BASOPT|        5     |       2     | 0.69175394E-03 | 0.28482611E+03 |   13.578
 BASOPT|        5     |       3     | 0.10431271E-02 | 0.12267592E+03 |   12.102
 BASOPT|        6     |       1     | 0.92426595E-03 | 0.90361825E+03 |   22.982
 BASOPT|        6     |       2     | 0.13134597E-02 | 0.43843553E+03 |   19.466
 BASOPT|        6     |       3     | 0.19371082E-02 | 0.15710362E+03 |   17.116
 BASOPT| -----------------------------------------------------------------------
 BASOPT| Total residuum value: -.22965635E+04

 BASOPT| Information at iteration number:    1000
 BASOPT| Training set | Combination | Rho difference | Condition num. | Time
 BASOPT| -----------------------------------------------------------------------
 BASOPT|        1     |       1     | 0.15193431E-02 | 0.40021742E+03 |   81.239
 BASOPT|        1     |       2     | 0.24578722E-02 | 0.24350522E+03 |   57.491
 BASOPT|        1     |       3     | 0.27870215E-02 | 0.10257423E+03 |   47.202
 BASOPT|        2     |       1     | 0.14162692E-02 | 0.54246844E+03 |   60.621
 BASOPT|        2     |       2     | 0.19513913E-02 | 0.40378252E+03 |   45.924
 BASOPT|        2     |       3     | 0.29805817E-02 | 0.14292803E+03 |   40.171
 BASOPT|        3     |       1     | 0.29295176E-03 | 0.83147122E+03 |   33.468
 BASOPT|        3     |       2     | 0.44611749E-03 | 0.24697515E+03 |   23.471
 BASOPT|        3     |       3     | 0.11378495E-02 | 0.58574527E+02 |   20.467
 BASOPT|        4     |       1     | 0.81464657E-03 | 0.22587283E+03 |   18.504
 BASOPT|        4     |       2     | 0.11165727E-02 | 0.13827798E+03 |   15.560
 BASOPT|        4     |       3     | 0.15051421E-02 | 0.56264426E+02 |   13.684
 BASOPT|        5     |       1     | 0.52201708E-03 | 0.38566336E+03 |   18.323
 BASOPT|        5     |       2     | 0.69029200E-03 | 0.27882637E+03 |   15.113
 BASOPT|        5     |       3     | 0.10443705E-02 | 0.12214137E+03 |   13.467
 BASOPT|        6     |       1     | 0.92216227E-03 | 0.87660606E+03 |   25.580
 BASOPT|        6     |       2     | 0.13114794E-02 | 0.42740701E+03 |   21.668
 BASOPT|        6     |       3     | 0.19391860E-02 | 0.15631797E+03 |   19.048
 BASOPT| -----------------------------------------------------------------------
 BASOPT| Total residuum value: -.22965668E+04

 BASOPT| Information at iteration number:    1100
 BASOPT| Training set | Combination | Rho difference | Condition num. | Time
 BASOPT| -----------------------------------------------------------------------
 BASOPT|        1     |       1     | 0.15204550E-02 | 0.39749143E+03 |   89.487
 BASOPT|        1     |       2     | 0.24627507E-02 | 0.23921009E+03 |   63.330
 BASOPT|        1     |       3     | 0.27948651E-02 | 0.10233232E+03 |   52.017
 BASOPT|        2     |       1     | 0.14146974E-02 | 0.52687088E+03 |   66.782
 BASOPT|        2     |       2     | 0.19468154E-02 | 0.39276389E+03 |   50.589
 BASOPT|        2     |       3     | 0.29799144E-02 | 0.14184044E+03 |   44.247
 BASOPT|        3     |       1     | 0.29405178E-03 | 0.81810449E+03 |   36.865
 BASOPT|        3     |       2     | 0.45025085E-03 | 0.24448053E+03 |   25.861
 BASOPT|        3     |       3     | 0.11529553E-02 | 0.58404060E+02 |   22.545
 BASOPT|        4     |       1     | 0.81694973E-03 | 0.22324111E+03 |   20.385
 BASOPT|        4     |       2     | 0.11194514E-02 | 0.13668144E+03 |   17.138
 BASOPT|        4     |       3     | 0.15110409E-02 | 0.55957230E+02 |   15.071
 BASOPT|        5     |       1     | 0.52123854E-03 | 0.37477354E+03 |   20.186
 BASOPT|        5     |       2     | 0.68826977E-03 | 0.27116562E+03 |   16.649
 BASOPT|        5     |       3     | 0.10429048E-02 | 0.12128265E+03 |   14.833
 BASOPT|        6     |       1     | 0.92389608E-03 | 0.84501484E+03 |   28.184
 BASOPT|        6     |       2     | 0.13088610E-02 | 0.41438588E+03 |   23.872
 BASOPT|        6     |       3     | 0.19412563E-02 | 0.15501577E+03 |   20.980
 BASOPT| -----------------------------------------------------------------------
 BASOPT| Total residuum value: -.22965697E+04

 BASOPT| Information at iteration number:    1200
 BASOPT| Training set | Combination | Rho difference | Condition num. | Time
 BASOPT| -----------------------------------------------------------------------
 BASOPT|        1     |       1     | 0.15196934E-02 | 0.39673614E+03 |   97.750
 BASOPT|        1     |       2     | 0.24622745E-02 | 0.23679505E+03 |   69.168
 BASOPT|        1     |       3     | 0.27972754E-02 | 0.10188771E+03 |   56.832
 BASOPT|        2     |       1     | 0.14148749E-02 | 0.51977170E+03 |   72.942
 BASOPT|        2     |       2     | 0.19449193E-02 | 0.38740375E+03 |   55.258
 BASOPT|        2     |       3     | 0.29814799E-02 | 0.14143433E+03 |   48.323
 BASOPT|        3     |       1     | 0.29150069E-03 | 0.80834434E+03 |   40.270
 BASOPT|        3     |       2     | 0.44887163E-03 | 0.24325386E+03 |   28.250
 BASOPT|        3     |       3     | 0.11573263E-02 | 0.58499178E+02 |   24.624
 BASOPT|        4     |       1     | 0.81748382E-03 | 0.22206459E+03 |   22.266
 BASOPT|        4     |       2     | 0.11203746E-02 | 0.13565439E+03 |   18.716
 BASOPT|        4     |       3     | 0.15146985E-02 | 0.55707571E+02 |   16.458
 BASOPT|        5     |       1     | 0.52143304E-03 | 0.36907031E+03 |   22.049
 BASOPT|        5     |       2     | 0.68785052E-03 | 0.26695756E+03 |   18.184
 BASOPT|        5     |       3     | 0.10438835E-02 | 0.12088901E+03 |   16.199
 BASOPT|        6     |       1     | 0.92647766E-03 | 0.82970831E+03 |   30.788
 BASOPT|        6     |       2     | 0.13095674E-02 | 0.40716462E+03 |   26.073
 BASOPT|        6     |       3     | 0.19488488E-02 | 0.15439320E+03 |   22.913
 BASOPT| -----------------------------------------------------------------------
 BASOPT| Total residuum value: -.22965715E+04

 BASOPT| Information at iteration number:    1300
 BASOPT| Training set | Combination | Rho difference | Condition num. | Time
 BASOPT| -----------------------------------------------------------------------
 BASOPT|        1     |       1     | 0.15200707E-02 | 0.39463120E+03 |  106.022
 BASOPT|        1     |       2     | 0.24625490E-02 | 0.23388346E+03 |   75.004
 BASOPT|        1     |       3     | 0.27975834E-02 | 0.10123329E+03 |   61.645
 BASOPT|        2     |       1     | 0.14173529E-02 | 0.51154080E+03 |   79.103
 BASOPT|        2     |       2     | 0.19474462E-02 | 0.38117636E+03 |   59.925
 BASOPT|        2     |       3     | 0.29776472E-02 | 0.14113030E+03 |   52.397
 BASOPT|        3     |       1     | 0.29032953E-03 | 0.79653656E+03 |   43.669
 BASOPT|        3     |       2     | 0.44844782E-03 | 0.24151653E+03 |   30.639
 BASOPT|        3     |       3     | 0.11669633E-02 | 0.58543919E+02 |   26.704
 BASOPT|        4     |       1     | 0.81914182E-03 | 0.22013565E+03 |   24.147
 BASOPT|        4     |       2     | 0.11227504E-02 | 0.13412874E+03 |   20.294
 BASOPT|        4     |       3     | 0.15171042E-02 | 0.55503217E+02 |   17.847
 BASOPT|        5     |       1     | 0.52364628E-03 | 0.36003652E+03 |   23.911
 BASOPT|        5     |       2     | 0.69038258E-03 | 0.26027716E+03 |   19.720
 BASOPT|        5     |       3     | 0.10493160E-02 | 0.12050851E+03 |   17.566
 BASOPT|        6     |       1     | 0.92880213E-03 | 0.80414261E+03 |   33.392
 BASOPT|        6     |       2     | 0.13123884E-02 | 0.39533880E+03 |   28.273
 BASOPT|        6     |       3     | 0.19502642E-02 | 0.15393263E+03 |   24.846
 BASOPT| -----------------------------------------------------------------------
 BASOPT| Total residuum value: -.22965735E+04

 BASOPT| Information at iteration number:    1400
 BASOPT| Training set | Combination | Rho difference | Condition num. | Time
 BASOPT| -----------------------------------------------------------------------
 BASOPT|        1     |       1     | 0.15172306E-02 | 0.39422459E+03 |  114.275
 BASOPT|        1     |       2     | 0.24626542E-02 | 0.23016992E+03 |   80.841
 BASOPT|        1     |       3     | 0.28022560E-02 | 0.10064732E+03 |   66.461
 BASOPT|        2     |       1     | 0.14131675E-02 | 0.50357972E+03 |   85.262
 BASOPT|        2     |       2     | 0.19428570E-02 | 0.37502076E+03 |   64.593
 BASOPT|        2     |       3     | 0.29847588E-02 | 0.14049712E+03 |   56.475
 BASOPT|        3     |       1     | 0.28750968E-03 | 0.76377959E+03 |   47.066
 BASOPT|        3     |       2     | 0.44820707E-03 | 0.24004387E+03 |   33.028
 BASOPT|        3     |       3     | 0.11604623E-02 | 0.58498594E+02 |   28.783
 BASOPT|        4     |       1     | 0.81895556E-03 | 0.21826986E+03 |   26.027
 BASOPT|        4     |       2     | 0.11238672E-02 | 0.13231026E+03 |   21.873
 BASOPT|        4     |       3     | 0.15241430E-02 | 0.55189993E+02 |   19.237
 BASOPT|        5     |       1     | 0.52253717E-03 | 0.35048504E+03 |   25.772
 BASOPT|        5     |       2     | 0.68906809E-03 | 0.25335374E+03 |   21.255
 BASOPT|        5     |       3     | 0.10524148E-02 | 0.11985471E+03 |   18.932
 BASOPT|        6     |       1     | 0.92809135E-03 | 0.77527043E+03 |   35.989
 BASOPT|        6     |       2     | 0.13103148E-02 | 0.38313201E+03 |   30.473
 BASOPT|        6     |       3     | 0.19639708E-02 | 0.15292423E+03 |   26.779
 BASOPT| -----------------------------------------------------------------------
 BASOPT| Total residuum value: -.22965769E+04

 BASOPT| Information at iteration number:    1500
 BASOPT| Training set | Combination | Rho difference | Condition num. | Time
 BASOPT| -----------------------------------------------------------------------
 BASOPT|        1     |       1     | 0.15145486E-02 | 0.39705534E+03 |  122.506
 BASOPT|        1     |       2     | 0.24583589E-02 | 0.22935092E+03 |   86.677
 BASOPT|        1     |       3     | 0.28025512E-02 | 0.10028065E+03 |   71.272
 BASOPT|        2     |       1     | 0.14112142E-02 | 0.50135326E+03 |   91.423
 BASOPT|        2     |       2     | 0.19409098E-02 | 0.37310447E+03 |   69.258
 BASOPT|        2     |       3     | 0.29886171E-02 | 0.14028272E+03 |   60.554
 BASOPT|        3     |       1     | 0.28788200E-03 | 0.73501537E+03 |   50.464
 BASOPT|        3     |       2     | 0.44889863E-03 | 0.23945277E+03 |   35.415
 BASOPT|        3     |       3     | 0.11600545E-02 | 0.58642983E+02 |   30.861
 BASOPT|        4     |       1     | 0.81939447E-03 | 0.21832846E+03 |   27.906
 BASOPT|        4     |       2     | 0.11244760E-02 | 0.13176506E+03 |   23.450
 BASOPT|        4     |       3     | 0.15275117E-02 | 0.54968386E+02 |   20.626
 BASOPT|        5     |       1     | 0.52328857E-03 | 0.34531601E+03 |   27.634
 BASOPT|        5     |       2     | 0.68982385E-03 | 0.24964927E+03 |   22.788
 BASOPT|        5     |       3     | 0.10559206E-02 | 0.11966523E+03 |   20.297
 BASOPT|        6     |       1     | 0.92842978E-03 | 0.75878223E+03 |   38.584
 BASOPT|        6     |       2     | 0.13098702E-02 | 0.37694903E+03 |   32.675
 BASOPT|        6     |       3     | 0.19705078E-02 | 0.15254941E+03 |   28.710
 BASOPT| -----------------------------------------------------------------------
 BASOPT| Total residuum value: -.22965786E+04

 BASOPT| Information at iteration number:    1600
 BASOPT| Training set | Combination | Rho difference | Condition num. | Time
 BASOPT| -----------------------------------------------------------------------
 BASOPT|        1     |       1     | 0.15165225E-02 | 0.39835466E+03 |  130.780
 BASOPT|        1     |       2     | 0.24599548E-02 | 0.22898415E+03 |   92.516
 BASOPT|        1     |       3     | 0.28062040E-02 | 0.10013564E+03 |   76.084
 BASOPT|        2     |       1     | 0.14149377E-02 | 0.49990117E+03 |   97.599
 BASOPT|        2     |       2     | 0.19444839E-02 | 0.37197801E+03 |   73.925
 BASOPT|        2     |       3     | 0.29969220E-02 | 0.14000264E+03 |   64.629
 BASOPT|        3     |       1     | 0.28741182E-03 | 0.72630225E+03 |   53.857
 BASOPT|        3     |       2     | 0.44903638E-03 | 0.23933204E+03 |   37.804
 BASOPT|        3     |       3     | 0.11560247E-02 | 0.58693643E+02 |   32.938
 BASOPT|        4     |       1     | 0.81929059E-03 | 0.21841725E+03 |   29.785
 BASOPT|        4     |       2     | 0.11242057E-02 | 0.13158341E+03 |   25.030
 BASOPT|        4     |       3     | 0.15291099E-02 | 0.54830032E+02 |   22.014
 BASOPT|        5     |       1     | 0.52333653E-03 | 0.34363297E+03 |   29.496
 BASOPT|        5     |       2     | 0.68953620E-03 | 0.24842246E+03 |   24.324
 BASOPT|        5     |       3     | 0.10560312E-02 | 0.11947705E+03 |   21.664
 BASOPT|        6     |       1     | 0.92866274E-03 | 0.75329068E+03 |   41.182
 BASOPT|        6     |       2     | 0.13102457E-02 | 0.37499938E+03 |   34.874
 BASOPT|        6     |       3     | 0.19764506E-02 | 0.15222342E+03 |   30.642
 BASOPT| -----------------------------------------------------------------------
 BASOPT| Total residuum value: -.22965791E+04

 BASOPT| Information at iteration number:    1700
 BASOPT| Training set | Combination | Rho difference | Condition num. | Time
 BASOPT| -----------------------------------------------------------------------
 BASOPT|        1     |       1     | 0.15141357E-02 | 0.40174576E+03 |  139.068
 BASOPT|        1     |       2     | 0.24571650E-02 | 0.22870662E+03 |   98.350
 BASOPT|        1     |       3     | 0.28071217E-02 | 0.99936601E+02 |   80.893
 BASOPT|        2     |       1     | 0.14085150E-02 | 0.50163677E+03 |  103.763
 BASOPT|        2     |       2     | 0.19381875E-02 | 0.37285622E+03 |   78.593
 BASOPT|        2     |       3     | 0.29886427E-02 | 0.13999700E+03 |   68.704
 BASOPT|        3     |       1     | 0.28596303E-03 | 0.71128940E+03 |   57.249
 BASOPT|        3     |       2     | 0.44896078E-03 | 0.23944079E+03 |   40.193
 BASOPT|        3     |       3     | 0.11696905E-02 | 0.58803279E+02 |   35.015
 BASOPT|        4     |       1     | 0.81715111E-03 | 0.21880032E+03 |   31.664
 BASOPT|        4     |       2     | 0.11219125E-02 | 0.13168830E+03 |   26.609
 BASOPT|        4     |       3     | 0.15267231E-02 | 0.54593559E+02 |   23.408
 BASOPT|        5     |       1     | 0.52060877E-03 | 0.34212941E+03 |   31.359
 BASOPT|        5     |       2     | 0.68630595E-03 | 0.24734166E+03 |   25.863
 BASOPT|        5     |       3     | 0.10513122E-02 | 0.11949391E+03 |   23.030
 BASOPT|        6     |       1     | 0.92267952E-03 | 0.74967506E+03 |   43.779
 BASOPT|        6     |       2     | 0.13018918E-02 | 0.37336022E+03 |   37.077
 BASOPT|        6     |       3     | 0.19694939E-02 | 0.15212984E+03 |   32.574
 BASOPT| -----------------------------------------------------------------------
 BASOPT| Total residuum value: -.22965806E+04

 BASOPT| Information at iteration number:    1800
 BASOPT| Training set | Combination | Rho difference | Condition num. | Time
 BASOPT| -----------------------------------------------------------------------
 BASOPT|        1     |       1     | 0.15141931E-02 | 0.40428065E+03 |  147.349
 BASOPT|        1     |       2     | 0.24575305E-02 | 0.22825196E+03 |  104.188
 BASOPT|        1     |       3     | 0.28074950E-02 | 0.99987741E+02 |   85.702
 BASOPT|        2     |       1     | 0.14063373E-02 | 0.50181797E+03 |  109.932
 BASOPT|        2     |       2     | 0.19351168E-02 | 0.37278112E+03 |   83.261
 BASOPT|        2     |       3     | 0.29773879E-02 | 0.13987800E+03 |   72.780
 BASOPT|        3     |       1     | 0.28532422E-03 | 0.69455866E+03 |   60.642
 BASOPT|        3     |       2     | 0.44824677E-03 | 0.23961935E+03 |   42.581
 BASOPT|        3     |       3     | 0.11893414E-02 | 0.58936217E+02 |   37.094
 BASOPT|        4     |       1     | 0.81650760E-03 | 0.21904812E+03 |   33.543
 BASOPT|        4     |       2     | 0.11213239E-02 | 0.13176059E+03 |   28.188
 BASOPT|        4     |       3     | 0.15250352E-02 | 0.54454932E+02 |   24.802
 BASOPT|        5     |       1     | 0.51943524E-03 | 0.34053021E+03 |   33.221
 BASOPT|        5     |       2     | 0.68445041E-03 | 0.24631360E+03 |   27.400
 BASOPT|        5     |       3     | 0.10477251E-02 | 0.11937304E+03 |   24.399
 BASOPT|        6     |       1     | 0.91975306E-03 | 0.74532081E+03 |   46.376
 BASOPT|        6     |       2     | 0.12967249E-02 | 0.37178522E+03 |   39.276
 BASOPT|        6     |       3     | 0.19612924E-02 | 0.15187580E+03 |   34.506
 BASOPT| -----------------------------------------------------------------------
 BASOPT| Total residuum value: -.22965817E+04

 BASOPT| Information at iteration number:    1900
 BASOPT| Training set | Combination | Rho difference | Condition num. | Time
 BASOPT| -----------------------------------------------------------------------
 BASOPT|        1     |       1     | 0.15151482E-02 | 0.40524494E+03 |  155.629
 BASOPT|        1     |       2     | 0.24592876E-02 | 0.22739622E+03 |  110.026
 BASOPT|        1     |       3     | 0.28097171E-02 | 0.99978552E+02 |   90.511
 BASOPT|        2     |       1     | 0.14041875E-02 | 0.50037832E+03 |  116.099
 BASOPT|        2     |       2     | 0.19318958E-02 | 0.37153395E+03 |   87.927
 BASOPT|        2     |       3     | 0.29695555E-02 | 0.13944887E+03 |   76.856
 BASOPT|        3     |       1     | 0.28660013E-03 | 0.67268619E+03 |   64.034
 BASOPT|        3     |       2     | 0.44985384E-03 | 0.23957156E+03 |   44.970
 BASOPT|        3     |       3     | 0.12000496E-02 | 0.58996585E+02 |   39.171
 BASOPT|        4     |       1     | 0.81669123E-03 | 0.21867244E+03 |   35.423
 BASOPT|        4     |       2     | 0.11214248E-02 | 0.13141939E+03 |   29.765
 BASOPT|        4     |       3     | 0.15234109E-02 | 0.54284869E+02 |   26.195
 BASOPT|        5     |       1     | 0.51853175E-03 | 0.33874229E+03 |   35.084
 BASOPT|        5     |       2     | 0.68280214E-03 | 0.24504762E+03 |   28.935
 BASOPT|        5     |       3     | 0.10443943E-02 | 0.11915261E+03 |   25.766
 BASOPT|        6     |       1     | 0.91656605E-03 | 0.74037056E+03 |   48.972
 BASOPT|        6     |       2     | 0.12926348E-02 | 0.37000777E+03 |   41.476
 BASOPT|        6     |       3     | 0.19528017E-02 | 0.15157559E+03 |   36.437
 BASOPT| -----------------------------------------------------------------------
 BASOPT| Total residuum value: -.22965828E+04

 BASOPT| Information at iteration number:    2000
 BASOPT| Training set | Combination | Rho difference | Condition num. | Time
 BASOPT| -----------------------------------------------------------------------
 BASOPT|        1     |       1     | 0.15160926E-02 | 0.40522906E+03 |  163.888
 BASOPT|        1     |       2     | 0.24608021E-02 | 0.22698793E+03 |  115.863
 BASOPT|        1     |       3     | 0.28123207E-02 | 0.99941479E+02 |   95.320
 BASOPT|        2     |       1     | 0.14035403E-02 | 0.49986819E+03 |  122.262
 BASOPT|        2     |       2     | 0.19311810E-02 | 0.37093967E+03 |   92.595
 BASOPT|        2     |       3     | 0.29714745E-02 | 0.13925764E+03 |   80.941
 BASOPT|        3     |       1     | 0.28766942E-03 | 0.66438058E+03 |   67.428
 BASOPT|        3     |       2     | 0.45078362E-03 | 0.23955356E+03 |   47.359
 BASOPT|        3     |       3     | 0.11976900E-02 | 0.59009662E+02 |   41.248
 BASOPT|        4     |       1     | 0.81608120E-03 | 0.21837869E+03 |   37.302
 BASOPT|        4     |       2     | 0.11206412E-02 | 0.13117416E+03 |   31.343
 BASOPT|        4     |       3     | 0.15224849E-02 | 0.54203335E+02 |   27.584
 BASOPT|        5     |       1     | 0.51770787E-03 | 0.33813746E+03 |   36.947
 BASOPT|        5     |       2     | 0.68163001E-03 | 0.24452682E+03 |   30.471
 BASOPT|        5     |       3     | 0.10421421E-02 | 0.11904066E+03 |   27.131
 BASOPT|        6     |       1     | 0.91415271E-03 | 0.73958389E+03 |   51.568
 BASOPT|        6     |       2     | 0.12899747E-02 | 0.36938538E+03 |   43.678
 BASOPT|        6     |       3     | 0.19515893E-02 | 0.15142255E+03 |   38.369
 BASOPT| -----------------------------------------------------------------------
 BASOPT| Total residuum value: -.22965832E+04

 BASOPT| Information at iteration number:    2100
 BASOPT| Training set | Combination | Rho difference | Condition num. | Time
 BASOPT| -----------------------------------------------------------------------
 BASOPT|        1     |       1     | 0.15173808E-02 | 0.40527479E+03 |  172.165
 BASOPT|        1     |       2     | 0.24620521E-02 | 0.22625729E+03 |  121.698
 BASOPT|        1     |       3     | 0.28142498E-02 | 0.99941290E+02 |  100.131
 BASOPT|        2     |       1     | 0.14048507E-02 | 0.49808111E+03 |  128.422
 BASOPT|        2     |       2     | 0.19304575E-02 | 0.36931039E+03 |   97.260
 BASOPT|        2     |       3     | 0.29717737E-02 | 0.13899041E+03 |   85.016
 BASOPT|        3     |       1     | 0.28719953E-03 | 0.65004117E+03 |   70.817
 BASOPT|        3     |       2     | 0.45029969E-03 | 0.23947183E+03 |   49.746
 BASOPT|        3     |       3     | 0.12008202E-02 | 0.59024708E+02 |   43.326
 BASOPT|        4     |       1     | 0.81702850E-03 | 0.21817639E+03 |   39.181
 BASOPT|        4     |       2     | 0.11214252E-02 | 0.13085711E+03 |   32.921
 BASOPT|        4     |       3     | 0.15228556E-02 | 0.54072089E+02 |   28.972
 BASOPT|        5     |       1     | 0.51801048E-03 | 0.33675068E+03 |   38.810
 BASOPT|        5     |       2     | 0.68101178E-03 | 0.24347830E+03 |   32.006
 BASOPT|        5     |       3     | 0.10405477E-02 | 0.11888589E+03 |   28.498
 BASOPT|        6     |       1     | 0.91506589E-03 | 0.73702162E+03 |   54.164
 BASOPT|        6     |       2     | 0.12887935E-02 | 0.36814485E+03 |   45.878
 BASOPT|        6     |       3     | 0.19504756E-02 | 0.15118420E+03 |   40.300
 BASOPT| -----------------------------------------------------------------------
 BASOPT| Total residuum value: -.22965837E+04

 BASOPT| Information at iteration number:    2200
 BASOPT| Training set | Combination | Rho difference | Condition num. | Time
 BASOPT| -----------------------------------------------------------------------
 BASOPT|        1     |       1     | 0.15163459E-02 | 0.40488583E+03 |  180.401
 BASOPT|        1     |       2     | 0.24610979E-02 | 0.22541854E+03 |  127.538
 BASOPT|        1     |       3     | 0.28136901E-02 | 0.99809260E+02 |  104.940
 BASOPT|        2     |       1     | 0.14003085E-02 | 0.49544167E+03 |  134.583
 BASOPT|        2     |       2     | 0.19246546E-02 | 0.36707649E+03 |  101.927
 BASOPT|        2     |       3     | 0.29650738E-02 | 0.13854600E+03 |   89.092
 BASOPT|        3     |       1     | 0.28672927E-03 | 0.64168120E+03 |   74.216
 BASOPT|        3     |       2     | 0.44931017E-03 | 0.23939265E+03 |   52.133
 BASOPT|        3     |       3     | 0.12041555E-02 | 0.59054453E+02 |   45.402
 BASOPT|        4     |       1     | 0.81531727E-03 | 0.21771985E+03 |   41.059
 BASOPT|        4     |       2     | 0.11198566E-02 | 0.13042553E+03 |   34.499
 BASOPT|        4     |       3     | 0.15215872E-02 | 0.53891363E+02 |   30.358
 BASOPT|        5     |       1     | 0.51615224E-03 | 0.33524753E+03 |   40.673
 BASOPT|        5     |       2     | 0.67861020E-03 | 0.24225909E+03 |   33.540
 BASOPT|        5     |       3     | 0.10378442E-02 | 0.11860804E+03 |   29.863
 BASOPT|        6     |       1     | 0.91097242E-03 | 0.73476408E+03 |   56.759
 BASOPT|        6     |       2     | 0.12833983E-02 | 0.36654136E+03 |   48.077
 BASOPT|        6     |       3     | 0.19454265E-02 | 0.15079285E+03 |   42.232
 BASOPT| -----------------------------------------------------------------------
 BASOPT| Total residuum value: -.22965846E+04

 BASOPT| Information at iteration number:    2300
 BASOPT| Training set | Combination | Rho difference | Condition num. | Time
 BASOPT| -----------------------------------------------------------------------
 BASOPT|        1     |       1     | 0.15157953E-02 | 0.40378919E+03 |  188.679
 BASOPT|        1     |       2     | 0.24609677E-02 | 0.22463019E+03 |  133.376
 BASOPT|        1     |       3     | 0.28141013E-02 | 0.99684441E+02 |  109.749
 BASOPT|        2     |       1     | 0.13987216E-02 | 0.49384455E+03 |  140.747
 BASOPT|        2     |       2     | 0.19220041E-02 | 0.36542278E+03 |  106.590
 BASOPT|        2     |       3     | 0.29617214E-02 | 0.13822465E+03 |   93.165
 BASOPT|        3     |       1     | 0.28636752E-03 | 0.63130887E+03 |   77.605
 BASOPT|        3     |       2     | 0.44872468E-03 | 0.23943198E+03 |   54.520
 BASOPT|        3     |       3     | 0.12089165E-02 | 0.59085121E+02 |   47.480
 BASOPT|        4     |       1     | 0.81511472E-03 | 0.21707057E+03 |   42.937
 BASOPT|        4     |       2     | 0.11197758E-02 | 0.12996211E+03 |   36.076
 BASOPT|        4     |       3     | 0.15211244E-02 | 0.53772082E+02 |   31.746
 BASOPT|        5     |       1     | 0.51583754E-03 | 0.33376568E+03 |   42.536
 BASOPT|        5     |       2     | 0.67781687E-03 | 0.24102722E+03 |   35.075
 BASOPT|        5     |       3     | 0.10362000E-02 | 0.11836968E+03 |   31.229
 BASOPT|        6     |       1     | 0.91047432E-03 | 0.73248903E+03 |   59.353
 BASOPT|        6     |       2     | 0.12810197E-02 | 0.36475396E+03 |   50.276
 BASOPT|        6     |       3     | 0.19426900E-02 | 0.15048687E+03 |   44.163
 BASOPT| -----------------------------------------------------------------------
 BASOPT| Total residuum value: -.22965851E+04

 BASOPT| Information at iteration number:    2400
 BASOPT| Training set | Combination | Rho difference | Condition num. | Time
 BASOPT| -----------------------------------------------------------------------
 BASOPT|        1     |       1     | 0.15168774E-02 | 0.40359503E+03 |  196.952
 BASOPT|        1     |       2     | 0.24619984E-02 | 0.22414219E+03 |  139.219
 BASOPT|        1     |       3     | 0.28170995E-02 | 0.99331549E+02 |  114.559
 BASOPT|        2     |       1     | 0.13995308E-02 | 0.49282567E+03 |  146.912
 BASOPT|        2     |       2     | 0.19228430E-02 | 0.36435900E+03 |  111.253
 BASOPT|        2     |       3     | 0.29627261E-02 | 0.13811394E+03 |   97.243
 BASOPT|        3     |       1     | 0.28642700E-03 | 0.62126564E+03 |   81.003
 BASOPT|        3     |       2     | 0.44863298E-03 | 0.23949850E+03 |   56.908
 BASOPT|        3     |       3     | 0.12101093E-02 | 0.59144179E+02 |   49.558
 BASOPT|        4     |       1     | 0.81623507E-03 | 0.21672136E+03 |   44.815
 BASOPT|        4     |       2     | 0.11211569E-02 | 0.12958157E+03 |   37.654
 BASOPT|        4     |       3     | 0.15234207E-02 | 0.53593945E+02 |   33.133
 BASOPT|        5     |       1     | 0.51702603E-03 | 0.33243521E+03 |   44.399
 BASOPT|        5     |       2     | 0.67899303E-03 | 0.23992509E+03 |   36.610
 BASOPT|        5     |       3     | 0.10380735E-02 | 0.11828510E+03 |   32.596
 BASOPT|        6     |       1     | 0.91192770E-03 | 0.72931573E+03 |   61.949
 BASOPT|        6     |       2     | 0.12827486E-02 | 0.36306207E+03 |   52.477
 BASOPT|        6     |       3     | 0.19481018E-02 | 0.15040583E+03 |   46.094
 BASOPT| -----------------------------------------------------------------------
 BASOPT| Total residuum value: -.22965857E+04

 BASOPT| Information at iteration number:    2500
 BASOPT| Training set | Combination | Rho difference | Condition num. | Time
 BASOPT| -----------------------------------------------------------------------
 BASOPT|        1     |       1     | 0.15157774E-02 | 0.40325880E+03 |  205.190
 BASOPT|        1     |       2     | 0.24611158E-02 | 0.22309352E+03 |  145.059
 BASOPT|        1     |       3     | 0.28184265E-02 | 0.99003015E+02 |  119.366
 BASOPT|        2     |       1     | 0.13960988E-02 | 0.49226035E+03 |  153.075
 BASOPT|        2     |       2     | 0.19201644E-02 | 0.36314536E+03 |  115.915
 BASOPT|        2     |       3     | 0.29625285E-02 | 0.13780006E+03 |  101.323
 BASOPT|        3     |       1     | 0.28587142E-03 | 0.60572267E+03 |   84.396
 BASOPT|        3     |       2     | 0.44809585E-03 | 0.23976601E+03 |   59.296
 BASOPT|        3     |       3     | 0.12107558E-02 | 0.59163233E+02 |   51.638
 BASOPT|        4     |       1     | 0.81613110E-03 | 0.21579524E+03 |   46.695
 BASOPT|        4     |       2     | 0.11214809E-02 | 0.12900554E+03 |   39.232
 BASOPT|        4     |       3     | 0.15257841E-02 | 0.53359224E+02 |   34.520
 BASOPT|        5     |       1     | 0.51708034E-03 | 0.33048729E+03 |   46.262
 BASOPT|        5     |       2     | 0.67921696E-03 | 0.23828361E+03 |   38.146
 BASOPT|        5     |       3     | 0.10398298E-02 | 0.11803487E+03 |   33.962
 BASOPT|        6     |       1     | 0.90913405E-03 | 0.72618214E+03 |   64.547
 BASOPT|        6     |       2     | 0.12791993E-02 | 0.36052198E+03 |   54.677
 BASOPT|        6     |       3     | 0.19520905E-02 | 0.15004807E+03 |   48.026
 BASOPT| -----------------------------------------------------------------------
 BASOPT| Total residuum value: -.22965866E+04

 BASOPT| Information at iteration number:    2600
 BASOPT| Training set | Combination | Rho difference | Condition num. | Time
 BASOPT| -----------------------------------------------------------------------
 BASOPT|        1     |       1     | 0.15147574E-02 | 0.40321307E+03 |  213.428
 BASOPT|        1     |       2     | 0.24596837E-02 | 0.22139948E+03 |  150.895
 BASOPT|        1     |       3     | 0.28204463E-02 | 0.98644203E+02 |  124.176
 BASOPT|        2     |       1     | 0.13927510E-02 | 0.48941438E+03 |  159.236
 BASOPT|        2     |       2     | 0.19156942E-02 | 0.35989846E+03 |  120.578
 BASOPT|        2     |       3     | 0.29625153E-02 | 0.13717894E+03 |  105.399
 BASOPT|        3     |       1     | 0.28430483E-03 | 0.58526711E+03 |   87.795
 BASOPT|        3     |       2     | 0.44570574E-03 | 0.24001790E+03 |   61.684
 BASOPT|        3     |       3     | 0.12163356E-02 | 0.59172645E+02 |   53.716
 BASOPT|        4     |       1     | 0.81617194E-03 | 0.21476038E+03 |   48.574
 BASOPT|        4     |       2     | 0.11218755E-02 | 0.12812111E+03 |   40.810
 BASOPT|        4     |       3     | 0.15285479E-02 | 0.53059323E+02 |   35.906
 BASOPT|        5     |       1     | 0.51707542E-03 | 0.32756789E+03 |   48.123
 BASOPT|        5     |       2     | 0.67873317E-03 | 0.23579172E+03 |   39.683
 BASOPT|        5     |       3     | 0.10392810E-02 | 0.11754715E+03 |   35.328
 BASOPT|        6     |       1     | 0.90717950E-03 | 0.72016108E+03 |   67.146
 BASOPT|        6     |       2     | 0.12744334E-02 | 0.35697921E+03 |   56.878
 BASOPT|        6     |       3     | 0.19542513E-02 | 0.14932516E+03 |   49.957
 BASOPT| -----------------------------------------------------------------------
 BASOPT| Total residuum value: -.22965875E+04

 BASOPT| Information at iteration number:    2700
 BASOPT| Training set | Combination | Rho difference | Condition num. | Time
 BASOPT| -----------------------------------------------------------------------
 BASOPT|        1     |       1     | 0.15106647E-02 | 0.40333950E+03 |  221.691
 BASOPT|        1     |       2     | 0.24557639E-02 | 0.22086365E+03 |  156.739
 BASOPT|        1     |       3     | 0.28162724E-02 | 0.98537830E+02 |  128.989
 BASOPT|        2     |       1     | 0.13859163E-02 | 0.48852477E+03 |  165.398
 BASOPT|        2     |       2     | 0.19078767E-02 | 0.35879176E+03 |  125.241
 BASOPT|        2     |       3     | 0.29552840E-02 | 0.13692539E+03 |  109.474
 BASOPT|        3     |       1     | 0.28448665E-03 | 0.58081157E+03 |   91.187
 BASOPT|        3     |       2     | 0.44532168E-03 | 0.24011929E+03 |   64.073
 BASOPT|        3     |       3     | 0.12188505E-02 | 0.59222723E+02 |   55.793
 BASOPT|        4     |       1     | 0.81537609E-03 | 0.21448916E+03 |   50.452
 BASOPT|        4     |       2     | 0.11217433E-02 | 0.12788061E+03 |   42.388
 BASOPT|        4     |       3     | 0.15296107E-02 | 0.52981373E+02 |   37.293
 BASOPT|        5     |       1     | 0.51655656E-03 | 0.32661141E+03 |   49.985
 BASOPT|        5     |       2     | 0.67808905E-03 | 0.23497396E+03 |   41.217
 BASOPT|        5     |       3     | 0.10396723E-02 | 0.11735043E+03 |   36.693
 BASOPT|        6     |       1     | 0.90496848E-03 | 0.71960671E+03 |   69.744
 BASOPT|        6     |       2     | 0.12696742E-02 | 0.35582413E+03 |   59.078
 BASOPT|        6     |       3     | 0.19520386E-02 | 0.14904881E+03 |   51.887
 BASOPT| -----------------------------------------------------------------------
 BASOPT| Total residuum value: -.22965873E+04

 BASOPT| Information at iteration number:    2800
 BASOPT| Training set | Combination | Rho difference | Condition num. | Time
 BASOPT| -----------------------------------------------------------------------
 BASOPT|        1     |       1     | 0.15137618E-02 | 0.40299352E+03 |  229.976
 BASOPT|        1     |       2     | 0.24586911E-02 | 0.22031930E+03 |  162.576
 BASOPT|        1     |       3     | 0.28219720E-02 | 0.98284229E+02 |  133.797
 BASOPT|        2     |       1     | 0.13908506E-02 | 0.48631924E+03 |  171.562
 BASOPT|        2     |       2     | 0.19123774E-02 | 0.35694428E+03 |  129.903
 BASOPT|        2     |       3     | 0.29651031E-02 | 0.13673052E+03 |  113.550
 BASOPT|        3     |       1     | 0.28331511E-03 | 0.57762140E+03 |   94.582
 BASOPT|        3     |       2     | 0.44507472E-03 | 0.24021128E+03 |   66.461
 BASOPT|        3     |       3     | 0.12170505E-02 | 0.59279096E+02 |   57.872
 BASOPT|        4     |       1     | 0.81638743E-03 | 0.21420080E+03 |   52.331
 BASOPT|        4     |       2     | 0.11226034E-02 | 0.12760424E+03 |   43.965
 BASOPT|        4     |       3     | 0.15322208E-02 | 0.52829545E+02 |   38.679
 BASOPT|        5     |       1     | 0.51735156E-03 | 0.32536530E+03 |   51.848
 BASOPT|        5     |       2     | 0.67850525E-03 | 0.23394699E+03 |   42.750
 BASOPT|        5     |       3     | 0.10396955E-02 | 0.11717698E+03 |   38.059
 BASOPT|        6     |       1     | 0.90739797E-03 | 0.71649757E+03 |   72.340
 BASOPT|        6     |       2     | 0.12719831E-02 | 0.35426938E+03 |   61.278
 BASOPT|        6     |       3     | 0.19611197E-02 | 0.14877720E+03 |   53.818
 BASOPT| -----------------------------------------------------------------------
 BASOPT| Total residuum value: -.22965882E+04

 BASOPT| Information at iteration number:    2900
 BASOPT| Training set | Combination | Rho difference | Condition num. | Time
 BASOPT| -----------------------------------------------------------------------
 BASOPT|        1     |       1     | 0.15130117E-02 | 0.40259397E+03 |  238.271
 BASOPT|        1     |       2     | 0.24573825E-02 | 0.21954438E+03 |  168.413
 BASOPT|        1     |       3     | 0.28223079E-02 | 0.98066645E+02 |  138.604
 BASOPT|        2     |       1     | 0.13901927E-02 | 0.48425223E+03 |  177.721
 BASOPT|        2     |       2     | 0.19105737E-02 | 0.35513048E+03 |  134.566
 BASOPT|        2     |       3     | 0.29634561E-02 | 0.13651462E+03 |  117.626
 BASOPT|        3     |       1     | 0.28192652E-03 | 0.56924787E+03 |   97.978
 BASOPT|        3     |       2     | 0.44344399E-03 | 0.24028385E+03 |   68.848
 BASOPT|        3     |       3     | 0.12223462E-02 | 0.59323620E+02 |   59.951
 BASOPT|        4     |       1     | 0.81638491E-03 | 0.21370221E+03 |   54.209
 BASOPT|        4     |       2     | 0.11228439E-02 | 0.12725447E+03 |   45.544
 BASOPT|        4     |       3     | 0.15332293E-02 | 0.52673085E+02 |   40.065
 BASOPT|        5     |       1     | 0.51739976E-03 | 0.32397399E+03 |   53.711
 BASOPT|        5     |       2     | 0.67824904E-03 | 0.23284598E+03 |   44.283
 BASOPT|        5     |       3     | 0.10395555E-02 | 0.11702163E+03 |   39.424
 BASOPT|        6     |       1     | 0.90621434E-03 | 0.71370083E+03 |   74.936
 BASOPT|        6     |       2     | 0.12693913E-02 | 0.35264070E+03 |   63.478
 BASOPT|        6     |       3     | 0.19604582E-02 | 0.14855791E+03 |   55.749
 BASOPT| -----------------------------------------------------------------------
 BASOPT| Total residuum value: -.22965885E+04

 BASOPT| Information at iteration number:    3000
 BASOPT| Training set | Combination | Rho difference | Condition num. | Time
 BASOPT| -----------------------------------------------------------------------
 BASOPT|        1     |       1     | 0.15127254E-02 | 0.40173386E+03 |  246.523
 BASOPT|        1     |       2     | 0.24570064E-02 | 0.21880920E+03 |  174.253
 BASOPT|        1     |       3     | 0.28238317E-02 | 0.97853865E+02 |  143.417
 BASOPT|        2     |       1     | 0.13889182E-02 | 0.48193459E+03 |  183.883
 BASOPT|        2     |       2     | 0.19080023E-02 | 0.35310289E+03 |  139.228
 BASOPT|        2     |       3     | 0.29609228E-02 | 0.13642635E+03 |  121.703
 BASOPT|        3     |       1     | 0.28272609E-03 | 0.56600074E+03 |  101.373
 BASOPT|        3     |       2     | 0.44389969E-03 | 0.24031208E+03 |   71.236
 BASOPT|        3     |       3     | 0.12267831E-02 | 0.59390186E+02 |   62.029
 BASOPT|        4     |       1     | 0.81769209E-03 | 0.21319613E+03 |   56.087
 BASOPT|        4     |       2     | 0.11241746E-02 | 0.12697129E+03 |   47.122
 BASOPT|        4     |       3     | 0.15343276E-02 | 0.52547463E+02 |   41.451
 BASOPT|        5     |       1     | 0.51858452E-03 | 0.32278088E+03 |   55.573
 BASOPT|        5     |       2     | 0.67897924E-03 | 0.23179613E+03 |   45.816
 BASOPT|        5     |       3     | 0.10397905E-02 | 0.11697777E+03 |   40.789
 BASOPT|        6     |       1     | 0.90669143E-03 | 0.71289887E+03 |   77.534
 BASOPT|        6     |       2     | 0.12683026E-02 | 0.35117554E+03 |   65.679
 BASOPT|        6     |       3     | 0.19602602E-02 | 0.14855199E+03 |   57.679
 BASOPT| -----------------------------------------------------------------------
 BASOPT| Total residuum value: -.22965892E+04

 BASOPT| Information at iteration number:    3100
 BASOPT| Training set | Combination | Rho difference | Condition num. | Time
 BASOPT| -----------------------------------------------------------------------
 BASOPT|        1     |       1     | 0.15122695E-02 | 0.40104638E+03 |  254.762
 BASOPT|        1     |       2     | 0.24573501E-02 | 0.21779335E+03 |  180.092
 BASOPT|        1     |       3     | 0.28258153E-02 | 0.97561434E+02 |  148.233
 BASOPT|        2     |       1     | 0.13863495E-02 | 0.47886006E+03 |  190.040
 BASOPT|        2     |       2     | 0.19049346E-02 | 0.35035292E+03 |  143.891
 BASOPT|        2     |       3     | 0.29580148E-02 | 0.13628754E+03 |  125.780
 BASOPT|        3     |       1     | 0.28307717E-03 | 0.55882207E+03 |  104.766
 BASOPT|        3     |       2     | 0.44438888E-03 | 0.24045917E+03 |   73.627
 BASOPT|        3     |       3     | 0.12339084E-02 | 0.59487126E+02 |   64.108
 BASOPT|        4     |       1     | 0.81840494E-03 | 0.21265522E+03 |   57.966
 BASOPT|        4     |       2     | 0.11259335E-02 | 0.12655772E+03 |   48.700
 BASOPT|        4     |       3     | 0.15359467E-02 | 0.52419306E+02 |   42.839
 BASOPT|        5     |       1     | 0.51933665E-03 | 0.32055627E+03 |   57.437
 BASOPT|        5     |       2     | 0.67962370E-03 | 0.22998664E+03 |   47.350
 BASOPT|        5     |       3     | 0.10410253E-02 | 0.11687104E+03 |   42.159
 BASOPT|        6     |       1     | 0.90583751E-03 | 0.70960327E+03 |   80.146
 BASOPT|        6     |       2     | 0.12659684E-02 | 0.34846175E+03 |   67.879
 BASOPT|        6     |       3     | 0.19593045E-02 | 0.14847930E+03 |   59.611
 BASOPT| -----------------------------------------------------------------------
 BASOPT| Total residuum value: -.22965901E+04

 BASOPT| Information at iteration number:    3200
 BASOPT| Training set | Combination | Rho difference | Condition num. | Time
 BASOPT| -----------------------------------------------------------------------
 BASOPT|        1     |       1     | 0.15133083E-02 | 0.40095394E+03 |  263.002
 BASOPT|        1     |       2     | 0.24580025E-02 | 0.21778755E+03 |  185.930
 BASOPT|        1     |       3     | 0.28274517E-02 | 0.97449092E+02 |  153.046
 BASOPT|        2     |       1     | 0.13876388E-02 | 0.47767472E+03 |  196.200
 BASOPT|        2     |       2     | 0.19061276E-02 | 0.34941826E+03 |  148.554
 BASOPT|        2     |       3     | 0.29628161E-02 | 0.13635825E+03 |  129.857
 BASOPT|        3     |       1     | 0.28225323E-03 | 0.55663323E+03 |  108.160
 BASOPT|        3     |       2     | 0.44399608E-03 | 0.24051796E+03 |   76.017
 BASOPT|        3     |       3     | 0.12253961E-02 | 0.59564436E+02 |   66.187
 BASOPT|        4     |       1     | 0.81809573E-03 | 0.21279019E+03 |   59.844
 BASOPT|        4     |       2     | 0.11254052E-02 | 0.12652193E+03 |   50.277
 BASOPT|        4     |       3     | 0.15356630E-02 | 0.52396149E+02 |   44.225
 BASOPT|        5     |       1     | 0.51905419E-03 | 0.31991427E+03 |   59.299
 BASOPT|        5     |       2     | 0.67914744E-03 | 0.22946013E+03 |   48.884
 BASOPT|        5     |       3     | 0.10402318E-02 | 0.11691548E+03 |   43.526
 BASOPT|        6     |       1     | 0.90592878E-03 | 0.70786664E+03 |   82.742
 BASOPT|        6     |       2     | 0.12663180E-02 | 0.34772556E+03 |   70.079
 BASOPT|        6     |       3     | 0.19633489E-02 | 0.14855764E+03 |   61.542
 BASOPT| -----------------------------------------------------------------------
 BASOPT| Total residuum value: -.22965907E+04

 BASOPT| Information at iteration number:    3300
 BASOPT| Training set | Combination | Rho difference | Condition num. | Time
 BASOPT| -----------------------------------------------------------------------
 BASOPT|        1     |       1     | 0.15132701E-02 | 0.40014059E+03 |  271.242
 BASOPT|        1     |       2     | 0.24580924E-02 | 0.21674235E+03 |  191.768
 BASOPT|        1     |       3     | 0.28282842E-02 | 0.97260867E+02 |  157.863
 BASOPT|        2     |       1     | 0.13870076E-02 | 0.47369464E+03 |  202.360
 BASOPT|        2     |       2     | 0.19045065E-02 | 0.34602098E+03 |  153.217
 BASOPT|        2     |       3     | 0.29591737E-02 | 0.13611597E+03 |  133.934
 BASOPT|        3     |       1     | 0.28265321E-03 | 0.54790361E+03 |  111.557
 BASOPT|        3     |       2     | 0.44397422E-03 | 0.24058907E+03 |   78.408
 BASOPT|        3     |       3     | 0.12313139E-02 | 0.59624680E+02 |   68.267
 BASOPT|        4     |       1     | 0.81975459E-03 | 0.21214295E+03 |   61.722
 BASOPT|        4     |       2     | 0.11273258E-02 | 0.12613440E+03 |   51.855
 BASOPT|        4     |       3     | 0.15372394E-02 | 0.52272777E+02 |   45.611
 BASOPT|        5     |       1     | 0.52066561E-03 | 0.31779443E+03 |   61.162
 BASOPT|        5     |       2     | 0.68041451E-03 | 0.22769566E+03 |   50.419
 BASOPT|        5     |       3     | 0.10414386E-02 | 0.11678233E+03 |   44.893
 BASOPT|        6     |       1     | 0.90627245E-03 | 0.70477771E+03 |   85.345
 BASOPT|        6     |       2     | 0.12651621E-02 | 0.34525155E+03 |   72.281
 BASOPT|        6     |       3     | 0.19620776E-02 | 0.14845271E+03 |   63.473
 BASOPT| -----------------------------------------------------------------------
 BASOPT| Total residuum value: -.22965914E+04

 BASOPT| Information at iteration number:    3400
 BASOPT| Training set | Combination | Rho difference | Condition num. | Time
 BASOPT| -----------------------------------------------------------------------
 BASOPT|        1     |       1     | 0.15105261E-02 | 0.40150413E+03 |  279.488
 BASOPT|        1     |       2     | 0.24556903E-02 | 0.21644523E+03 |  197.605
 BASOPT|        1     |       3     | 0.28261063E-02 | 0.97487481E+02 |  162.677
 BASOPT|        2     |       1     | 0.13833255E-02 | 0.47161815E+03 |  208.518
 BASOPT|        2     |       2     | 0.18999106E-02 | 0.34395156E+03 |  157.880
 BASOPT|        2     |       3     | 0.29578496E-02 | 0.13605280E+03 |  138.009
 BASOPT|        3     |       1     | 0.28275804E-03 | 0.53883824E+03 |  114.952
 BASOPT|        3     |       2     | 0.44425571E-03 | 0.24065820E+03 |   80.797
 BASOPT|        3     |       3     | 0.12335729E-02 | 0.59668904E+02 |   70.346
 BASOPT|        4     |       1     | 0.81977755E-03 | 0.21266313E+03 |   63.601
 BASOPT|        4     |       2     | 0.11275446E-02 | 0.12626272E+03 |   53.433
 BASOPT|        4     |       3     | 0.15379527E-02 | 0.52316284E+02 |   46.998
 BASOPT|        5     |       1     | 0.52090428E-03 | 0.31672199E+03 |   63.024
 BASOPT|        5     |       2     | 0.68028305E-03 | 0.22680415E+03 |   51.955
 BASOPT|        5     |       3     | 0.10406024E-02 | 0.11671524E+03 |   46.260
 BASOPT|        6     |       1     | 0.90646769E-03 | 0.70395239E+03 |   87.939
 BASOPT|        6     |       2     | 0.12629141E-02 | 0.34426930E+03 |   74.481
 BASOPT|        6     |       3     | 0.19616900E-02 | 0.14827154E+03 |   65.404
 BASOPT| -----------------------------------------------------------------------
 BASOPT| Total residuum value: -.22965921E+04

 BASOPT| Information at iteration number:    3500
 BASOPT| Training set | Combination | Rho difference | Condition num. | Time
 BASOPT| -----------------------------------------------------------------------
 BASOPT|        1     |       1     | 0.15119491E-02 | 0.40139779E+03 |  287.724
 BASOPT|        1     |       2     | 0.24565267E-02 | 0.21596118E+03 |  203.442
 BASOPT|        1     |       3     | 0.28291720E-02 | 0.97476236E+02 |  167.494
 BASOPT|        2     |       1     | 0.13834399E-02 | 0.47029170E+03 |  214.676
 BASOPT|        2     |       2     | 0.19003403E-02 | 0.34256284E+03 |  162.542
 BASOPT|        2     |       3     | 0.29615559E-02 | 0.13639961E+03 |  142.086
 BASOPT|        3     |       1     | 0.28159141E-03 | 0.53220001E+03 |  118.348
 BASOPT|        3     |       2     | 0.44273049E-03 | 0.24060092E+03 |   83.187
 BASOPT|        3     |       3     | 0.12289914E-02 | 0.59716192E+02 |   72.425
 BASOPT|        4     |       1     | 0.81883957E-03 | 0.21260497E+03 |   65.480
 BASOPT|        4     |       2     | 0.11258354E-02 | 0.12620256E+03 |   55.009
 BASOPT|        4     |       3     | 0.15350489E-02 | 0.52338915E+02 |   48.386
 BASOPT|        5     |       1     | 0.51973065E-03 | 0.31633605E+03 |   64.887
 BASOPT|        5     |       2     | 0.67877037E-03 | 0.22635053E+03 |   53.490
 BASOPT|        5     |       3     | 0.10369275E-02 | 0.11693740E+03 |   47.625
 BASOPT|        6     |       1     | 0.90323406E-03 | 0.70308485E+03 |   90.535
 BASOPT|        6     |       2     | 0.12601858E-02 | 0.34381720E+03 |   76.681
 BASOPT|        6     |       3     | 0.19595137E-02 | 0.14859336E+03 |   67.335
 BASOPT| -----------------------------------------------------------------------
 BASOPT| Total residuum value: -.22965926E+04

 BASOPT| Information at iteration number:    3600
 BASOPT| Training set | Combination | Rho difference | Condition num. | Time
 BASOPT| -----------------------------------------------------------------------
 BASOPT|        1     |       1     | 0.15119448E-02 | 0.40140645E+03 |  295.969
 BASOPT|        1     |       2     | 0.24575022E-02 | 0.21523448E+03 |  209.279
 BASOPT|        1     |       3     | 0.28299028E-02 | 0.97505185E+02 |  172.307
 BASOPT|        2     |       1     | 0.13833587E-02 | 0.46704537E+03 |  220.835
 BASOPT|        2     |       2     | 0.19000375E-02 | 0.33973345E+03 |  167.204
 BASOPT|        2     |       3     | 0.29603243E-02 | 0.13621246E+03 |  146.162
 BASOPT|        3     |       1     | 0.28270044E-03 | 0.52748439E+03 |  121.741
 BASOPT|        3     |       2     | 0.44356783E-03 | 0.24049997E+03 |   85.578
 BASOPT|        3     |       3     | 0.12335907E-02 | 0.59711347E+02 |   74.504
 BASOPT|        4     |       1     | 0.81960262E-03 | 0.21243631E+03 |   67.360
 BASOPT|        4     |       2     | 0.11268115E-02 | 0.12608407E+03 |   56.586
 BASOPT|        4     |       3     | 0.15363942E-02 | 0.52294414E+02 |   49.772
 BASOPT|        5     |       1     | 0.52068162E-03 | 0.31507920E+03 |   66.750
 BASOPT|        5     |       2     | 0.67951138E-03 | 0.22527262E+03 |   55.025
 BASOPT|        5     |       3     | 0.10372927E-02 | 0.11680890E+03 |   48.992
 BASOPT|        6     |       1     | 0.90366776E-03 | 0.70228244E+03 |   93.132
 BASOPT|        6     |       2     | 0.12592833E-02 | 0.34243595E+03 |   78.882
 BASOPT|        6     |       3     | 0.19591514E-02 | 0.14839849E+03 |   69.265
 BASOPT| -----------------------------------------------------------------------
 BASOPT| Total residuum value: -.22965932E+04

 BASOPT| Information at iteration number:    3700
 BASOPT| Training set | Combination | Rho difference | Condition num. | Time
 BASOPT| -----------------------------------------------------------------------
 BASOPT|        1     |       1     | 0.15110296E-02 | 0.40112379E+03 |  304.213
 BASOPT|        1     |       2     | 0.24585424E-02 | 0.21285494E+03 |  215.116
 BASOPT|        1     |       3     | 0.28324490E-02 | 0.97170994E+02 |  177.118
 BASOPT|        2     |       1     | 0.13807712E-02 | 0.45995170E+03 |  226.995
 BASOPT|        2     |       2     | 0.18990149E-02 | 0.33270565E+03 |  171.867
 BASOPT|        2     |       3     | 0.29572917E-02 | 0.13598440E+03 |  150.241
 BASOPT|        3     |       1     | 0.28178805E-03 | 0.52773832E+03 |  125.135
 BASOPT|        3     |       2     | 0.44380809E-03 | 0.24037506E+03 |   87.968
 BASOPT|        3     |       3     | 0.12366778E-02 | 0.59747006E+02 |   76.583
 BASOPT|        4     |       1     | 0.81886047E-03 | 0.21179715E+03 |   69.239
 BASOPT|        4     |       2     | 0.11267233E-02 | 0.12545060E+03 |   58.164
 BASOPT|        4     |       3     | 0.15357408E-02 | 0.52148513E+02 |   51.159
 BASOPT|        5     |       1     | 0.52113029E-03 | 0.31232059E+03 |   68.612
 BASOPT|        5     |       2     | 0.68010866E-03 | 0.22242554E+03 |   56.560
 BASOPT|        5     |       3     | 0.10374605E-02 | 0.11665025E+03 |   50.358
 BASOPT|        6     |       1     | 0.90107559E-03 | 0.70225121E+03 |   95.728
 BASOPT|        6     |       2     | 0.12559681E-02 | 0.33851089E+03 |   81.083
 BASOPT|        6     |       3     | 0.19577741E-02 | 0.14825677E+03 |   71.196
 BASOPT| -----------------------------------------------------------------------
 BASOPT| Total residuum value: -.22965939E+04

 BASOPT| Information at iteration number:    3800
 BASOPT| Training set | Combination | Rho difference | Condition num. | Time
 BASOPT| -----------------------------------------------------------------------
 BASOPT|        1     |       1     | 0.15101843E-02 | 0.40217701E+03 |  312.476
 BASOPT|        1     |       2     | 0.24594855E-02 | 0.21010380E+03 |  220.954
 BASOPT|        1     |       3     | 0.28341518E-02 | 0.97115041E+02 |  181.932
 BASOPT|        2     |       1     | 0.13802102E-02 | 0.45170977E+03 |  233.153
 BASOPT|        2     |       2     | 0.18991344E-02 | 0.32465585E+03 |  176.534
 BASOPT|        2     |       3     | 0.29573414E-02 | 0.13591142E+03 |  154.324
 BASOPT|        3     |       1     | 0.28258140E-03 | 0.51835216E+03 |  128.535
 BASOPT|        3     |       2     | 0.44561547E-03 | 0.24025734E+03 |   90.360
 BASOPT|        3     |       3     | 0.12377490E-02 | 0.59752992E+02 |   78.662
 BASOPT|        4     |       1     | 0.82043112E-03 | 0.21147114E+03 |   71.118
 BASOPT|        4     |       2     | 0.11287973E-02 | 0.12485709E+03 |   59.741
 BASOPT|        4     |       3     | 0.15363612E-02 | 0.52081943E+02 |   52.546
 BASOPT|        5     |       1     | 0.52352616E-03 | 0.30941305E+03 |   70.478
 BASOPT|        5     |       2     | 0.68235743E-03 | 0.21943750E+03 |   58.095
 BASOPT|        5     |       3     | 0.10384489E-02 | 0.11664630E+03 |   51.724
 BASOPT|        6     |       1     | 0.90186651E-03 | 0.70098434E+03 |   98.325
 BASOPT|        6     |       2     | 0.12555278E-02 | 0.33448233E+03 |   83.284
 BASOPT|        6     |       3     | 0.19570977E-02 | 0.14827120E+03 |   73.127
 BASOPT| -----------------------------------------------------------------------
 BASOPT| Total residuum value: -.22965948E+04

 BASOPT| Information at iteration number:    3900
 BASOPT| Training set | Combination | Rho difference | Condition num. | Time
 BASOPT| -----------------------------------------------------------------------
 BASOPT|        1     |       1     | 0.15107482E-02 | 0.40221041E+03 |  320.720
 BASOPT|        1     |       2     | 0.24603590E-02 | 0.20941807E+03 |  226.793
 BASOPT|        1     |       3     | 0.28370950E-02 | 0.97177298E+02 |  186.741
 BASOPT|        2     |       1     | 0.13797456E-02 | 0.44938969E+03 |  239.312
 BASOPT|        2     |       2     | 0.18987558E-02 | 0.32233368E+03 |  181.200
 BASOPT|        2     |       3     | 0.29620381E-02 | 0.13595793E+03 |  158.404
 BASOPT|        3     |       1     | 0.28297306E-03 | 0.51477339E+03 |  131.931
 BASOPT|        3     |       2     | 0.44636808E-03 | 0.24019445E+03 |   92.750
 BASOPT|        3     |       3     | 0.12328399E-02 | 0.59716192E+02 |   80.742
 BASOPT|        4     |       1     | 0.82021319E-03 | 0.21138102E+03 |   72.998
 BASOPT|        4     |       2     | 0.11280595E-02 | 0.12472764E+03 |   61.319
 BASOPT|        4     |       3     | 0.15350994E-02 | 0.52088294E+02 |   53.932
 BASOPT|        5     |       1     | 0.52301906E-03 | 0.30885728E+03 |   72.342
 BASOPT|        5     |       2     | 0.68150750E-03 | 0.21875043E+03 |   59.629
 BASOPT|        5     |       3     | 0.10355886E-02 | 0.11670862E+03 |   53.091
[...]
 BASOPT|        3     |       2     | 0.58408445E-03 | 0.23036086E+03 | 1254.069
 BASOPT|        3     |       3     | 0.12291705E-02 | 0.62434063E+02 | 1116.041
 BASOPT|        4     |       1     | 0.83776602E-03 | 0.23953131E+03 |  986.383
 BASOPT|        4     |       2     | 0.11386868E-02 | 0.12260498E+03 |  831.030
 BASOPT|        4     |       3     | 0.15282329E-02 | 0.52160026E+02 |  727.536
 BASOPT|        5     |       1     | 0.52868222E-03 | 0.26061203E+03 |  977.842
 BASOPT|        5     |       2     | 0.68656892E-03 | 0.16758828E+03 |  804.797
 BASOPT|        5     |       3     | 0.10176147E-02 | 0.11806795E+03 |  715.989
 BASOPT|        6     |       1     | 0.93554797E-03 | 0.60032207E+03 | 1364.342
 BASOPT|        6     |       2     | 0.12842151E-02 | 0.26886569E+03 | 1154.540
 BASOPT|        6     |       3     | 0.19281277E-02 | 0.15191771E+03 | 1015.189
 BASOPT| -----------------------------------------------------------------------
 BASOPT| Total residuum value: -.22966233E+04

 BASOPT| Information at iteration number:   52600
 BASOPT| Training set | Combination | Rho difference | Condition num. | Time
 BASOPT| -----------------------------------------------------------------------
 BASOPT|        1     |       1     | 0.14684845E-02 | 0.46819769E+03 | 4327.445
 BASOPT|        1     |       2     | 0.24353543E-02 | 0.20571800E+03 | 3070.443
 BASOPT|        1     |       3     | 0.28321864E-02 | 0.97587914E+02 | 2529.953
 BASOPT|        2     |       1     | 0.14121570E-02 | 0.31241351E+03 | 3243.926
 BASOPT|        2     |       2     | 0.19459711E-02 | 0.19895599E+03 | 2453.116
 BASOPT|        2     |       3     | 0.29260267E-02 | 0.14250797E+03 | 2127.975
 BASOPT|        3     |       1     | 0.33759434E-03 | 0.28858813E+03 | 1786.046
 BASOPT|        3     |       2     | 0.58408445E-03 | 0.23036086E+03 | 1256.457
 BASOPT|        3     |       3     | 0.12291705E-02 | 0.62434063E+02 | 1118.175
 BASOPT|        4     |       1     | 0.83776602E-03 | 0.23953131E+03 |  988.265
 BASOPT|        4     |       2     | 0.11386868E-02 | 0.12260498E+03 |  832.612
 BASOPT|        4     |       3     | 0.15282329E-02 | 0.52160026E+02 |  728.920
 BASOPT|        5     |       1     | 0.52868222E-03 | 0.26061203E+03 |  979.705
 BASOPT|        5     |       2     | 0.68656892E-03 | 0.16758828E+03 |  806.330
 BASOPT|        5     |       3     | 0.10176147E-02 | 0.11806795E+03 |  717.347
 BASOPT|        6     |       1     | 0.93554797E-03 | 0.60032207E+03 | 1366.939
 BASOPT|        6     |       2     | 0.12842151E-02 | 0.26886569E+03 | 1156.740
 BASOPT|        6     |       3     | 0.19281277E-02 | 0.15191771E+03 | 1017.124
 BASOPT| -----------------------------------------------------------------------
 BASOPT| Total residuum value: -.22966233E+04

 BASOPT| Information at iteration number:   52700
 BASOPT| Training set | Combination | Rho difference | Condition num. | Time
 BASOPT| -----------------------------------------------------------------------
 BASOPT|        1     |       1     | 0.14684845E-02 | 0.46819769E+03 | 4335.661
 BASOPT|        1     |       2     | 0.24353543E-02 | 0.20571800E+03 | 3076.302
 BASOPT|        1     |       3     | 0.28321864E-02 | 0.97587914E+02 | 2534.766
 BASOPT|        2     |       1     | 0.14121570E-02 | 0.31241351E+03 | 3250.106
 BASOPT|        2     |       2     | 0.19459711E-02 | 0.19895599E+03 | 2457.780
 BASOPT|        2     |       3     | 0.29260267E-02 | 0.14250797E+03 | 2132.017
 BASOPT|        3     |       1     | 0.33759434E-03 | 0.28858813E+03 | 1789.445
 BASOPT|        3     |       2     | 0.58408445E-03 | 0.23036086E+03 | 1258.846
 BASOPT|        3     |       3     | 0.12291705E-02 | 0.62434063E+02 | 1120.308
 BASOPT|        4     |       1     | 0.83776602E-03 | 0.23953131E+03 |  990.146
 BASOPT|        4     |       2     | 0.11386868E-02 | 0.12260498E+03 |  834.193
 BASOPT|        4     |       3     | 0.15282329E-02 | 0.52160026E+02 |  730.306
 BASOPT|        5     |       1     | 0.52868222E-03 | 0.26061203E+03 |  981.569
 BASOPT|        5     |       2     | 0.68656892E-03 | 0.16758828E+03 |  807.863
 BASOPT|        5     |       3     | 0.10176147E-02 | 0.11806795E+03 |  718.706
 BASOPT|        6     |       1     | 0.93554797E-03 | 0.60032207E+03 | 1369.537
 BASOPT|        6     |       2     | 0.12842151E-02 | 0.26886569E+03 | 1158.940
 BASOPT|        6     |       3     | 0.19281277E-02 | 0.15191771E+03 | 1019.058
 BASOPT| -----------------------------------------------------------------------
 BASOPT| Total residuum value: -.22966233E+04


 -------------------------------------------------------------------------------
 -                                                                             -
 -                                DBCSR STATISTICS                             -
 -                                                                             -
 -------------------------------------------------------------------------------
 COUNTER                                    TOTAL       BLAS       SMM       ACC
 flops   136 x    68 x     8               443904       0.0%    100.0%      0.0%
 flops   116 x   116 x     9               726624       0.0%    100.0%      0.0%
 flops   116 x   136 x     9               851904       0.0%    100.0%      0.0%
 flops   136 x   136 x     8               887808       0.0%    100.0%      0.0%
 flops    68 x   136 x     8               887808       0.0%    100.0%      0.0%
 flops   136 x   136 x     9               998784       0.0%    100.0%      0.0%
 flops   136 x   116 x    13              1230528       0.0%    100.0%      0.0%
 flops   116 x   136 x    13              1230528       0.0%    100.0%      0.0%
 flops   136 x   116 x    14              1325184       0.0%    100.0%      0.0%
 flops   116 x   136 x    14              1325184       0.0%    100.0%      0.0%
 flops    68 x    68 x     8              1331712       0.0%    100.0%      0.0%
 flops   136 x   136 x    13              1442688       0.0%    100.0%      0.0%
 flops   136 x   136 x    14              1553664       0.0%    100.0%      0.0%
 flops   136 x   116 x    17              1609152       0.0%    100.0%      0.0%
 flops   136 x   136 x    17              1886592       0.0%    100.0%      0.0%
 flops   116 x   116 x    10              2422080       0.0%    100.0%      0.0%
 flops   116 x   136 x    10              2839680       0.0%    100.0%      0.0%
 flops   116 x   116 x    13              3148704       0.0%    100.0%      0.0%
 flops   116 x   136 x    17              3218304       0.0%    100.0%      0.0%
 flops   136 x   136 x    10              3329280       0.0%    100.0%      0.0%
 flops   116 x   116 x    14              3390912       0.0%    100.0%      0.0%
 flops   116 x   116 x    17              8235072       0.0%    100.0%      0.0%
 flops inhomo. stacks                           0       0.0%      0.0%      0.0%
 flops total                        44.316096E+06       0.0%    100.0%      0.0%
 flops max/rank                      2.366400E+06       0.0%    100.0%      0.0%
 matmuls inhomo. stacks                         0       0.0%      0.0%      0.0%
 matmuls total                                132       0.0%    100.0%      0.0%
 number of processed stacks                    96       0.0%    100.0%      0.0%
 average stack size                                     0.0       1.4       0.0
 marketing flops                    66.241536E+06
 -------------------------------------------------------------------------------
 # multiplications                              1
 max memory usage/rank             290.078720E+06
 # max total images/rank                        3
 # max 3D layers                                1
 # MPI messages exchanged                     108
 MPI messages size (bytes):
  total size                         1.298784E+06
  min size                           0.000000E+00
  max size                          65.824000E+03
  average size                      12.025777E+03
 MPI breakdown and total messages size (bytes):
             size <=      128                  69                        0
       128 < size <=     8192                   0                        0
      8192 < size <=    32768                  21                   426912
     32768 < size <=   131072                  18                   871872
    131072 < size <=  4194304                   0                        0
   4194304 < size <= 16777216                   0                        0
  16777216 < size                               0                        0
 -------------------------------------------------------------------------------

 *** WARNING in dbcsr_mm.F:294 :: Using a non-square number of MPI ranks ***
 *** might lead to poor performance. Used ranks: 3 Suggested: 4 4        ***

 -------------------------------------------------------------------------------
 -                                                                             -
 -                      DBCSR MESSAGE PASSING PERFORMANCE                      -
 -                                                                             -
 -------------------------------------------------------------------------------
 ROUTINE             CALLS      AVE VOLUME [Bytes]
 MP_Bcast               23                     12.
 MP_Allreduce           70                     23.
 MP_Alltoall       3162081                 105160.
 MP_ISend               12                   9476.
 MP_IRecv                8                     57.
 -------------------------------------------------------------------------------

 -------------------------------------------------------------------------------
 -                                                                             -
 -                                GRID STATISTICS                              -
 -                                                                             -
 -------------------------------------------------------------------------------
 LP    KERNEL             BACKEND                              COUNT     PERCENT
 2     collocate ortho    REF                                   7218      14.66%
 2     integrate ortho    REF                                   7218      14.66%
 4     collocate ortho    REF                                   5994      12.17%
 4     integrate ortho    REF                                   5994      12.17%
 5     collocate ortho    REF                                   4134       8.39%
 5     integrate ortho    REF                                   4134       8.39%
 6     collocate ortho    REF                                   2112       4.29%
 6     integrate ortho    REF                                   2112       4.29%
 3     collocate ortho    REF                                   1683       3.42%
 3     integrate ortho    REF                                   1683       3.42%
 0     collocate ortho    REF                                   1062       2.16%
 0     integrate ortho    REF                                   1062       2.16%
 7     collocate ortho    REF                                   1026       2.08%
 7     integrate ortho    REF                                   1026       2.08%
 8     collocate ortho    REF                                    750       1.52%
 8     integrate ortho    REF                                    750       1.52%
 1     collocate ortho    REF                                    621       1.26%
 1     integrate ortho    REF                                    621       1.26%
 0     collocate general  REF                                     51       0.10%
 -------------------------------------------------------------------------------

 MEMORY| Estimated peak process memory [MiB]                                 562

 -------------------------------------------------------------------------------
 -                                                                             -
 -                         MESSAGE PASSING PERFORMANCE                         -
 -                                                                             -
 -------------------------------------------------------------------------------

 ROUTINE             CALLS      AVE VOLUME [Bytes]
 MP_Bcast            52743                   1363.
 MP_Allreduce       369272                    160.
 MP_Sync             52701
 MP_Alltoall            18               29025152.
 MP_ISendRecv           18                2033376.
 MP_Wait                18
 MP_comm_split           1
 -------------------------------------------------------------------------------


 -------------------------------------------------------------------------------
 -                                                                             -
 -                           R E F E R E N C E S                               -
 -                                                                             -
 -------------------------------------------------------------------------------
 
 CP2K version 9.0 (Development Version), the CP2K developers group (2020).
 CP2K is freely available from https://www.cp2k.org/ .

 Kuehne,Thomas D.; Iannuzzi,Marcella; Del Ben,Mauro;
 Rybkin,Vladimir V.; Seewald,Patrick; Stein,Frederick; Laino,Teodoro;
 Khaliullin,Rustam Z.; Schuett,Ole; Schiffmann,Florian; Golze,Dorothea;
 Wilhelm,Jan; Chulkov,Sergey; Bani-Hashemian,Mohammad Hossein;
 Weber,Valery; Borstnik,Urban; Taillefumier,Mathieu;
 Jakobovits,Alice Shoshana; Lazzaro,Alfio; Pabst,Hans; Mueller,Tiziano;
 Schade,Robert; Guidon,Manuel; Andermatt,Samuel; Holmberg,Nico;
 Schenter,Gregory K.; Hehn,Anna; Bussy,Augustin; Belleflamme,Fabian;
 Tabacchi,Gloria; Gloess,Andreas; Lass,Michael; Bethune,Iain;
 Mundy,Christopher J.; Plessl,Christian; Watkins,Matt;
 VandeVondele,Joost; Krack,Matthias; Hutter,Juerg. 
 The Journal of Chemical Physics, 152 (19), (2020). 
 CP2K: An electronic structure and molecular dynamics software package -
 Quickstep: Efficient and accurate electronic structure calculations.
 https://doi.org/10.1063/5.0007045

 Schuett, Ole; Messmer, Peter; Hutter, Juerg; VandeVondele, Joost. 
 Electronic Structure Calculations on Graphics Processing Units, John
 Wiley & Sons, Ltd, 173-190 (2016). 
 GPU-Accelerated Sparse Matrix-Matrix Multiplication for
 Linear Scaling Density Functional Theory.
 https://doi.org/10.1002/9781118670712.ch8

 Borstnik, U; VandeVondele, J; Weber, V; Hutter, J. 
 PARALLEL COMPUTING, 40 (5-6), 47-58 (2014). 
 Sparse matrix multiplication: The distributed block-compressed sparse
 row library.
 https://doi.org/10.1016/j.parco.2014.03.012

 Hutter, J; Iannuzzi, M; Schiffmann, F; VandeVondele, J. 
 WIREs Comput Mol Sci., 4 (1), 15-25 (2014). 
 CP2K: atomistic simulations of condensed matter systems.
 https://doi.org/10.1002/wcms.1159

 Marek, A; Blum, V; Johanni, R; Havu, V; Lang, B; Auckenthaler, T;
 Heinecke, A; Bungartz, H; Lederer, H. 
 Journal of Physics: Condensed Matter, 26 (21), (2014). 
 The ELPA library: scalable parallel eigenvalue solutions for
 electronic structure
 theory and computational science.
 https://doi.org/10.1088/0953-8984/26/21/213201

 Guidon, M; Hutter, J; VandeVondele, J. 
 JOURNAL OF CHEMICAL THEORY AND COMPUTATION, 6 (8), 2348-2364 (2010). 
 Auxiliary Density Matrix Methods for Hartree-Fock Exchange Calculations.
 https://doi.org/10.1021/ct1002225

 VandeVondele, J; Hutter, J. 
 JOURNAL OF CHEMICAL PHYSICS, 127 (11), 114105 (2007). 
 Gaussian basis sets for accurate calculations on molecular systems in
 gas and condensed phases.
 https://doi.org/10.1063/1.2770708

 Krack, M. 
 THEORETICAL CHEMISTRY ACCOUNTS, 114 (1-3), 145-152 (2005). 
 Pseudopotentials for H to Kr optimized for gradient-corrected
 exchange-correlation functionals.
 https://doi.org/10.1007/s00214-005-0655-y

 VandeVondele, J; Krack, M; Mohamed, F; Parrinello, M; Chassaing, T;
 Hutter, J. COMPUTER PHYSICS COMMUNICATIONS, 167 (2), 103-128 (2005). 
 QUICKSTEP: Fast and accurate density functional calculations using a
 mixed Gaussian and plane waves approach.
 https://doi.org/10.1016/j.cpc.2004.12.014

 Frigo, M; Johnson, SG. 
 PROCEEDINGS OF THE IEEE, 93 (2), 216-231 (2005). 
 The design and implementation of FFTW3.
 https://doi.org/10.1109/JPROC.2004.840301

 Hartwigsen, C; Goedecker, S; Hutter, J. 
 PHYSICAL REVIEW B, 58 (7), 3641-3662 (1998). 
 Relativistic separable dual-space Gaussian pseudopotentials from H to Rn.
 https://doi.org/10.1103/PhysRevB.58.3641

 Lippert, G; Hutter, J; Parrinello, M. 
 MOLECULAR PHYSICS, 92 (3), 477-487 (1997). 
 A hybrid Gaussian and plane wave density functional scheme.
 https://doi.org/10.1080/002689797170220

 Perdew, JP; Burke, K; Ernzerhof, M. 
 PHYSICAL REVIEW LETTERS, 77 (18), 3865-3868 (1996). 
 Generalized gradient approximation made simple.
 https://doi.org/10.1103/PhysRevLett.77.3865

 Goedecker, S; Teter, M; Hutter, J. 
 PHYSICAL REVIEW B, 54 (3), 1703-1710 (1996). 
 Separable dual-space Gaussian pseudopotentials.
 https://doi.org/10.1103/PhysRevB.54.1703


 -------------------------------------------------------------------------------
 -                                                                             -
 -                                T I M I N G                                  -
 -                                                                             -
 -------------------------------------------------------------------------------
 SUBROUTINE                       CALLS  ASD         SELF TIME        TOTAL TIME
                                MAXIMUM       AVERAGE  MAXIMUM  AVERAGE  MAXIMUM
 CP2K                                 1  1.0    0.002    0.005 4367.743 4367.875
 run_optimize_basis                   1  2.0    0.003    0.004 4367.731 4367.864
 driver_para_opt_basis                1  3.0    0.000    0.000 4367.720 4367.853
 driver_optimization_para_low         1  4.0    0.622    1.457 4367.719 4367.852
 compute_residuum_vectors         52701  5.0    3.561    4.276 4342.094 4342.653
 mp_sum_dv                       263506  5.8 2557.095 3622.486 2557.095 3622.486
 cp_gemm                        1106721  7.2    1.140    1.681 1222.838 3279.918
 cp_gemm_fm_gemm                1106721  8.2    0.668    1.034 1221.698 3278.957
 cp_fm_gemm                     1106721  9.2 1221.030 3278.386 1221.030 3278.386
 admm_fit_mo_coeffs               52701  6.0    0.139    0.226  551.428 1426.335
 fit_mo_coeffs                    52701  7.0    0.481    0.636  343.346 1107.086
 purify_mo_diag                   52701  7.0    0.791    1.343  207.943  383.399
 copy_dbcsr_to_fm                316207  6.8    2.998    5.338  168.399  350.243
 build_overlap_matrix_low        105406  6.0   97.391  324.487   99.777  327.778
 cp_fm_syevd                     158103  7.1    0.384    0.541  146.444  323.959
 cp_fm_syevd_base                158103  8.1  145.915  323.417  145.915  323.417
 dbcsr_desymmetrize_deep         316207  7.8    8.187   15.105   65.576  215.280
 mp_alltoall_i22                 632416  8.8   36.879  177.348   36.879  177.348
 cp_fm_upper_to_full             210806  7.2   74.891  126.313   74.891  126.313
 dbcsr_complete_redistribute     316209  7.8   27.651   43.653   84.095  121.101
 -------------------------------------------------------------------------------

 The number of warnings for this run is : 1
 
 -------------------------------------------------------------------------------
  **** **** ******  **  PROGRAM ENDED AT                 2021-01-23 17:50:00.567
 ***** ** ***  *** **   PROGRAM RAN ON                                   tcopt10
 **    ****   ******    PROGRAM RAN BY                                    hutter
 ***** **    ** ** **   PROGRAM PROCESS ID                                 96099
  **** **  *******  **  PROGRAM STOPPED IN /data/hutter/GITHUB/BASIS/MOLOPT/PBE/
                                           Ga
