 DBCSR| CPU Multiplication driver                                           XSMM
 DBCSR| Multrec recursion limit                                              512
 DBCSR| Multiplication stack size                                           1000
 DBCSR| Maximum elements for images                                    UNLIMITED
 DBCSR| Multiplicative factor virtual images                                   1
 DBCSR| Use multiplication densification                                       T
 DBCSR| Multiplication size stacks                                             3
 DBCSR| Use memory pool for CPU allocation                                     F
 DBCSR| Number of 3D layers                                               SINGLE
 DBCSR| Use MPI memory allocation                                              F
 DBCSR| Use RMA algorithm                                                      F
 DBCSR| Use Communication thread                                               T
 DBCSR| Communication thread load                                             87
 DBCSR| MPI: My node id                                                        0
 DBCSR| MPI: Number of nodes                                                  36
 DBCSR| OMP: Current number of threads                                         1
 DBCSR| OMP: Max number of threads                                             1
 DBCSR| Split modifier for TAS multiplication algorithm                  1.0E+00


  **** **** ******  **  PROGRAM STARTED AT               2022-06-07 16:52:45.237
 ***** ** ***  *** **   PROGRAM STARTED ON                               tcopt10
 **    ****   ******    PROGRAM STARTED BY                                hutter
 ***** **    ** ** **   PROGRAM PROCESS ID                                 73018
  **** **  *******  **  PROGRAM STARTED IN /data/hutter/GITHUB/BASIS/scMOLOPT/PB
                                           E/Ta

 CP2K| version string:                   CP2K version 10.0 (Development Version)
 CP2K| source code revision number:                                  git:d19b00a
 CP2K| cp2kflags: omp libint fftw3 libxc elpa parallel mpi3 scalapack cosma xsmm
 CP2K|             spglib sirius libvori libbqb
 CP2K| is freely available from                            https://www.cp2k.org/
 CP2K| Program compiled at                      Wed 18 May 2022 12:15:59 PM CEST
 CP2K| Program compiled on                                               tcopt10
 CP2K| Program compiled for                                                local
 CP2K| Data directory path                   /data/hutter/GITHUB/TDLRI/cp2k/data
 CP2K| Input file name                                              TaF3-ref.inp

 GLOBAL| Force Environment number                                              1
 GLOBAL| Basis set file name                                        ../def2QZVPP
 GLOBAL| Potential file name                                        ../POTENTIAL
 GLOBAL| MM Potential file name                                     MM_POTENTIAL
 GLOBAL| Coordinate file name                                      __STD_INPUT__
 GLOBAL| Method name                                                        CP2K
 GLOBAL| Project name                                                    refTaF3
 GLOBAL| Run type                                                         ENERGY
 GLOBAL| FFT library                                                       FFTW3
 GLOBAL| Diagonalization library                                            ELPA
 GLOBAL| Minimum number of eigenvectors for ELPA usage                        16
 GLOBAL| Orthonormality check for eigenvectors                          DISABLED
 GLOBAL| Matrix multiplication library                                     COSMA
 GLOBAL| All-to-all communication in single precision                          F
 GLOBAL| FFTs using library dependent lengths                                  F
 GLOBAL| Grid backend                                                       AUTO
 GLOBAL| Global print level                                                  LOW
 GLOBAL| MPI I/O enabled                                                       T
 GLOBAL| Total number of message passing processes                            36
 GLOBAL| Number of threads for this process                                    1
 GLOBAL| This output is from process                                           0
 GLOBAL| Stack size for threads created by OpenMP (OMP_STACKSIZE)        default
 GLOBAL| CPU model name                          AMD EPYC 7401 24-Core Processor
 GLOBAL| CPUID                                                              1002

 MEMORY| system memory details [Kb]
 MEMORY|                        rank 0           min           max       average
 MEMORY| MemTotal            263969132     263969132     263969132     263969132
 MEMORY| MemFree             237131052     237131052     237131052     237131052
 MEMORY| Buffers                  2836          2836          2836          2836
 MEMORY| Cached               20346504      20346500      20346504      20346501
 MEMORY| Slab                  1476112       1476112       1476112       1476112
 MEMORY| SReclaimable           874388        874388        874388        874388
 MEMORY| MemLikelyFree       258354780     258354776     258354780     258354777


 GENERATE|  Preliminary Number of Bonds generated:                             0
 GENERATE|  Achieved consistency in connectivity generation.

 *******************************************************************************
 *******************************************************************************
 **                                                                           **
 **     #####                         ##              ##                      **
 **    ##   ##            ##          ##              ##                      **
 **   ##     ##                       ##            ######                    **
 **   ##     ##  ##   ##  ##   #####  ##  ##   ####   ##    #####    #####    **
 **   ##     ##  ##   ##  ##  ##      ## ##   ##      ##   ##   ##  ##   ##   **
 **   ##  ## ##  ##   ##  ##  ##      ####     ###    ##   ######   ######    **
 **    ##  ###   ##   ##  ##  ##      ## ##      ##   ##   ##       ##        **
 **     #######   #####   ##   #####  ##  ##  ####    ##    #####   ##        **
 **           ##                                                    ##        **
 **                                                                           **
 **                                                ... make the atoms dance   **
 **                                                                           **
 **            Copyright (C) by CP2K developers group (2000-2022)             **
 **                      J. Chem. Phys. 152, 194103 (2020)                    **
 **                                                                           **
 *******************************************************************************


 TOTAL NUMBERS AND MAXIMUM NUMBERS

  Total number of            - Atomic kinds:                                   2
                             - Atoms:                                          4
                             - Shell sets:                                    72
                             - Shells:                                        72
                             - Primitive Cartesian functions:                116
                             - Cartesian basis functions:                    322
                             - Spherical basis functions:                    252

  Maximum angular momentum of- Orbital basis functions:                        4
                             - Local part of the GTH pseudopotential:          2
                             - Non-local part of the GTH pseudopotential:      4


 SCF PARAMETERS         Density guess:                                    ATOMIC
                        --------------------------------------------------------
                        max_scf:                                              20
                        max_scf_history:                                       0
                        max_diis:                                              4
                        --------------------------------------------------------
                        eps_scf:                                        1.00E-07
                        eps_scf_history:                                0.00E+00
                        eps_diis:                                       1.00E-01
                        eps_eigval:                                     1.00E-05
                        --------------------------------------------------------
                        level_shift [a.u.]:                             0.000000
                        --------------------------------------------------------
                        Outer loop SCF in use 
                        No variables optimised in outer loop
                        eps_scf                                         1.00E-07
                        max_scf                                                5
                        No outer loop optimization
                        step_size                                       5.00E-01

 Number of electrons:                                                         40
 Number of occupied orbitals:                                                 20
 Number of molecular orbitals:                                                20

 Number of orbital functions:                                                252
 Number of independent orbital functions:                                    252

 Extrapolation method: initial_guess


 SCF WAVEFUNCTION OPTIMIZATION

  ----------------------------------- OT ---------------------------------------
  Minimizer      : DIIS                : direct inversion
                                         in the iterative subspace
                                         using   7 DIIS vectors
                                         safer DIIS on
  Preconditioner : FULL_ALL            : diagonalization, state selective
  Precond_solver : DEFAULT
  stepsize       :    0.10000000                  energy_gap     :    0.08000000
  eps_taylor     :   0.10000E-15                  max_taylor     :             4
  ----------------------------------- OT ---------------------------------------

  Step     Update method      Time    Convergence         Total energy    Change
  ------------------------------------------------------------------------------
     1 OT DIIS     0.10E+00    0.7     0.11214533      -348.5834394927 -3.49E+02
     2 OT DIIS     0.10E+00    0.8     0.06766176      -353.6593869447 -5.08E+00
     3 OT DIIS     0.10E+00    0.8     0.02838648      -356.0747648294 -2.42E+00
     4 OT DIIS     0.10E+00    0.8     0.02033701      -356.3241664220 -2.49E-01
     5 OT DIIS     0.10E+00    0.8     0.01298934      -356.6555648272 -3.31E-01
     6 OT DIIS     0.10E+00    0.8     0.01142816      -356.7884846605 -1.33E-01
     7 OT DIIS     0.10E+00    0.8     0.00955737      -356.9297637160 -1.41E-01
     8 OT DIIS     0.10E+00    0.8     0.00757599      -357.1120682258 -1.82E-01
     9 OT DIIS     0.10E+00    0.9     0.00538421      -357.2694729116 -1.57E-01
    10 OT DIIS     0.10E+00    0.8     0.00518154      -357.2783273055 -8.85E-03
    11 OT DIIS     0.10E+00    0.8     0.00359387      -357.3367220248 -5.84E-02
    12 OT DIIS     0.10E+00    0.9     0.00251085      -357.3624596747 -2.57E-02
    13 OT DIIS     0.10E+00    0.8     0.00233608      -357.3735555982 -1.11E-02
    14 OT DIIS     0.10E+00    0.8     0.00198467      -357.3802624304 -6.71E-03
    15 OT DIIS     0.10E+00    0.8     0.00216465      -357.3863609654 -6.10E-03
    16 OT DIIS     0.10E+00    0.8     0.00216460      -357.3901725809 -3.81E-03
    17 OT DIIS     0.10E+00    0.8     0.00179064      -357.3938917149 -3.72E-03
    18 OT SD       0.10E+00    0.8     0.00178550      -357.3994867844 -5.60E-03
    19 OT SD       0.10E+00    0.8     0.00173568      -357.4010632670 -1.58E-03
    20 OT DIIS     0.10E+00    0.8     0.00171659      -357.4025722696 -1.51E-03

  Leaving inner SCF loop after reaching    20 steps.


  Electronic density on regular grids:        -33.3067535828        6.6932464172
  Core density on regular grids:               40.0000000000        0.0000000000
  Hard and soft densities (Lebedev):          -52.0456911619      -45.3524430360
  Total Rho_soft + Rho1_hard - Rho1_soft      -40.0000017087
  Total charge density (r-space):              -0.0000017087
  Total Rho_soft + Rho0_soft (g-space):        -0.0000020732

  Overlap energy of the core charge distribution:               0.00000024865416
  Self energy of the core charge distribution:               -400.32663909015605
  Core Hamiltonian energy:                                      4.20745126340866
  Hartree energy:                                             140.04978121067487
  Exchange-correlation energy:                                -19.72388992923995

  GAPW| Exc from hard and soft atomic rho1:                   -18.13944013841580
  GAPW| local Eh = 1 center integrals:                        -63.46983583450747

  Total energy:                                              -357.40257226958164

  outer SCF iter =    1 RMS gradient =   0.17E-02 energy =       -357.4025722696

  ----------------------------------- OT ---------------------------------------
  Minimizer      : DIIS                : direct inversion
                                         in the iterative subspace
                                         using   7 DIIS vectors
                                         safer DIIS on
  Preconditioner : FULL_ALL            : diagonalization, state selective
  Precond_solver : DEFAULT
  stepsize       :    0.10000000                  energy_gap     :    0.08000000
  eps_taylor     :   0.10000E-15                  max_taylor     :             4
  ----------------------------------- OT ---------------------------------------

  Step     Update method      Time    Convergence         Total energy    Change
  ------------------------------------------------------------------------------
     1 OT DIIS     0.10E+00    1.7     0.00870817      -357.4081205718 -5.55E-03
     2 OT DIIS     0.10E+00    0.8     0.00767435      -357.4439511183 -3.58E-02
     3 OT DIIS     0.10E+00    0.8     0.00563628      -357.4821857375 -3.82E-02
     4 OT DIIS     0.10E+00    0.8     0.00760644      -357.4835583063 -1.37E-03
     5 OT DIIS     0.10E+00    0.8     0.00393400      -357.5051350117 -2.16E-02
     6 OT DIIS     0.10E+00    0.8     0.00319681      -357.5077868981 -2.65E-03
     7 OT DIIS     0.10E+00    0.8     0.00109697      -357.5107247677 -2.94E-03
     8 OT DIIS     0.10E+00    0.8     0.00035788      -357.5112614443 -5.37E-04
     9 OT DIIS     0.10E+00    0.8     0.00010410      -357.5113337460 -7.23E-05
    10 OT DIIS     0.10E+00    0.8     0.00006121      -357.5113386719 -4.93E-06
    11 OT DIIS     0.10E+00    0.8     0.00004344      -357.5113405350 -1.86E-06
    12 OT DIIS     0.10E+00    0.8     0.00000782      -357.5113413476 -8.13E-07
    13 OT DIIS     0.10E+00    0.8     0.00000339      -357.5113413789 -3.12E-08
    14 OT DIIS     0.10E+00    0.8     0.00000086      -357.5113413856 -6.77E-09
    15 OT DIIS     0.10E+00    0.8     0.00000045      -357.5113413860 -3.41E-10
    16 OT DIIS     0.10E+00    0.8     0.00000017      -357.5113413860 -7.53E-11
    17 OT DIIS     0.10E+00    0.8     0.00000006      -357.5113413860 -2.10E-12

  *** SCF run converged in    17 steps ***


  Electronic density on regular grids:        -33.3258292800        6.6741707200
  Core density on regular grids:               40.0000000000        0.0000000000
  Hard and soft densities (Lebedev):          -52.0358127614      -45.3616400836
  Total Rho_soft + Rho1_hard - Rho1_soft      -40.0000019577
  Total charge density (r-space):              -0.0000019577
  Total Rho_soft + Rho0_soft (g-space):        -0.0000023223

  Overlap energy of the core charge distribution:               0.00000024865416
  Self energy of the core charge distribution:               -400.32663909015605
  Core Hamiltonian energy:                                      3.62275161697551
  Hartree energy:                                             140.30019809811614
  Exchange-correlation energy:                                -19.58419853535214

  GAPW| Exc from hard and soft atomic rho1:                   -18.11666652552188
  GAPW| local Eh = 1 center integrals:                        -63.40678719876313

  Total energy:                                              -357.51134138604743

  outer SCF iter =    2 RMS gradient =   0.60E-07 energy =       -357.5113413860
  outer SCF loop converged in   2 iterations or   37 steps


 ENERGY| Total FORCE_EVAL ( QS ) energy [a.u.]:             -357.511341386047434

 -------------------------------------------------------------------------------
 -                                                                             -
 -                                DBCSR STATISTICS                             -
 -                                                                             -
 -------------------------------------------------------------------------------
 COUNTER                                    TOTAL       BLAS       SMM       ACC
 flops    20 x    20 x    20              5136000       0.0%    100.0%      0.0%
 flops    81 x    57 x    20              7017840       0.0%    100.0%      0.0%
 flops    20 x    20 x    81              9720000       0.0%    100.0%      0.0%
 flops    81 x    81 x    20              9972720       0.0%    100.0%      0.0%
 flops    81 x    20 x    20             12117600       0.0%    100.0%      0.0%
 flops    57 x    81 x    20             14035680       0.0%    100.0%      0.0%
 flops    20 x    20 x    57             20520000       0.0%    100.0%      0.0%
 flops    57 x    20 x    20             25581600       0.0%    100.0%      0.0%
 flops    57 x    57 x    20             29630880       0.0%    100.0%      0.0%
 flops    81 x    20 x    81             43565040       0.0%    100.0%      0.0%
 flops    81 x    20 x    57             91970640       0.0%    100.0%      0.0%
 flops    57 x    20 x    81             91970640       0.0%    100.0%      0.0%
 flops    57 x    20 x    57            194160240       0.0%    100.0%      0.0%
 flops inhomo. stacks                           0       0.0%      0.0%      0.0%
 flops total                       555.398880E+06       0.0%    100.0%      0.0%
 flops max/rank                    193.002000E+06       0.0%    100.0%      0.0%
 matmuls inhomo. stacks                         0       0.0%      0.0%      0.0%
 matmuls total                               4705       0.0%    100.0%      0.0%
 number of processed stacks                  4705       0.0%    100.0%      0.0%
 average stack size                                     0.0       1.0       0.0
 marketing flops                   591.668864E+06
 -------------------------------------------------------------------------------
 # multiplications                            864
 max memory usage/rank             387.825664E+06
 # max total images/rank                        1
 # max 3D layers                                1
 # MPI messages exchanged                  311040
 MPI messages size (bytes):
  total size                       581.896960E+06
  min size                           0.000000E+00
  max size                          52.488000E+03
  average size                       1.870811E+03
 MPI breakdown and total messages size (bytes):
             size <=      128              279035                        0
       128 < size <=     8192                4145                 13264000
      8192 < size <=    32768               22050                341126640
     32768 < size <=   131072                5810                227506320
    131072 < size <=  4194304                   0                        0
   4194304 < size <= 16777216                   0                        0
  16777216 < size                               0                        0
 -------------------------------------------------------------------------------
 -                                                                             -
 -                      DBCSR MESSAGE PASSING PERFORMANCE                      -
 -                                                                             -
 -------------------------------------------------------------------------------
 ROUTINE             CALLS      AVE VOLUME [Bytes]
 MP_Bcast               14                     12.
 MP_Allreduce         4627                      8.
 MP_Alltoall          3161                   3089.
 MP_ISend            20728                   2564.
 MP_IRecv            20728                   1559.
 -------------------------------------------------------------------------------

 -------------------------------------------------------------------------------
 -                                                                             -
 -                                GRID STATISTICS                              -
 -                                                                             -
 -------------------------------------------------------------------------------
 LP    KERNEL             BACKEND                              COUNT     PERCENT
 1     collocate ortho    REF                                  25042      10.09%
 2     collocate ortho    REF                                  24890      10.03%
 1     integrate ortho    REF                                  24383       9.83%
 2     integrate ortho    REF                                  24235       9.77%
 3     collocate ortho    REF                                  23256       9.37%
 3     integrate ortho    REF                                  22644       9.13%
 4     collocate ortho    REF                                  18278       7.37%
 4     integrate ortho    REF                                  17797       7.17%
 0     collocate ortho    REF                                  11818       4.76%
 0     integrate ortho    REF                                  11507       4.64%
 5     collocate ortho    REF                                   9652       3.89%
 5     integrate ortho    REF                                   9398       3.79%
 2     collocate general  REF                                   5328       2.15%
 2     integrate general  REF                                   5328       2.15%
 6     collocate ortho    REF                                   4940       1.99%
 6     integrate ortho    REF                                   4810       1.94%
 7     collocate ortho    REF                                   1938       0.78%
 7     integrate ortho    REF                                   1887       0.76%
 8     collocate ortho    REF                                    494       0.20%
 8     integrate ortho    REF                                    481       0.19%
 -------------------------------------------------------------------------------

 MEMORY| Estimated peak process memory [MiB]                                 370

 -------------------------------------------------------------------------------
 -                                                                             -
 -                         MESSAGE PASSING PERFORMANCE                         -
 -                                                                             -
 -------------------------------------------------------------------------------

 ROUTINE             CALLS      AVE VOLUME [Bytes]
 MP_Group                4
 MP_Bcast             1144                 306784.
 MP_Allreduce         2987                  91582.
 MP_Sync                90
 MP_Alltoall           758                6451735.
 MP_ISendRecv         7875                 115968.
 MP_Wait             15176
 MP_comm_split          43
 MP_ISend             6556                 381731.
 MP_IRecv             6556                 381731.
 MP_Recv                 8                   8064.
 -------------------------------------------------------------------------------


 -------------------------------------------------------------------------------
 -                                                                             -
 -                           R E F E R E N C E S                               -
 -                                                                             -
 -------------------------------------------------------------------------------
 
 CP2K version 10.0 (Development Version), the CP2K developers group (2022).
 CP2K is freely available from https://www.cp2k.org/ .

 Kuehne,Thomas D.; Iannuzzi,Marcella; Del Ben,Mauro;
 Rybkin,Vladimir V.; Seewald,Patrick; Stein,Frederick; Laino,Teodoro;
 Khaliullin,Rustam Z.; Schuett,Ole; Schiffmann,Florian; Golze,Dorothea;
 Wilhelm,Jan; Chulkov,Sergey; Bani-Hashemian,Mohammad Hossein;
 Weber,Valery; Borstnik,Urban; Taillefumier,Mathieu;
 Jakobovits,Alice Shoshana; Lazzaro,Alfio; Pabst,Hans; Mueller,Tiziano;
 Schade,Robert; Guidon,Manuel; Andermatt,Samuel; Holmberg,Nico;
 Schenter,Gregory K.; Hehn,Anna; Bussy,Augustin; Belleflamme,Fabian;
 Tabacchi,Gloria; Gloess,Andreas; Lass,Michael; Bethune,Iain;
 Mundy,Christopher J.; Plessl,Christian; Watkins,Matt;
 VandeVondele,Joost; Krack,Matthias; Hutter,Juerg. 
 The Journal of Chemical Physics, 152 (19), (2020). 
 CP2K: An electronic structure and molecular dynamics software package -
 Quickstep: Efficient and accurate electronic structure calculations.
 https://doi.org/10.1063/5.0007045

 Schuett, Ole; Messmer, Peter; Hutter, Juerg; VandeVondele, Joost. 
 Electronic Structure Calculations on Graphics Processing Units, John
 Wiley & Sons, Ltd, 173-190 (2016). 
 GPU-Accelerated Sparse Matrix-Matrix Multiplication for
 Linear Scaling Density Functional Theory.
 https://doi.org/10.1002/9781118670712.ch8

 Heinecke, A; Henry, G; Hutchinson, M; Pabst, H. 
 Proceedings of Intl. Supercomputing Conference, 981-991 (2016). 
 LIBXSMM: Accelerating Small Matrix Multiplications
 by Runtime Code Generation.
 https://doi.org/10.1109/SC.2016.83

 Borstnik, U; VandeVondele, J; Weber, V; Hutter, J. 
 PARALLEL COMPUTING, 40 (5-6), 47-58 (2014). 
 Sparse matrix multiplication: The distributed block-compressed sparse
 row library.
 https://doi.org/10.1016/j.parco.2014.03.012

 Hutter, J; Iannuzzi, M; Schiffmann, F; VandeVondele, J. 
 WIREs Comput Mol Sci., 4 (1), 15-25 (2014). 
 CP2K: atomistic simulations of condensed matter systems.
 https://doi.org/10.1002/wcms.1159

 Marek, A; Blum, V; Johanni, R; Havu, V; Lang, B; Auckenthaler, T;
 Heinecke, A; Bungartz, H; Lederer, H. 
 Journal of Physics: Condensed Matter, 26 (21), (2014). 
 The ELPA library: scalable parallel eigenvalue solutions for
 electronic structure
 theory and computational science.
 https://doi.org/10.1088/0953-8984/26/21/213201

 Krack, M. 
 THEORETICAL CHEMISTRY ACCOUNTS, 114 (1-3), 145-152 (2005). 
 Pseudopotentials for H to Kr optimized for gradient-corrected
 exchange-correlation functionals.
 https://doi.org/10.1007/s00214-005-0655-y

 Frigo, M; Johnson, SG. 
 PROCEEDINGS OF THE IEEE, 93 (2), 216-231 (2005). 
 The design and implementation of FFTW3.
 https://doi.org/10.1109/JPROC.2004.840301

 VandeVondele, J; Hutter, J. 
 JOURNAL OF CHEMICAL PHYSICS, 118 (10), 4365-4369 (2003). 
 An efficient orbital transformation method for electronic structure
 calculations.
 https://doi.org/10.1063/1.1543154

 Lippert, G; Hutter, J; Parrinello, M. 
 THEORETICAL CHEMISTRY ACCOUNTS, 103 (2), 124-140 (1999). 
 The Gaussian and augmented-plane-wave density functional method for ab
 initio molecular dynamics simulations.
 https://doi.org/10.1007/s002140050523

 Krack, M; Parrinello, M. 
 PHYSICAL CHEMISTRY CHEMICAL PHYSICS, 2 (10), 2105-2112 (2000). 
 All-electron ab-initio molecular dynamics.
 https://doi.org/10.1039/b001167n

 Hartwigsen, C; Goedecker, S; Hutter, J. 
 PHYSICAL REVIEW B, 58 (7), 3641-3662 (1998). 
 Relativistic separable dual-space Gaussian pseudopotentials from H to Rn.
 https://doi.org/10.1103/PhysRevB.58.3641

 Perdew, JP; Burke, K; Ernzerhof, M. 
 PHYSICAL REVIEW LETTERS, 77 (18), 3865-3868 (1996). 
 Generalized gradient approximation made simple.
 https://doi.org/10.1103/PhysRevLett.77.3865

 Goedecker, S; Teter, M; Hutter, J. 
 PHYSICAL REVIEW B, 54 (3), 1703-1710 (1996). 
 Separable dual-space Gaussian pseudopotentials.
 https://doi.org/10.1103/PhysRevB.54.1703


 -------------------------------------------------------------------------------
 -                                                                             -
 -                                T I M I N G                                  -
 -                                                                             -
 -------------------------------------------------------------------------------
 SUBROUTINE                       CALLS  ASD         SELF TIME        TOTAL TIME
                                MAXIMUM       AVERAGE  MAXIMUM  AVERAGE  MAXIMUM
 CP2K                                 1  1.0    0.010    0.029   31.764   31.766
 qs_energies                          1  2.0    0.000    0.000   31.517   31.517
 scf_env_do_scf                       1  3.0    0.000    0.000   31.088   31.088
 scf_env_do_scf_inner_loop           37  4.0    0.001    0.002   29.676   29.676
 qs_ks_update_qs_env                 39  5.0    0.000    0.000   25.244   25.248
 rebuild_ks_matrix                   37  6.0    0.000    0.000   25.238   25.242
 qs_ks_build_kohn_sham_matrix        37  7.0    0.007    0.009   25.238   25.242
 pw_transfer                        782 10.1    0.080    0.102    9.225    9.569
 fft_wrap_pw1pw2                    671 11.3    0.009    0.012    9.061    9.406
 fft_wrap_pw1pw2_300                446 12.7    0.589    0.676    8.489    8.838
 qs_vxc_create                       37  8.0    0.001    0.001    8.051    8.052
 xc_vxc_pw_create                    37  9.0    0.053    0.060    8.050    8.051
 rs_pw_transfer                     374  9.5    0.009    0.013    7.397    7.752
 fft3d_ps                           671 13.3    3.622    4.112    6.971    7.532
 prepare_gapw_den                    37  8.0    0.001    0.001    5.699    5.752
 xc_pw_derive                       222 11.0    0.002    0.003    4.821    5.221
 qs_rho_update_rho                   38  5.0    0.001    0.001    5.051    5.055
 calculate_rho_elec                  38  6.0    0.027    0.027    4.867    4.869
 xc_rho_set_and_dset_create          37 10.0    0.053    0.061    4.471    4.654
 sum_up_and_integrate                37  8.0    0.019    0.025    4.240    4.246
 integrate_v_rspace                  37  9.0    0.001    0.001    4.221    4.230
 mp_sum_d                          1588  7.9    3.757    4.079    3.757    4.079
 density_rs2pw                       38  7.0    0.002    0.002    3.758    4.035
 xc_pw_divergence                    37 10.0    0.001    0.002    3.356    3.761
 mp_alltoall_z22v                   671 15.3    2.547    3.658    2.547    3.658
 potential_pw2rs                     37 10.0    0.003    0.003    3.389    3.392
 rs_pw_transfer_RS2PW_300            75 10.0    1.618    2.053    2.907    3.216
 rs_pw_transfer_PW2RS_300            74 11.0    1.606    1.986    3.010    3.152
 mp_waitany                        6556 11.5    2.107    3.084    2.107    3.084
 calculate_vxc_atom                  37  8.0    0.027    0.290    2.966    2.967
 calculate_rho_atom                  74  9.0    0.905    2.914    0.905    2.914
 integrate_vhg0_rspace               37  8.0    0.285    0.386    2.572    2.599
 yz_to_x                            337 13.9    0.362    0.503    1.812    2.576
 gaVxcgb_GC                          74  9.0    0.126    2.539    0.126    2.539
 put_rho0_on_grid                    37  9.0    0.032    0.043    2.391    2.444
 xc_functional_eval                 185 10.8    0.001    0.001    2.071    2.311
 pbe_lda_eval                       185 11.8    2.070    2.310    2.070    2.310
 mp_sum_dv                         1226 13.0    1.412    1.974    1.412    1.974
 x_to_yz                            334 14.7    0.414    0.480    1.512    1.742
 init_scf_loop                        2  4.0    0.000    0.000    1.411    1.411
 mp_waitall_1                     63916 13.9    1.080    1.390    1.080    1.390
 calculate_rho0_atom                 74  9.0    0.998    1.308    0.998    1.308
 grid_collocate_task_list            38  7.0    0.865    1.228    0.865    1.228
 mp_sum_dm                          452  7.7    0.724    0.961    0.724    0.961
 pw_gather_p                        337 12.9    0.740    0.938    0.740    0.938
 rs_pw_transfer_PW2RS_100            37 12.0    0.149    0.165    0.720    0.919
 mp_alltoall_d11v                   744 12.0    0.594    0.852    0.594    0.852
 qs_scf_new_mos                      37  5.0    0.000    0.000    0.834    0.839
 qs_scf_loop_do_ot                   37  6.0    0.000    0.000    0.834    0.839
 rs_gather_matrices                  37 10.0    0.001    0.005    0.573    0.832
 rs_grid_zero                       148 10.8    0.704    0.830    0.704    0.830
 grid_integrate_task_list            37 10.0    0.259    0.829    0.259    0.829
 pw_scatter_p                       334 13.7    0.728    0.822    0.728    0.822
 ot_scf_mini                         37  7.0    0.000    0.001    0.801    0.805
 dbcsr_multiply_generic             864 10.1    0.023    0.024    0.775    0.790
 -------------------------------------------------------------------------------

 The number of warnings for this run is : 0
 
 -------------------------------------------------------------------------------
  **** **** ******  **  PROGRAM ENDED AT                 2022-06-07 16:53:17.395
 ***** ** ***  *** **   PROGRAM RAN ON                                   tcopt10
 **    ****   ******    PROGRAM RAN BY                                    hutter
 ***** **    ** ** **   PROGRAM PROCESS ID                                 73018
  **** **  *******  **  PROGRAM STOPPED IN /data/hutter/GITHUB/BASIS/scMOLOPT/PB
                                           E/Ta
