 DBCSR| CPU Multiplication driver                                           XSMM
 DBCSR| Multrec recursion limit                                              512
 DBCSR| Multiplication stack size                                           1000
 DBCSR| Maximum elements for images                                    UNLIMITED
 DBCSR| Multiplicative factor virtual images                                   1
 DBCSR| Use multiplication densification                                       T
 DBCSR| Multiplication size stacks                                             3
 DBCSR| Use memory pool for CPU allocation                                     F
 DBCSR| Number of 3D layers                                               SINGLE
 DBCSR| Use MPI memory allocation                                              F
 DBCSR| Use RMA algorithm                                                      F
 DBCSR| Use Communication thread                                               T
 DBCSR| Communication thread load                                             87
 DBCSR| MPI: My node id                                                        0
 DBCSR| MPI: Number of nodes                                                  48
 DBCSR| OMP: Current number of threads                                         1
 DBCSR| OMP: Max number of threads                                             1
 DBCSR| Split modifier for TAS multiplication algorithm                  1.0E+00


  **** **** ******  **  PROGRAM STARTED AT               2022-06-07 17:23:25.278
 ***** ** ***  *** **   PROGRAM STARTED ON                               tcopt10
 **    ****   ******    PROGRAM STARTED BY                                hutter
 ***** **    ** ** **   PROGRAM PROCESS ID                                 78479
  **** **  *******  **  PROGRAM STARTED IN /data/hutter/GITHUB/BASIS/scMOLOPT/PB
                                           E/Os

 CP2K| version string:                   CP2K version 10.0 (Development Version)
 CP2K| source code revision number:                                  git:d19b00a
 CP2K| cp2kflags: omp libint fftw3 libxc elpa parallel mpi3 scalapack cosma xsmm
 CP2K|             spglib sirius libvori libbqb
 CP2K| is freely available from                            https://www.cp2k.org/
 CP2K| Program compiled at                      Wed 18 May 2022 12:15:59 PM CEST
 CP2K| Program compiled on                                               tcopt10
 CP2K| Program compiled for                                                local
 CP2K| Data directory path                   /data/hutter/GITHUB/TDLRI/cp2k/data
 CP2K| Input file name                                              OsO2-ref.inp

 GLOBAL| Force Environment number                                              1
 GLOBAL| Basis set file name                                        ../def2QZVPP
 GLOBAL| Potential file name                                        ../POTENTIAL
 GLOBAL| MM Potential file name                                     MM_POTENTIAL
 GLOBAL| Coordinate file name                                      __STD_INPUT__
 GLOBAL| Method name                                                        CP2K
 GLOBAL| Project name                                                    refOsO2
 GLOBAL| Run type                                                         ENERGY
 GLOBAL| FFT library                                                       FFTW3
 GLOBAL| Diagonalization library                                            ELPA
 GLOBAL| Minimum number of eigenvectors for ELPA usage                        16
 GLOBAL| Orthonormality check for eigenvectors                          DISABLED
 GLOBAL| Matrix multiplication library                                     COSMA
 GLOBAL| All-to-all communication in single precision                          F
 GLOBAL| FFTs using library dependent lengths                                  F
 GLOBAL| Grid backend                                                       AUTO
 GLOBAL| Global print level                                                  LOW
 GLOBAL| MPI I/O enabled                                                       T
 GLOBAL| Total number of message passing processes                            48
 GLOBAL| Number of threads for this process                                    1
 GLOBAL| This output is from process                                           0
 GLOBAL| Stack size for threads created by OpenMP (OMP_STACKSIZE)        default
 GLOBAL| CPU model name                          AMD EPYC 7401 24-Core Processor
 GLOBAL| CPUID                                                              1002

 MEMORY| system memory details [Kb]
 MEMORY|                        rank 0           min           max       average
 MEMORY| MemTotal            263969132     263969132     263969132     263969132
 MEMORY| MemFree             236063752     236063752     236063752     236063752
 MEMORY| Buffers                  2836          2836          2836          2836
 MEMORY| Cached               20348852      20348852      20348852      20348852
 MEMORY| Slab                  1478472       1478472       1478472       1478472
 MEMORY| SReclaimable           874836        874836        874836        874836
 MEMORY| MemLikelyFree       257290276     257290276     257290276     257290276


 GENERATE|  Preliminary Number of Bonds generated:                             0
 GENERATE|  Achieved consistency in connectivity generation.

 *******************************************************************************
 *******************************************************************************
 **                                                                           **
 **     #####                         ##              ##                      **
 **    ##   ##            ##          ##              ##                      **
 **   ##     ##                       ##            ######                    **
 **   ##     ##  ##   ##  ##   #####  ##  ##   ####   ##    #####    #####    **
 **   ##     ##  ##   ##  ##  ##      ## ##   ##      ##   ##   ##  ##   ##   **
 **   ##  ## ##  ##   ##  ##  ##      ####     ###    ##   ######   ######    **
 **    ##  ###   ##   ##  ##  ##      ## ##      ##   ##   ##       ##        **
 **     #######   #####   ##   #####  ##  ##  ####    ##    #####   ##        **
 **           ##                                                    ##        **
 **                                                                           **
 **                                                ... make the atoms dance   **
 **                                                                           **
 **            Copyright (C) by CP2K developers group (2000-2022)             **
 **                      J. Chem. Phys. 152, 194103 (2020)                    **
 **                                                                           **
 *******************************************************************************


 TOTAL NUMBERS AND MAXIMUM NUMBERS

  Total number of            - Atomic kinds:                                   2
                             - Atoms:                                          3
                             - Shell sets:                                    56
                             - Shells:                                        56
                             - Primitive Cartesian functions:                 88
                             - Cartesian basis functions:                    260
                             - Spherical basis functions:                    202

  Maximum angular momentum of- Orbital basis functions:                        4
                             - Local part of the GTH pseudopotential:          2
                             - Non-local part of the GTH pseudopotential:      4


 SCF PARAMETERS         Density guess:                                    ATOMIC
                        --------------------------------------------------------
                        max_scf:                                              20
                        max_scf_history:                                       0
                        max_diis:                                              4
                        --------------------------------------------------------
                        eps_scf:                                        1.00E-07
                        eps_scf_history:                                0.00E+00
                        eps_diis:                                       1.00E-01
                        eps_eigval:                                     1.00E-05
                        --------------------------------------------------------
                        level_shift [a.u.]:                             0.000000
                        --------------------------------------------------------
                        Outer loop SCF in use 
                        No variables optimised in outer loop
                        eps_scf                                         1.00E-07
                        max_scf                                                5
                        No outer loop optimization
                        step_size                                       5.00E-01

 Spin 1

 Number of electrons:                                                         17
 Number of occupied orbitals:                                                 17
 Number of molecular orbitals:                                                17

 Spin 2

 Number of electrons:                                                         15
 Number of occupied orbitals:                                                 15
 Number of molecular orbitals:                                                15

 Number of orbital functions:                                                202
 Number of independent orbital functions:                                    202

 Extrapolation method: initial_guess


 SCF WAVEFUNCTION OPTIMIZATION

  ----------------------------------- OT ---------------------------------------
  Minimizer      : DIIS                : direct inversion
                                         in the iterative subspace
                                         using   7 DIIS vectors
                                         safer DIIS on
  Preconditioner : FULL_ALL            : diagonalization, state selective
  Precond_solver : DEFAULT
  stepsize       :    0.10000000                  energy_gap     :    0.08000000
  eps_taylor     :   0.10000E-15                  max_taylor     :             4
  ----------------------------------- OT ---------------------------------------

  Step     Update method      Time    Convergence         Total energy    Change
  ------------------------------------------------------------------------------
     1 OT DIIS     0.10E+00    1.2     0.09158851      -230.2002055802 -2.30E+02
     2 OT DIIS     0.10E+00    1.4     0.06908518      -234.9634822017 -4.76E+00
     3 OT DIIS     0.10E+00    1.4     0.01616452      -240.3574287951 -5.39E+00
     4 OT DIIS     0.10E+00    1.4     0.01352344      -240.4811790333 -1.24E-01
     5 OT DIIS     0.10E+00    1.4     0.00680193      -240.8667553839 -3.86E-01
     6 OT DIIS     0.10E+00    1.4     0.00582310      -240.9311192371 -6.44E-02
     7 OT DIIS     0.10E+00    1.4     0.00458548      -241.0083855935 -7.73E-02
     8 OT DIIS     0.10E+00    1.4     0.00381226      -241.0743213896 -6.59E-02
     9 OT DIIS     0.10E+00    1.4     0.00306953      -241.1432841740 -6.90E-02
    10 OT DIIS     0.10E+00    1.4     0.00285823      -241.1683915532 -2.51E-02
    11 OT DIIS     0.10E+00    1.4     0.00245726      -241.2056309532 -3.72E-02
    12 OT DIIS     0.10E+00    1.4     0.00222670      -241.2322820084 -2.67E-02
    13 OT DIIS     0.10E+00    1.4     0.00184876      -241.2729909404 -4.07E-02
    14 OT DIIS     0.10E+00    1.4     0.00184428      -241.2856979400 -1.27E-02
    15 OT DIIS     0.10E+00    1.4     0.00170625      -241.2943548103 -8.66E-03
    16 OT DIIS     0.10E+00    1.4     0.00171398      -241.2943683715 -1.36E-05
    17 OT DIIS     0.10E+00    1.4     0.00162368      -241.2997232849 -5.35E-03
    18 OT DIIS     0.10E+00    1.4     0.00145685      -241.3294030213 -2.97E-02
    19 OT DIIS     0.10E+00    1.4     0.00140309      -241.3317924137 -2.39E-03
    20 OT DIIS     0.10E+00    1.4     0.00138418      -241.3342085492 -2.42E-03

  Leaving inner SCF loop after reaching    20 steps.


  Electronic density on regular grids:        -29.4670319356        2.5329680644
  Core density on regular grids:               32.0000000000        0.0000000000
  Hard and soft densities (Lebedev):          -60.5218948238      -57.9889266344
  Total Rho_soft + Rho1_hard - Rho1_soft      -32.0000001249
  Total charge density (r-space):              -0.0000001249
  Total Rho_soft + Rho0_soft (g-space):        -0.0000003928

  Overlap energy of the core charge distribution:               0.00000124721741
  Self energy of the core charge distribution:               -284.59133833057956
  Core Hamiltonian energy:                                     16.46672533302111
  Hartree energy:                                             171.11257944182879
  Exchange-correlation energy:                                -17.79281059108168

  GAPW| Exc from hard and soft atomic rho1:                    -8.44601414859484
  GAPW| local Eh = 1 center integrals:                       -118.08335150096980

  Total energy:                                              -241.33420854915860

  outer SCF iter =    1 RMS gradient =   0.14E-02 energy =       -241.3342085492

  ----------------------------------- OT ---------------------------------------
  Minimizer      : DIIS                : direct inversion
                                         in the iterative subspace
                                         using   7 DIIS vectors
                                         safer DIIS on
  Preconditioner : FULL_ALL            : diagonalization, state selective
  Precond_solver : DEFAULT
  stepsize       :    0.10000000                  energy_gap     :    0.08000000
  eps_taylor     :   0.10000E-15                  max_taylor     :             4
  ----------------------------------- OT ---------------------------------------

  Step     Update method      Time    Convergence         Total energy    Change
  ------------------------------------------------------------------------------
     1 OT DIIS     0.10E+00    2.9     0.00662564      -241.3564510995 -2.22E-02
     2 OT DIIS     0.10E+00    1.4     0.00602733      -241.3835024952 -2.71E-02
     3 OT DIIS     0.10E+00    1.4     0.00441370      -241.4357612005 -5.23E-02
     4 OT DIIS     0.10E+00    1.4     0.00571832      -241.4297783569  5.98E-03
     5 OT DIIS     0.10E+00    1.4     0.00509454      -241.4493909621 -1.96E-02
     6 OT DIIS     0.10E+00    1.4     0.00227180      -241.4684354947 -1.90E-02
     7 OT DIIS     0.10E+00    1.4     0.00174207      -241.4714512298 -3.02E-03
     8 OT DIIS     0.10E+00    1.4     0.00156937      -241.4741401260 -2.69E-03
     9 OT DIIS     0.10E+00    1.4     0.00079802      -241.4768413619 -2.70E-03
    10 OT DIIS     0.10E+00    1.4     0.00071495      -241.4773116067 -4.70E-04
    11 OT DIIS     0.10E+00    1.4     0.00052630      -241.4786895512 -1.38E-03
    12 OT DIIS     0.10E+00    1.4     0.00047038      -241.4796403052 -9.51E-04
    13 OT DIIS     0.10E+00    1.4     0.00038087      -241.4800330482 -3.93E-04
    14 OT DIIS     0.10E+00    1.4     0.00027932      -241.4805165592 -4.84E-04
    15 OT DIIS     0.10E+00    1.4     0.00019949      -241.4806599964 -1.43E-04
    16 OT DIIS     0.10E+00    1.4     0.00013296      -241.4808321715 -1.72E-04
    17 OT DIIS     0.10E+00    1.4     0.00010479      -241.4808770891 -4.49E-05
    18 OT DIIS     0.10E+00    1.4     0.00007358      -241.4809111621 -3.41E-05
    19 OT DIIS     0.10E+00    1.4     0.00006317      -241.4809218500 -1.07E-05
    20 OT DIIS     0.10E+00    1.4     0.00003883      -241.4809332342 -1.14E-05

  Leaving inner SCF loop after reaching    20 steps.


  Electronic density on regular grids:        -29.5146794085        2.4853205915
  Core density on regular grids:               32.0000000000        0.0000000000
  Hard and soft densities (Lebedev):          -61.0246799662      -58.5393587847
  Total Rho_soft + Rho1_hard - Rho1_soft      -32.0000005900
  Total charge density (r-space):              -0.0000005900
  Total Rho_soft + Rho0_soft (g-space):        -0.0000008583

  Overlap energy of the core charge distribution:               0.00000124721741
  Self energy of the core charge distribution:               -284.59133833057956
  Core Hamiltonian energy:                                     16.10685926482855
  Hartree energy:                                             171.28372597138804
  Exchange-correlation energy:                                -17.80319513418701

  GAPW| Exc from hard and soft atomic rho1:                    -8.38742189193513
  GAPW| local Eh = 1 center integrals:                       -118.08956436091749

  Total energy:                                              -241.48093323418522

  outer SCF iter =    2 RMS gradient =   0.39E-04 energy =       -241.4809332342

  ----------------------------------- OT ---------------------------------------
  Minimizer      : DIIS                : direct inversion
                                         in the iterative subspace
                                         using   7 DIIS vectors
                                         safer DIIS on
  Preconditioner : FULL_ALL            : diagonalization, state selective
  Precond_solver : DEFAULT
  stepsize       :    0.10000000                  energy_gap     :    0.08000000
  eps_taylor     :   0.10000E-15                  max_taylor     :             4
  ----------------------------------- OT ---------------------------------------

  Step     Update method      Time    Convergence         Total energy    Change
  ------------------------------------------------------------------------------
     1 OT DIIS     0.10E+00    2.8     0.00002528      -241.4809366754 -3.44E-06
     2 OT DIIS     0.10E+00    1.4     0.00002125      -241.4809370473 -3.72E-07
     3 OT DIIS     0.10E+00    1.4     0.00001647      -241.4809375227 -4.75E-07
     4 OT DIIS     0.10E+00    1.4     0.00000949      -241.4809380609 -5.38E-07
     5 OT DIIS     0.10E+00    1.4     0.00000679      -241.4809382654 -2.05E-07
     6 OT DIIS     0.10E+00    1.4     0.00000486      -241.4809383961 -1.31E-07
     7 OT DIIS     0.10E+00    1.4     0.00000357      -241.4809384750 -7.89E-08
     8 OT DIIS     0.10E+00    1.4     0.00000225      -241.4809385270 -5.20E-08
     9 OT DIIS     0.10E+00    1.4     0.00000196      -241.4809385350 -7.94E-09
    10 OT DIIS     0.10E+00    1.4     0.00000088      -241.4809385531 -1.81E-08
    11 OT DIIS     0.10E+00    1.4     0.00000071      -241.4809385542 -1.18E-09
    12 OT DIIS     0.10E+00    1.4     0.00000038      -241.4809385556 -1.35E-09
    13 OT DIIS     0.10E+00    1.4     0.00000017      -241.4809385559 -3.46E-10
    14 OT DIIS     0.10E+00    1.4     0.00000009      -241.4809385560 -7.28E-11

  *** SCF run converged in    14 steps ***


  Electronic density on regular grids:        -29.5144514936        2.4855485064
  Core density on regular grids:               32.0000000000        0.0000000000
  Hard and soft densities (Lebedev):          -61.0255403304      -58.5399912343
  Total Rho_soft + Rho1_hard - Rho1_soft      -32.0000005896
  Total charge density (r-space):              -0.0000005896
  Total Rho_soft + Rho0_soft (g-space):        -0.0000008579

  Overlap energy of the core charge distribution:               0.00000124721741
  Self energy of the core charge distribution:               -284.59133833057956
  Core Hamiltonian energy:                                     16.10857605184512
  Hartree energy:                                             171.28255067006205
  Exchange-correlation energy:                                -17.80344155514390

  GAPW| Exc from hard and soft atomic rho1:                    -8.38770866581634
  GAPW| local Eh = 1 center integrals:                       -118.08957797359527

  Total energy:                                              -241.48093855601047

  outer SCF iter =    3 RMS gradient =   0.88E-07 energy =       -241.4809385560
  outer SCF loop converged in   3 iterations or   54 steps


  Integrated absolute spin density  :                               2.0576973892
  Ideal and single determinant S**2 :                    2.000000       2.005366

 ENERGY| Total FORCE_EVAL ( QS ) energy [a.u.]:             -241.480938556010472

 -------------------------------------------------------------------------------
 -                                                                             -
 -                                DBCSR STATISTICS                             -
 -                                                                             -
 -------------------------------------------------------------------------------
 COUNTER                                    TOTAL       BLAS       SMM       ACC
 flops    15 x    15 x    15              2855250       0.0%    100.0%      0.0%
 flops    17 x    17 x    17              4156398       0.0%    100.0%      0.0%
 flops    57 x    15 x    15              7002450       0.0%    100.0%      0.0%
 flops    57 x    88 x    15              8276400       0.0%    100.0%      0.0%
 flops    88 x    57 x    15              8276400       0.0%    100.0%      0.0%
 flops    15 x    15 x    88              8672400       0.0%    100.0%      0.0%
 flops    57 x    17 x    17              8994258       0.0%    100.0%      0.0%
 flops    57 x    88 x    17              9379920       0.0%    100.0%      0.0%
 flops    88 x    57 x    17              9379920       0.0%    100.0%      0.0%
 flops    17 x    17 x    88             11139216       0.0%    100.0%      0.0%
 flops    15 x    15 x    57             11234700       0.0%    100.0%      0.0%
 flops    88 x    88 x    15             12777600       0.0%    100.0%      0.0%
 flops    17 x    17 x    57             14430348       0.0%    100.0%      0.0%
 flops    88 x    88 x    17             14481280       0.0%    100.0%      0.0%
 flops    57 x    57 x    15             16082550       0.0%    100.0%      0.0%
 flops   145 x    15 x    15             17813250       0.0%    100.0%      0.0%
 flops    57 x    57 x    17             18226890       0.0%    100.0%      0.0%
 flops   145 x    17 x    17             22880130       0.0%    100.0%      0.0%
 flops    88 x    15 x    88             29969280       0.0%    100.0%      0.0%
 flops    88 x    17 x    88             33701888       0.0%    100.0%      0.0%
 flops    88 x    15 x    57             38823840       0.0%    100.0%      0.0%
 flops   145 x    15 x    88             43639200       0.0%    100.0%      0.0%
 flops    88 x    17 x    57             43659264       0.0%    100.0%      0.0%
 flops   145 x    17 x    88             49457760       0.0%    100.0%      0.0%
 flops    57 x    15 x    88             55978560       0.0%    100.0%      0.0%
 flops   145 x    15 x    57             56532600       0.0%    100.0%      0.0%
 flops    57 x    17 x    88             63101280       0.0%    100.0%      0.0%
 flops   145 x    17 x    57             64070280       0.0%    100.0%      0.0%
 flops    57 x    15 x    57             72517680       0.0%    100.0%      0.0%
 flops    57 x    17 x    57             81744840       0.0%    100.0%      0.0%
 flops inhomo. stacks                           0       0.0%      0.0%      0.0%
 flops total                       839.255832E+06       0.0%    100.0%      0.0%
 flops max/rank                    574.962792E+06       0.0%    100.0%      0.0%
 matmuls inhomo. stacks                         0       0.0%      0.0%      0.0%
 matmuls total                               7593       0.0%    100.0%      0.0%
 number of processed stacks                  7593       0.0%    100.0%      0.0%
 average stack size                                     0.0       1.0       0.0
 marketing flops                   886.627584E+06
 -------------------------------------------------------------------------------
 # multiplications                           2431
 max memory usage/rank             387.919872E+06
 # max total images/rank                        3
 # max 3D layers                                1
 # MPI messages exchanged                 2333760
 MPI messages size (bytes):
  total size                         2.160504E+09
  min size                           0.000000E+00
  max size                         102.080000E+03
  average size                     925.760925E+00
 MPI breakdown and total messages size (bytes):
             size <=      128             2250085                        0
       128 < size <=     8192               36532                195889056
      8192 < size <=    32768               25803                500438576
     32768 < size <=   131072               21340               1464180080
    131072 < size <=  4194304                   0                        0
   4194304 < size <= 16777216                   0                        0
  16777216 < size                               0                        0
 -------------------------------------------------------------------------------

 *** WARNING in dbcsr_mm.F:290 :: Using a non-square number of MPI ranks ***
 *** might lead to poor performance. Used ranks: 48 Suggested: 49 100    ***

 -------------------------------------------------------------------------------
 -                                                                             -
 -                      DBCSR MESSAGE PASSING PERFORMANCE                      -
 -                                                                             -
 -------------------------------------------------------------------------------
 ROUTINE             CALLS      AVE VOLUME [Bytes]
 MP_Bcast               31                     12.
 MP_Allreduce        12994                      8.
 MP_Alltoall          8681                   4922.
 MP_ISend           108264                   1680.
 MP_IRecv           107682                    915.
 -------------------------------------------------------------------------------

 -------------------------------------------------------------------------------
 -                                                                             -
 -                                GRID STATISTICS                              -
 -                                                                             -
 -------------------------------------------------------------------------------
 LP    KERNEL             BACKEND                              COUNT     PERCENT
 3     collocate ortho    REF                                  59180      10.24%
 3     integrate ortho    REF                                  58104      10.05%
 2     collocate ortho    REF                                  55550       9.61%
 2     integrate ortho    REF                                  54540       9.44%
 1     collocate ortho    REF                                  53460       9.25%
 1     integrate ortho    REF                                  52488       9.08%
 4     collocate ortho    REF                                  49280       8.53%
 4     integrate ortho    REF                                  48384       8.37%
 5     collocate ortho    REF                                  27500       4.76%
 5     integrate ortho    REF                                  27000       4.67%
 0     collocate ortho    REF                                  18810       3.25%
 0     integrate ortho    REF                                  18468       3.20%
 6     collocate ortho    REF                                  12650       2.19%
 6     integrate ortho    REF                                  12420       2.15%
 2     collocate general  REF                                   7776       1.35%
 2     integrate general  REF                                   7776       1.35%
 7     collocate ortho    REF                                   6160       1.07%
 7     integrate ortho    REF                                   6048       1.05%
 8     collocate ortho    REF                                   1210       0.21%
 8     integrate ortho    REF                                   1188       0.21%
 -------------------------------------------------------------------------------

 MEMORY| Estimated peak process memory [MiB]                                 370

 -------------------------------------------------------------------------------
 -                                                                             -
 -                         MESSAGE PASSING PERFORMANCE                         -
 -                                                                             -
 -------------------------------------------------------------------------------

 ROUTINE             CALLS      AVE VOLUME [Bytes]
 MP_Group                4
 MP_Bcast             2329                 161541.
 MP_Allreduce         5660                  62101.
 MP_Sync               200
 MP_Alltoall          2295                4454732.
 MP_ISendRecv        30738                 115392.
 MP_Wait             50624
 MP_comm_split          98
 MP_ISend            18256                 262447.
 MP_IRecv            18256                 262484.
 MP_Recv                45                   3232.
 -------------------------------------------------------------------------------


 -------------------------------------------------------------------------------
 -                                                                             -
 -                           R E F E R E N C E S                               -
 -                                                                             -
 -------------------------------------------------------------------------------
 
 CP2K version 10.0 (Development Version), the CP2K developers group (2022).
 CP2K is freely available from https://www.cp2k.org/ .

 Kuehne,Thomas D.; Iannuzzi,Marcella; Del Ben,Mauro;
 Rybkin,Vladimir V.; Seewald,Patrick; Stein,Frederick; Laino,Teodoro;
 Khaliullin,Rustam Z.; Schuett,Ole; Schiffmann,Florian; Golze,Dorothea;
 Wilhelm,Jan; Chulkov,Sergey; Bani-Hashemian,Mohammad Hossein;
 Weber,Valery; Borstnik,Urban; Taillefumier,Mathieu;
 Jakobovits,Alice Shoshana; Lazzaro,Alfio; Pabst,Hans; Mueller,Tiziano;
 Schade,Robert; Guidon,Manuel; Andermatt,Samuel; Holmberg,Nico;
 Schenter,Gregory K.; Hehn,Anna; Bussy,Augustin; Belleflamme,Fabian;
 Tabacchi,Gloria; Gloess,Andreas; Lass,Michael; Bethune,Iain;
 Mundy,Christopher J.; Plessl,Christian; Watkins,Matt;
 VandeVondele,Joost; Krack,Matthias; Hutter,Juerg. 
 The Journal of Chemical Physics, 152 (19), (2020). 
 CP2K: An electronic structure and molecular dynamics software package -
 Quickstep: Efficient and accurate electronic structure calculations.
 https://doi.org/10.1063/5.0007045

 Schuett, Ole; Messmer, Peter; Hutter, Juerg; VandeVondele, Joost. 
 Electronic Structure Calculations on Graphics Processing Units, John
 Wiley & Sons, Ltd, 173-190 (2016). 
 GPU-Accelerated Sparse Matrix-Matrix Multiplication for
 Linear Scaling Density Functional Theory.
 https://doi.org/10.1002/9781118670712.ch8

 Heinecke, A; Henry, G; Hutchinson, M; Pabst, H. 
 Proceedings of Intl. Supercomputing Conference, 981-991 (2016). 
 LIBXSMM: Accelerating Small Matrix Multiplications
 by Runtime Code Generation.
 https://doi.org/10.1109/SC.2016.83

 Borstnik, U; VandeVondele, J; Weber, V; Hutter, J. 
 PARALLEL COMPUTING, 40 (5-6), 47-58 (2014). 
 Sparse matrix multiplication: The distributed block-compressed sparse
 row library.
 https://doi.org/10.1016/j.parco.2014.03.012

 Hutter, J; Iannuzzi, M; Schiffmann, F; VandeVondele, J. 
 WIREs Comput Mol Sci., 4 (1), 15-25 (2014). 
 CP2K: atomistic simulations of condensed matter systems.
 https://doi.org/10.1002/wcms.1159

 Marek, A; Blum, V; Johanni, R; Havu, V; Lang, B; Auckenthaler, T;
 Heinecke, A; Bungartz, H; Lederer, H. 
 Journal of Physics: Condensed Matter, 26 (21), (2014). 
 The ELPA library: scalable parallel eigenvalue solutions for
 electronic structure
 theory and computational science.
 https://doi.org/10.1088/0953-8984/26/21/213201

 Krack, M. 
 THEORETICAL CHEMISTRY ACCOUNTS, 114 (1-3), 145-152 (2005). 
 Pseudopotentials for H to Kr optimized for gradient-corrected
 exchange-correlation functionals.
 https://doi.org/10.1007/s00214-005-0655-y

 Frigo, M; Johnson, SG. 
 PROCEEDINGS OF THE IEEE, 93 (2), 216-231 (2005). 
 The design and implementation of FFTW3.
 https://doi.org/10.1109/JPROC.2004.840301

 VandeVondele, J; Hutter, J. 
 JOURNAL OF CHEMICAL PHYSICS, 118 (10), 4365-4369 (2003). 
 An efficient orbital transformation method for electronic structure
 calculations.
 https://doi.org/10.1063/1.1543154

 Lippert, G; Hutter, J; Parrinello, M. 
 THEORETICAL CHEMISTRY ACCOUNTS, 103 (2), 124-140 (1999). 
 The Gaussian and augmented-plane-wave density functional method for ab
 initio molecular dynamics simulations.
 https://doi.org/10.1007/s002140050523

 Krack, M; Parrinello, M. 
 PHYSICAL CHEMISTRY CHEMICAL PHYSICS, 2 (10), 2105-2112 (2000). 
 All-electron ab-initio molecular dynamics.
 https://doi.org/10.1039/b001167n

 Hartwigsen, C; Goedecker, S; Hutter, J. 
 PHYSICAL REVIEW B, 58 (7), 3641-3662 (1998). 
 Relativistic separable dual-space Gaussian pseudopotentials from H to Rn.
 https://doi.org/10.1103/PhysRevB.58.3641

 Perdew, JP; Burke, K; Ernzerhof, M. 
 PHYSICAL REVIEW LETTERS, 77 (18), 3865-3868 (1996). 
 Generalized gradient approximation made simple.
 https://doi.org/10.1103/PhysRevLett.77.3865

 Goedecker, S; Teter, M; Hutter, J. 
 PHYSICAL REVIEW B, 54 (3), 1703-1710 (1996). 
 Separable dual-space Gaussian pseudopotentials.
 https://doi.org/10.1103/PhysRevB.54.1703


 -------------------------------------------------------------------------------
 -                                                                             -
 -                                T I M I N G                                  -
 -                                                                             -
 -------------------------------------------------------------------------------
 SUBROUTINE                       CALLS  ASD         SELF TIME        TOTAL TIME
                                MAXIMUM       AVERAGE  MAXIMUM  AVERAGE  MAXIMUM
 CP2K                                 1  1.0    0.006    0.032   76.788   76.792
 qs_energies                          1  2.0    0.000    0.000   76.542   76.546
 scf_env_do_scf                       1  3.0    0.000    0.000   75.925   75.929
 scf_env_do_scf_inner_loop           54  4.0    0.001    0.003   72.547   72.550
 qs_ks_update_qs_env                 57  5.0    0.000    0.001   57.287   57.305
 rebuild_ks_matrix                   54  6.0    0.000    0.000   57.276   57.291
 qs_ks_build_kohn_sham_matrix        54  7.0    0.011    0.014   57.276   57.291
 pw_transfer                       2008 10.3    0.215    0.269   21.693   23.278
 fft_wrap_pw1pw2                   1846 11.3    0.026    0.031   21.359   22.959
 rs_pw_transfer                     980  9.5    0.024    0.031   20.698   21.693
 fft_wrap_pw1pw2_300               1192 12.8    1.414    1.648   19.876   21.543
 qs_vxc_create                       54  8.0    0.001    0.002   18.904   18.906
 xc_vxc_pw_create                    54  9.0    0.248    0.312   18.903   18.904
 fft3d_ps                          1846 13.3    8.237    9.423   16.792   18.389
 qs_rho_update_rho                   55  5.0    0.001    0.002   15.851   15.856
 calculate_rho_elec                 110  6.0    0.060    0.065   14.980   14.981
 xc_pw_derive                       648 11.0    0.008    0.008   12.596   14.447
 sum_up_and_integrate                54  8.0    0.051    0.059   14.044   14.058
 integrate_v_rspace                 108  9.0    0.003    0.004   13.993   14.003
 density_rs2pw                      110  7.0    0.006    0.008   11.474   12.521
 prepare_gapw_den                    54  8.0    0.002    0.002   11.411   11.498
 potential_pw2rs                    108 10.0    0.008    0.009   11.212   11.226
 xc_pw_divergence                   108 10.0    0.004    0.004    8.940   10.636
 xc_rho_set_and_dset_create          54 10.0    0.256    0.296    9.273    9.879
 mp_alltoall_z22v                  1846 15.3    6.686    9.610    6.686    9.610
 rs_pw_transfer_RS2PW_300           164  9.7    4.592    5.058    7.021    8.027
 rs_pw_transfer_PW2RS_300           162 11.3    4.782    5.007    7.575    7.920
 mp_sum_d                          3169  9.3    6.929    7.635    6.929    7.635
 yz_to_x                            816 14.1    0.807    1.062    4.847    6.877
 calculate_rho_atom                 108  9.0    1.469    6.727    1.469    6.727
 mp_waitany                       18256 11.5    4.019    5.869    4.019    5.869
 calculate_vxc_atom                  54  8.0    0.054    0.473    5.717    5.717
 gaVxcgb_GC                          54  9.0    0.229    5.108    0.229    5.108
 grid_collocate_task_list           110  7.0    2.891    5.017    2.891    5.017
 mp_waitall_1                    226848 13.9    4.286    4.820    4.286    4.820
 integrate_vhg0_rspace               54  8.0    0.376    0.520    4.229    4.285
 calculate_rho0_atom                108  9.0    3.814    4.165    3.814    4.165
 x_to_yz                            812 14.8    0.924    1.041    3.554    3.999
 mp_sum_dv                         2466 13.1    2.457    3.856    2.457    3.856
 put_rho0_on_grid                    54  9.0    0.036    0.059    3.680    3.767
 xc_functional_eval                 162 10.9    0.001    0.001    3.128    3.748
 pbe_lsd_eval                       162 11.9    3.127    3.747    3.127    3.747
 init_scf_loop                        3  4.0    0.000    0.000    3.377    3.377
 dbcsr_multiply_generic            2431 10.1    0.068    0.071    3.233    3.312
 rs_pw_transfer_PW2RS_100           108 12.0    0.600    0.720    2.834    3.045
 mp_alltoall_d11v                  1991 11.9    2.346    2.860    2.346    2.860
 qs_scf_new_mos                      54  5.0    0.000    0.001    2.789    2.795
 qs_scf_loop_do_ot                   54  6.0    0.000    0.000    2.789    2.794
 rs_gather_matrices                 108 10.0    0.002    0.034    2.260    2.779
 grid_integrate_task_list           108 10.0    0.518    2.770    0.518    2.770
 ot_scf_mini                         54  7.0    0.001    0.001    2.673    2.678
 mp_sum_dm                          822  7.4    1.841    2.002    1.841    2.002
 rs_pw_transfer_RS2PW_100           110  9.0    0.527    0.755    1.834    1.878
 pw_gather_p                        926 12.9    1.584    1.833    1.584    1.833
 ot_mini                             54  8.0    0.000    0.000    1.728    1.735
 pw_scatter_p                       920 13.8    1.483    1.539    1.483    1.539
 -------------------------------------------------------------------------------

 The number of warnings for this run is : 1
 
 -------------------------------------------------------------------------------
  **** **** ******  **  PROGRAM ENDED AT                 2022-06-07 17:24:42.489
 ***** ** ***  *** **   PROGRAM RAN ON                                   tcopt10
 **    ****   ******    PROGRAM RAN BY                                    hutter
 ***** **    ** ** **   PROGRAM PROCESS ID                                 78479
  **** **  *******  **  PROGRAM STOPPED IN /data/hutter/GITHUB/BASIS/scMOLOPT/PB
                                           E/Os
