 DBCSR| CPU Multiplication driver                                           XSMM
 DBCSR| Multrec recursion limit                                              512
 DBCSR| Multiplication stack size                                           1000
 DBCSR| Maximum elements for images                                    UNLIMITED
 DBCSR| Multiplicative factor virtual images                                   1
 DBCSR| Use multiplication densification                                       T
 DBCSR| Multiplication size stacks                                             3
 DBCSR| Use memory pool for CPU allocation                                     F
 DBCSR| Number of 3D layers                                               SINGLE
 DBCSR| Use MPI memory allocation                                              F
 DBCSR| Use RMA algorithm                                                      F
 DBCSR| Use Communication thread                                               T
 DBCSR| Communication thread load                                             87
 DBCSR| MPI: My node id                                                        0
 DBCSR| MPI: Number of nodes                                                  36
 DBCSR| OMP: Current number of threads                                         1
 DBCSR| OMP: Max number of threads                                             1
 DBCSR| Split modifier for TAS multiplication algorithm                  1.0E+00


  **** **** ******  **  PROGRAM STARTED AT               2022-06-07 16:55:58.345
 ***** ** ***  *** **   PROGRAM STARTED ON                               tcopt10
 **    ****   ******    PROGRAM STARTED BY                                hutter
 ***** **    ** ** **   PROGRAM PROCESS ID                                 73671
  **** **  *******  **  PROGRAM STARTED IN /data/hutter/GITHUB/BASIS/scMOLOPT/PB
                                           E/Ta

 CP2K| version string:                   CP2K version 10.0 (Development Version)
 CP2K| source code revision number:                                  git:d19b00a
 CP2K| cp2kflags: omp libint fftw3 libxc elpa parallel mpi3 scalapack cosma xsmm
 CP2K|             spglib sirius libvori libbqb
 CP2K| is freely available from                            https://www.cp2k.org/
 CP2K| Program compiled at                      Wed 18 May 2022 12:15:59 PM CEST
 CP2K| Program compiled on                                               tcopt10
 CP2K| Program compiled for                                                local
 CP2K| Data directory path                   /data/hutter/GITHUB/TDLRI/cp2k/data
 CP2K| Input file name                                             TaO2F-ref.inp

 GLOBAL| Force Environment number                                              1
 GLOBAL| Basis set file name                                        ../def2QZVPP
 GLOBAL| Potential file name                                        ../POTENTIAL
 GLOBAL| MM Potential file name                                     MM_POTENTIAL
 GLOBAL| Coordinate file name                                      __STD_INPUT__
 GLOBAL| Method name                                                        CP2K
 GLOBAL| Project name                                                   refTaO2F
 GLOBAL| Run type                                                         ENERGY
 GLOBAL| FFT library                                                       FFTW3
 GLOBAL| Diagonalization library                                            ELPA
 GLOBAL| Minimum number of eigenvectors for ELPA usage                        16
 GLOBAL| Orthonormality check for eigenvectors                          DISABLED
 GLOBAL| Matrix multiplication library                                     COSMA
 GLOBAL| All-to-all communication in single precision                          F
 GLOBAL| FFTs using library dependent lengths                                  F
 GLOBAL| Grid backend                                                       AUTO
 GLOBAL| Global print level                                                  LOW
 GLOBAL| MPI I/O enabled                                                       T
 GLOBAL| Total number of message passing processes                            36
 GLOBAL| Number of threads for this process                                    1
 GLOBAL| This output is from process                                           0
 GLOBAL| Stack size for threads created by OpenMP (OMP_STACKSIZE)        default
 GLOBAL| CPU model name                          AMD EPYC 7401 24-Core Processor
 GLOBAL| CPUID                                                              1002

 MEMORY| system memory details [Kb]
 MEMORY|                        rank 0           min           max       average
 MEMORY| MemTotal            263969132     263969132     263969132     263969132
 MEMORY| MemFree             237109972     237109972     237109972     237109972
 MEMORY| Buffers                  2836          2836          2836          2836
 MEMORY| Cached               20346528      20346524      20346528      20346525
 MEMORY| Slab                  1476844       1476844       1476844       1476844
 MEMORY| SReclaimable           874676        874676        874676        874676
 MEMORY| MemLikelyFree       258334012     258334008     258334012     258334009


 GENERATE|  Preliminary Number of Bonds generated:                             0
 GENERATE|  Achieved consistency in connectivity generation.

 *******************************************************************************
 *******************************************************************************
 **                                                                           **
 **     #####                         ##              ##                      **
 **    ##   ##            ##          ##              ##                      **
 **   ##     ##                       ##            ######                    **
 **   ##     ##  ##   ##  ##   #####  ##  ##   ####   ##    #####    #####    **
 **   ##     ##  ##   ##  ##  ##      ## ##   ##      ##   ##   ##  ##   ##   **
 **   ##  ## ##  ##   ##  ##  ##      ####     ###    ##   ######   ######    **
 **    ##  ###   ##   ##  ##  ##      ## ##      ##   ##   ##       ##        **
 **     #######   #####   ##   #####  ##  ##  ####    ##    #####   ##        **
 **           ##                                                    ##        **
 **                                                                           **
 **                                                ... make the atoms dance   **
 **                                                                           **
 **            Copyright (C) by CP2K developers group (2000-2022)             **
 **                      J. Chem. Phys. 152, 194103 (2020)                    **
 **                                                                           **
 *******************************************************************************


 TOTAL NUMBERS AND MAXIMUM NUMBERS

  Total number of            - Atomic kinds:                                   3
                             - Atoms:                                          4
                             - Shell sets:                                    72
                             - Shells:                                        72
                             - Primitive Cartesian functions:                116
                             - Cartesian basis functions:                    322
                             - Spherical basis functions:                    252

  Maximum angular momentum of- Orbital basis functions:                        4
                             - Local part of the GTH pseudopotential:          2
                             - Non-local part of the GTH pseudopotential:      4


 SCF PARAMETERS         Density guess:                                    ATOMIC
                        --------------------------------------------------------
                        max_scf:                                              20
                        max_scf_history:                                       0
                        max_diis:                                              4
                        --------------------------------------------------------
                        eps_scf:                                        1.00E-07
                        eps_scf_history:                                0.00E+00
                        eps_diis:                                       1.00E-01
                        eps_eigval:                                     1.00E-05
                        --------------------------------------------------------
                        level_shift [a.u.]:                             0.000000
                        --------------------------------------------------------
                        Outer loop SCF in use 
                        No variables optimised in outer loop
                        eps_scf                                         1.00E-07
                        max_scf                                                5
                        No outer loop optimization
                        step_size                                       5.00E-01

 Number of electrons:                                                         38
 Number of occupied orbitals:                                                 19
 Number of molecular orbitals:                                                19

 Number of orbital functions:                                                252
 Number of independent orbital functions:                                    252

 Extrapolation method: initial_guess


 SCF WAVEFUNCTION OPTIMIZATION

  ----------------------------------- OT ---------------------------------------
  Minimizer      : DIIS                : direct inversion
                                         in the iterative subspace
                                         using   7 DIIS vectors
                                         safer DIIS on
  Preconditioner : FULL_ALL            : diagonalization, state selective
  Precond_solver : DEFAULT
  stepsize       :    0.10000000                  energy_gap     :    0.08000000
  eps_taylor     :   0.10000E-15                  max_taylor     :             4
  ----------------------------------- OT ---------------------------------------

  Step     Update method      Time    Convergence         Total energy    Change
  ------------------------------------------------------------------------------
     1 OT DIIS     0.10E+00    0.7     0.11272124      -300.3588878431 -3.00E+02
     2 OT DIIS     0.10E+00    0.9     0.06448401      -305.0617670835 -4.70E+00
     3 OT DIIS     0.10E+00    0.8     0.02111094      -307.2567652383 -2.19E+00
     4 OT DIIS     0.10E+00    0.9     0.01507956      -307.4966224150 -2.40E-01
     5 OT DIIS     0.10E+00    0.9     0.01084582      -307.7057035671 -2.09E-01
     6 OT DIIS     0.10E+00    0.9     0.00753255      -307.8789856602 -1.73E-01
     7 OT DIIS     0.10E+00    0.8     0.00606540      -307.9626388830 -8.37E-02
     8 OT DIIS     0.10E+00    0.9     0.00517733      -308.0290257138 -6.64E-02
     9 OT DIIS     0.10E+00    0.9     0.00432783      -308.0892054293 -6.02E-02
    10 OT DIIS     0.10E+00    0.8     0.00389935      -308.1267630697 -3.76E-02
    11 OT DIIS     0.10E+00    0.9     0.00338946      -308.1657955668 -3.90E-02
    12 OT DIIS     0.10E+00    0.9     0.00272845      -308.1823811285 -1.66E-02
    13 OT DIIS     0.10E+00    0.9     0.00235027      -308.2113994756 -2.90E-02
    14 OT DIIS     0.10E+00    0.8     0.00181464      -308.2223034956 -1.09E-02
    15 OT DIIS     0.10E+00    0.9     0.00172040      -308.2350638455 -1.28E-02
    16 OT DIIS     0.10E+00    0.8     0.00121513      -308.2418772394 -6.81E-03
    17 OT DIIS     0.10E+00    0.8     0.00101868      -308.2471336634 -5.26E-03
    18 OT DIIS     0.10E+00    0.8     0.00100097      -308.2512779410 -4.14E-03
    19 OT DIIS     0.10E+00    0.8     0.00135822      -308.2509858034  2.92E-04
    20 OT DIIS     0.10E+00    0.8     0.00071653      -308.2533404123 -2.35E-03

  Leaving inner SCF loop after reaching    20 steps.


  Electronic density on regular grids:        -31.6787147366        6.3212852634
  Core density on regular grids:               38.0000000000        0.0000000000
  Hard and soft densities (Lebedev):          -56.0434134688      -49.7221287666
  Total Rho_soft + Rho1_hard - Rho1_soft      -37.9999994388
  Total charge density (r-space):               0.0000005612
  Total Rho_soft + Rho0_soft (g-space):         0.0000002586

  Overlap energy of the core charge distribution:               0.00000192115723
  Self energy of the core charge distribution:               -337.02010017629681
  Core Hamiltonian energy:                                      0.26544089839201
  Hartree energy:                                             137.43311193517010
  Exchange-correlation energy:                                -17.83529935403662

  GAPW| Exc from hard and soft atomic rho1:                   -16.22327342304125
  GAPW| local Eh = 1 center integrals:                        -74.87322221359933

  Total energy:                                              -308.25334041225472

  outer SCF iter =    1 RMS gradient =   0.72E-03 energy =       -308.2533404123

  ----------------------------------- OT ---------------------------------------
  Minimizer      : DIIS                : direct inversion
                                         in the iterative subspace
                                         using   7 DIIS vectors
                                         safer DIIS on
  Preconditioner : FULL_ALL            : diagonalization, state selective
  Precond_solver : DEFAULT
  stepsize       :    0.10000000                  energy_gap     :    0.08000000
  eps_taylor     :   0.10000E-15                  max_taylor     :             4
  ----------------------------------- OT ---------------------------------------

  Step     Update method      Time    Convergence         Total energy    Change
  ------------------------------------------------------------------------------
     1 OT DIIS     0.10E+00    1.7     0.00285773      -308.2533896070 -4.92E-05
     2 OT DIIS     0.10E+00    0.8     0.00196874      -308.2561486545 -2.76E-03
     3 OT DIIS     0.10E+00    0.9     0.00146393      -308.2571123966 -9.64E-04
     4 OT DIIS     0.10E+00    0.9     0.00058954      -308.2578573005 -7.45E-04
     5 OT DIIS     0.10E+00    0.8     0.00014068      -308.2578957528 -3.85E-05
     6 OT DIIS     0.10E+00    0.8     0.00007328      -308.2578992616 -3.51E-06
     7 OT DIIS     0.10E+00    0.8     0.00003849      -308.2579008477 -1.59E-06
     8 OT DIIS     0.10E+00    0.8     0.00002122      -308.2579010684 -2.21E-07
     9 OT DIIS     0.10E+00    0.9     0.00000440      -308.2579011584 -9.01E-08
    10 OT DIIS     0.10E+00    0.8     0.00000236      -308.2579011666 -8.18E-09
    11 OT DIIS     0.10E+00    0.8     0.00000082      -308.2579011683 -1.67E-09
    12 OT DIIS     0.10E+00    0.8     0.00000027      -308.2579011688 -5.59E-10
    13 OT DIIS     0.10E+00    0.8     0.00000012      -308.2579011689 -4.95E-11
    14 OT DIIS     0.10E+00    0.9     0.00000007      -308.2579011689 -8.47E-12

  *** SCF run converged in    14 steps ***


  Electronic density on regular grids:        -31.6755613592        6.3244386408
  Core density on regular grids:               38.0000000000        0.0000000000
  Hard and soft densities (Lebedev):          -56.0225455647      -49.6981075239
  Total Rho_soft + Rho1_hard - Rho1_soft      -37.9999994000
  Total charge density (r-space):               0.0000006000
  Total Rho_soft + Rho0_soft (g-space):         0.0000002974

  Overlap energy of the core charge distribution:               0.00000192115723
  Self energy of the core charge distribution:               -337.02010017629681
  Core Hamiltonian energy:                                      0.29013153028836
  Hartree energy:                                             137.41771142998454
  Exchange-correlation energy:                                -17.83896479134767

  GAPW| Exc from hard and soft atomic rho1:                   -16.22677676061880
  GAPW| local Eh = 1 center integrals:                        -74.87990432206375

  Total energy:                                              -308.25790116889692

  outer SCF iter =    2 RMS gradient =   0.66E-07 energy =       -308.2579011689
  outer SCF loop converged in   2 iterations or   34 steps


 ENERGY| Total FORCE_EVAL ( QS ) energy [a.u.]:             -308.257901168896922

 -------------------------------------------------------------------------------
 -                                                                             -
 -                                DBCSR STATISTICS                             -
 -                                                                             -
 -------------------------------------------------------------------------------
 COUNTER                                    TOTAL       BLAS       SMM       ACC
 flops    19 x    19 x    19              4156554       0.0%    100.0%      0.0%
 flops    81 x    57 x    19              6140610       0.0%    100.0%      0.0%
 flops    19 x    19 x    81              8070516       0.0%    100.0%      0.0%
 flops    81 x    81 x    19              8726130       0.0%    100.0%      0.0%
 flops    81 x    19 x    19             10058904       0.0%    100.0%      0.0%
 flops    57 x    81 x    19             12281220       0.0%    100.0%      0.0%
 flops    19 x    19 x    57             17037756       0.0%    100.0%      0.0%
 flops    57 x    19 x    19             21235464       0.0%    100.0%      0.0%
 flops    57 x    57 x    19             25927020       0.0%    100.0%      0.0%
 flops    81 x    19 x    81             38394972       0.0%    100.0%      0.0%
 flops    81 x    19 x    57             81056052       0.0%    100.0%      0.0%
 flops    57 x    19 x    81             81056052       0.0%    100.0%      0.0%
 flops    57 x    19 x    57            171118332       0.0%    100.0%      0.0%
 flops inhomo. stacks                           0       0.0%      0.0%      0.0%
 flops total                       485.259582E+06       0.0%    100.0%      0.0%
 flops max/rank                    167.500884E+06       0.0%    100.0%      0.0%
 matmuls inhomo. stacks                         0       0.0%      0.0%      0.0%
 matmuls total                               4357       0.0%    100.0%      0.0%
 number of processed stacks                  4357       0.0%    100.0%      0.0%
 average stack size                                     0.0       1.0       0.0
 marketing flops                   517.008192E+06
 -------------------------------------------------------------------------------
 # multiplications                            804
 max memory usage/rank             402.513920E+06
 # max total images/rank                        1
 # max 3D layers                                1
 # MPI messages exchanged                  289440
 MPI messages size (bytes):
  total size                       531.120384E+06
  min size                           0.000000E+00
  max size                          52.488000E+03
  average size                       1.834993E+03
 MPI breakdown and total messages size (bytes):
             size <=      128              259790                        0
       128 < size <=     8192                3890                 11234320
      8192 < size <=    32768               20370                308826000
     32768 < size <=   131072                5390                211060080
    131072 < size <=  4194304                   0                        0
   4194304 < size <= 16777216                   0                        0
  16777216 < size                               0                        0
 -------------------------------------------------------------------------------
 -                                                                             -
 -                      DBCSR MESSAGE PASSING PERFORMANCE                      -
 -                                                                             -
 -------------------------------------------------------------------------------
 ROUTINE             CALLS      AVE VOLUME [Bytes]
 MP_Bcast               14                     12.
 MP_Allreduce         4300                      8.
 MP_Alltoall          2939                   3085.
 MP_ISend            19288                   2486.
 MP_IRecv            19288                   1520.
 -------------------------------------------------------------------------------

 -------------------------------------------------------------------------------
 -                                                                             -
 -                                GRID STATISTICS                              -
 -                                                                             -
 -------------------------------------------------------------------------------
 LP    KERNEL             BACKEND                              COUNT     PERCENT
 2     collocate ortho    REF                                  24990      10.25%
 2     integrate ortho    REF                                  24276       9.96%
 3     collocate ortho    REF                                  23660       9.71%
 1     collocate ortho    REF                                  23555       9.67%
 3     integrate ortho    REF                                  22984       9.43%
 1     integrate ortho    REF                                  22882       9.39%
 4     collocate ortho    REF                                  18165       7.45%
 4     integrate ortho    REF                                  17646       7.24%
 0     collocate ortho    REF                                  11025       4.52%
 0     integrate ortho    REF                                  10710       4.39%
 5     collocate ortho    REF                                   9940       4.08%
 5     integrate ortho    REF                                   9656       3.96%
 6     collocate ortho    REF                                   4900       2.01%
 2     collocate general  REF                                   4896       2.01%
 2     integrate general  REF                                   4896       2.01%
 6     integrate ortho    REF                                   4760       1.95%
 7     collocate ortho    REF                                   1855       0.76%
 7     integrate ortho    REF                                   1802       0.74%
 8     collocate ortho    REF                                    560       0.23%
 8     integrate ortho    REF                                    544       0.22%
 -------------------------------------------------------------------------------

 MEMORY| Estimated peak process memory [MiB]                                 384

 -------------------------------------------------------------------------------
 -                                                                             -
 -                         MESSAGE PASSING PERFORMANCE                         -
 -                                                                             -
 -------------------------------------------------------------------------------

 ROUTINE             CALLS      AVE VOLUME [Bytes]
 MP_Group                4
 MP_Bcast             1142                 372285.
 MP_Allreduce         2956                  85073.
 MP_Sync                80
 MP_Alltoall           698                6441090.
 MP_ISendRecv         7245                 115968.
 MP_Wait             13958
 MP_comm_split          38
 MP_ISend             6028                 381731.
 MP_IRecv             6028                 381731.
 MP_Recv                 8                   8064.
 -------------------------------------------------------------------------------


 -------------------------------------------------------------------------------
 -                                                                             -
 -                           R E F E R E N C E S                               -
 -                                                                             -
 -------------------------------------------------------------------------------
 
 CP2K version 10.0 (Development Version), the CP2K developers group (2022).
 CP2K is freely available from https://www.cp2k.org/ .

 Kuehne,Thomas D.; Iannuzzi,Marcella; Del Ben,Mauro;
 Rybkin,Vladimir V.; Seewald,Patrick; Stein,Frederick; Laino,Teodoro;
 Khaliullin,Rustam Z.; Schuett,Ole; Schiffmann,Florian; Golze,Dorothea;
 Wilhelm,Jan; Chulkov,Sergey; Bani-Hashemian,Mohammad Hossein;
 Weber,Valery; Borstnik,Urban; Taillefumier,Mathieu;
 Jakobovits,Alice Shoshana; Lazzaro,Alfio; Pabst,Hans; Mueller,Tiziano;
 Schade,Robert; Guidon,Manuel; Andermatt,Samuel; Holmberg,Nico;
 Schenter,Gregory K.; Hehn,Anna; Bussy,Augustin; Belleflamme,Fabian;
 Tabacchi,Gloria; Gloess,Andreas; Lass,Michael; Bethune,Iain;
 Mundy,Christopher J.; Plessl,Christian; Watkins,Matt;
 VandeVondele,Joost; Krack,Matthias; Hutter,Juerg. 
 The Journal of Chemical Physics, 152 (19), (2020). 
 CP2K: An electronic structure and molecular dynamics software package -
 Quickstep: Efficient and accurate electronic structure calculations.
 https://doi.org/10.1063/5.0007045

 Schuett, Ole; Messmer, Peter; Hutter, Juerg; VandeVondele, Joost. 
 Electronic Structure Calculations on Graphics Processing Units, John
 Wiley & Sons, Ltd, 173-190 (2016). 
 GPU-Accelerated Sparse Matrix-Matrix Multiplication for
 Linear Scaling Density Functional Theory.
 https://doi.org/10.1002/9781118670712.ch8

 Heinecke, A; Henry, G; Hutchinson, M; Pabst, H. 
 Proceedings of Intl. Supercomputing Conference, 981-991 (2016). 
 LIBXSMM: Accelerating Small Matrix Multiplications
 by Runtime Code Generation.
 https://doi.org/10.1109/SC.2016.83

 Borstnik, U; VandeVondele, J; Weber, V; Hutter, J. 
 PARALLEL COMPUTING, 40 (5-6), 47-58 (2014). 
 Sparse matrix multiplication: The distributed block-compressed sparse
 row library.
 https://doi.org/10.1016/j.parco.2014.03.012

 Hutter, J; Iannuzzi, M; Schiffmann, F; VandeVondele, J. 
 WIREs Comput Mol Sci., 4 (1), 15-25 (2014). 
 CP2K: atomistic simulations of condensed matter systems.
 https://doi.org/10.1002/wcms.1159

 Marek, A; Blum, V; Johanni, R; Havu, V; Lang, B; Auckenthaler, T;
 Heinecke, A; Bungartz, H; Lederer, H. 
 Journal of Physics: Condensed Matter, 26 (21), (2014). 
 The ELPA library: scalable parallel eigenvalue solutions for
 electronic structure
 theory and computational science.
 https://doi.org/10.1088/0953-8984/26/21/213201

 Krack, M. 
 THEORETICAL CHEMISTRY ACCOUNTS, 114 (1-3), 145-152 (2005). 
 Pseudopotentials for H to Kr optimized for gradient-corrected
 exchange-correlation functionals.
 https://doi.org/10.1007/s00214-005-0655-y

 Frigo, M; Johnson, SG. 
 PROCEEDINGS OF THE IEEE, 93 (2), 216-231 (2005). 
 The design and implementation of FFTW3.
 https://doi.org/10.1109/JPROC.2004.840301

 VandeVondele, J; Hutter, J. 
 JOURNAL OF CHEMICAL PHYSICS, 118 (10), 4365-4369 (2003). 
 An efficient orbital transformation method for electronic structure
 calculations.
 https://doi.org/10.1063/1.1543154

 Lippert, G; Hutter, J; Parrinello, M. 
 THEORETICAL CHEMISTRY ACCOUNTS, 103 (2), 124-140 (1999). 
 The Gaussian and augmented-plane-wave density functional method for ab
 initio molecular dynamics simulations.
 https://doi.org/10.1007/s002140050523

 Krack, M; Parrinello, M. 
 PHYSICAL CHEMISTRY CHEMICAL PHYSICS, 2 (10), 2105-2112 (2000). 
 All-electron ab-initio molecular dynamics.
 https://doi.org/10.1039/b001167n

 Hartwigsen, C; Goedecker, S; Hutter, J. 
 PHYSICAL REVIEW B, 58 (7), 3641-3662 (1998). 
 Relativistic separable dual-space Gaussian pseudopotentials from H to Rn.
 https://doi.org/10.1103/PhysRevB.58.3641

 Perdew, JP; Burke, K; Ernzerhof, M. 
 PHYSICAL REVIEW LETTERS, 77 (18), 3865-3868 (1996). 
 Generalized gradient approximation made simple.
 https://doi.org/10.1103/PhysRevLett.77.3865

 Goedecker, S; Teter, M; Hutter, J. 
 PHYSICAL REVIEW B, 54 (3), 1703-1710 (1996). 
 Separable dual-space Gaussian pseudopotentials.
 https://doi.org/10.1103/PhysRevB.54.1703


 -------------------------------------------------------------------------------
 -                                                                             -
 -                                T I M I N G                                  -
 -                                                                             -
 -------------------------------------------------------------------------------
 SUBROUTINE                       CALLS  ASD         SELF TIME        TOTAL TIME
                                MAXIMUM       AVERAGE  MAXIMUM  AVERAGE  MAXIMUM
 CP2K                                 1  1.0    0.009    0.031   29.552   29.553
 qs_energies                          1  2.0    0.000    0.000   29.257   29.257
 scf_env_do_scf                       1  3.0    0.000    0.000   28.812   28.812
 scf_env_do_scf_inner_loop           34  4.0    0.001    0.002   27.397   27.397
 qs_ks_update_qs_env                 36  5.0    0.000    0.000   23.394   23.399
 rebuild_ks_matrix                   34  6.0    0.000    0.000   23.389   23.393
 qs_ks_build_kohn_sham_matrix        34  7.0    0.007    0.008   23.389   23.392
 pw_transfer                        719 10.1    0.073    0.089    8.599    9.258
 fft_wrap_pw1pw2                    617 11.3    0.009    0.010    8.448    9.116
 fft_wrap_pw1pw2_300                410 12.7    0.539    0.615    7.920    8.541
 fft3d_ps                           617 13.3    3.298    3.718    6.525    7.375
 qs_vxc_create                       34  8.0    0.001    0.001    7.337    7.337
 xc_vxc_pw_create                    34  9.0    0.048    0.052    7.336    7.337
 rs_pw_transfer                     344  9.5    0.009    0.012    6.818    7.074
 prepare_gapw_den                    34  8.0    0.001    0.001    5.682    5.724
 xc_pw_derive                       204 11.0    0.002    0.003    4.536    5.234
 qs_rho_update_rho                   35  5.0    0.001    0.001    4.680    4.684
 calculate_rho_elec                  35  6.0    0.025    0.025    4.506    4.506
 xc_rho_set_and_dset_create          34 10.0    0.048    0.057    3.927    4.219
 xc_pw_divergence                    34 10.0    0.001    0.001    3.200    3.897
 mp_sum_d                          1531  7.8    3.468    3.768    3.468    3.768
 density_rs2pw                       35  7.0    0.002    0.002    3.480    3.728
 mp_alltoall_z22v                   617 15.3    2.495    3.692    2.495    3.692
 sum_up_and_integrate                34  8.0    0.017    0.022    3.672    3.677
 integrate_v_rspace                  34  9.0    0.001    0.001    3.655    3.660
 potential_pw2rs                     34 10.0    0.003    0.003    3.116    3.119
 calculate_rho_atom                 102  9.0    1.145    3.103    1.145    3.103
 rs_pw_transfer_RS2PW_300            69 10.0    1.465    1.874    2.697    2.954
 rs_pw_transfer_PW2RS_300            68 11.0    1.484    1.787    2.759    2.883
 mp_waitany                        6028 11.5    1.966    2.748    1.966    2.748
 calculate_vxc_atom                  34  8.0    0.029    0.271    2.719    2.719
 yz_to_x                            310 13.9    0.329    0.416    1.791    2.718
 integrate_vhg0_rspace               34  8.0    0.268    0.350    2.386    2.409
 gaVxcgb_GC                          68  9.0    0.116    2.322    0.116    2.322
 put_rho0_on_grid                    34  9.0    0.029    0.044    2.195    2.236
 xc_functional_eval                 170 10.8    0.001    0.001    1.718    2.031
 pbe_lda_eval                       170 11.8    1.717    2.031    1.717    2.031
 mp_sum_dv                         1274 13.0    1.473    1.733    1.473    1.733
 x_to_yz                            307 14.7    0.380    0.436    1.412    1.672
 init_scf_loop                        2  4.0    0.000    0.000    1.414    1.414
 mp_waitall_1                     59386 13.9    1.009    1.338    1.009    1.338
 grid_collocate_task_list            35  7.0    0.805    1.325    0.805    1.325
 calculate_rho0_atom                102  9.0    0.877    1.082    0.877    1.082
 mp_sum_dm                          416  7.7    0.687    0.914    0.687    0.914
 pw_gather_p                        310 12.9    0.687    0.848    0.687    0.848
 rs_pw_transfer_PW2RS_100            34 12.0    0.132    0.162    0.651    0.821
 qs_scf_new_mos                      34  5.0    0.000    0.000    0.788    0.791
 qs_scf_loop_do_ot                   34  6.0    0.000    0.000    0.788    0.791
 rs_grid_zero                       136 10.8    0.647    0.762    0.647    0.762
 ot_scf_mini                         34  7.0    0.000    0.000    0.758    0.762
 dbcsr_multiply_generic             804 10.1    0.022    0.023    0.736    0.752
 pw_scatter_p                       307 13.7    0.666    0.748    0.666    0.748
 -------------------------------------------------------------------------------

 The number of warnings for this run is : 0
 
 -------------------------------------------------------------------------------
  **** **** ******  **  PROGRAM ENDED AT                 2022-06-07 16:56:28.296
 ***** ** ***  *** **   PROGRAM RAN ON                                   tcopt10
 **    ****   ******    PROGRAM RAN BY                                    hutter
 ***** **    ** ** **   PROGRAM PROCESS ID                                 73671
  **** **  *******  **  PROGRAM STOPPED IN /data/hutter/GITHUB/BASIS/scMOLOPT/PB
                                           E/Ta
