 DBCSR| CPU Multiplication driver                                           XSMM
 DBCSR| Multrec recursion limit                                              512
 DBCSR| Multiplication stack size                                           1000
 DBCSR| Maximum elements for images                                    UNLIMITED
 DBCSR| Multiplicative factor virtual images                                   1
 DBCSR| Use multiplication densification                                       T
 DBCSR| Multiplication size stacks                                             3
 DBCSR| Use memory pool for CPU allocation                                     F
 DBCSR| Number of 3D layers                                               SINGLE
 DBCSR| Use MPI memory allocation                                              F
 DBCSR| Use RMA algorithm                                                      F
 DBCSR| Use Communication thread                                               T
 DBCSR| Communication thread load                                             87
 DBCSR| MPI: My node id                                                        0
 DBCSR| MPI: Number of nodes                                                  12
 DBCSR| OMP: Current number of threads                                         1
 DBCSR| OMP: Max number of threads                                             1
 DBCSR| Split modifier for TAS multiplication algorithm                  1.0E+00


  **** **** ******  **  PROGRAM STARTED AT               2022-05-12 11:19:45.548
 ***** ** ***  *** **   PROGRAM STARTED ON                               tcopt10
 **    ****   ******    PROGRAM STARTED BY                                hutter
 ***** **    ** ** **   PROGRAM PROCESS ID                                 53696
  **** **  *******  **  PROGRAM STARTED IN /data/hutter/GITHUB/BASIS/scMOLOPT/PB
                                           E/Li

 CP2K| version string:                   CP2K version 10.0 (Development Version)
 CP2K| source code revision number:                                  git:13fcfd8
 CP2K| cp2kflags: omp libint fftw3 libxc elpa parallel mpi3 scalapack cosma xsmm
 CP2K|             spglib sirius libvori libbqb
 CP2K| is freely available from                            https://www.cp2k.org/
 CP2K| Program compiled at                      Tue 10 May 2022 02:27:21 PM CEST
 CP2K| Program compiled on                                               tcopt10
 CP2K| Program compiled for                                                local
 CP2K| Data directory path                   /data/hutter/GITHUB/TDLRI/cp2k/data
 CP2K| Input file name                                              Li2O-ref.inp

 GLOBAL| Force Environment number                                              1
 GLOBAL| Basis set file name                                        ../def2QZVPP
 GLOBAL| Potential file name                                        ../POTENTIAL
 GLOBAL| MM Potential file name                                     MM_POTENTIAL
 GLOBAL| Coordinate file name                                      __STD_INPUT__
 GLOBAL| Method name                                                        CP2K
 GLOBAL| Project name                                                  refLi2Oq3
 GLOBAL| Run type                                                         ENERGY
 GLOBAL| FFT library                                                       FFTW3
 GLOBAL| Diagonalization library                                            ELPA
 GLOBAL| Minimum number of eigenvectors for ELPA usage                        16
 GLOBAL| Orthonormality check for eigenvectors                          DISABLED
 GLOBAL| Matrix multiplication library                                     COSMA
 GLOBAL| All-to-all communication in single precision                          F
 GLOBAL| FFTs using library dependent lengths                                  F
 GLOBAL| Grid backend                                                       AUTO
 GLOBAL| Global print level                                                  LOW
 GLOBAL| MPI I/O enabled                                                       T
 GLOBAL| Total number of message passing processes                            12
 GLOBAL| Number of threads for this process                                    1
 GLOBAL| This output is from process                                           0
 GLOBAL| Stack size for threads created by OpenMP (OMP_STACKSIZE)        default
 GLOBAL| CPU model name                          AMD EPYC 7401 24-Core Processor
 GLOBAL| CPUID                                                              1002

 MEMORY| system memory details [Kb]
 MEMORY|                        rank 0           min           max       average
 MEMORY| MemTotal            263969136     263969136     263969136     263969136
 MEMORY| MemFree             230517320     230517320     230517320     230517320
 MEMORY| Buffers                   136           136           136           136
 MEMORY| Cached               18917012      18917008      18917012      18917008
 MEMORY| Slab                  1424476       1424476       1424476       1424476
 MEMORY| SReclaimable           871980        871980        871980        871980
 MEMORY| MemLikelyFree       250306448     250306444     250306448     250306444


 GENERATE|  Preliminary Number of Bonds generated:                             0
 GENERATE|  Achieved consistency in connectivity generation.

 *******************************************************************************
 *******************************************************************************
 **                                                                           **
 **     #####                         ##              ##                      **
 **    ##   ##            ##          ##              ##                      **
 **   ##     ##                       ##            ######                    **
 **   ##     ##  ##   ##  ##   #####  ##  ##   ####   ##    #####    #####    **
 **   ##     ##  ##   ##  ##  ##      ## ##   ##      ##   ##   ##  ##   ##   **
 **   ##  ## ##  ##   ##  ##  ##      ####     ###    ##   ######   ######    **
 **    ##  ###   ##   ##  ##  ##      ## ##      ##   ##   ##       ##        **
 **     #######   #####   ##   #####  ##  ##  ####    ##    #####   ##        **
 **           ##                                                    ##        **
 **                                                                           **
 **                                                ... make the atoms dance   **
 **                                                                           **
 **            Copyright (C) by CP2K developers group (2000-2022)             **
 **                      J. Chem. Phys. 152, 194103 (2020)                    **
 **                                                                           **
 *******************************************************************************


 TOTAL NUMBERS AND MAXIMUM NUMBERS

  Total number of            - Atomic kinds:                                   2
                             - Atoms:                                          3
                             - Shell sets:                                    43
                             - Shells:                                        43
                             - Primitive Cartesian functions:                 77
                             - Cartesian basis functions:                    152
                             - Spherical basis functions:                    127

  Maximum angular momentum of the orbital basis functions:                     4


 SCF PARAMETERS         Density guess:                                    ATOMIC
                        --------------------------------------------------------
                        max_scf:                                              20
                        max_scf_history:                                       0
                        max_diis:                                              4
                        --------------------------------------------------------
                        eps_scf:                                        1.00E-07
                        eps_scf_history:                                0.00E+00
                        eps_diis:                                       1.00E-01
                        eps_eigval:                                     1.00E-05
                        --------------------------------------------------------
                        level_shift [a.u.]:                             0.000000
                        --------------------------------------------------------
                        Outer loop SCF in use 
                        No variables optimised in outer loop
                        eps_scf                                         1.00E-07
                        max_scf                                               10
                        No outer loop optimization
                        step_size                                       5.00E-01

 Number of electrons:                                                         14
 Number of occupied orbitals:                                                  7
 Number of molecular orbitals:                                                 7

 Number of orbital functions:                                                127
 Number of independent orbital functions:                                    127

 Extrapolation method: initial_guess


 SCF WAVEFUNCTION OPTIMIZATION

  ----------------------------------- OT ---------------------------------------
  Minimizer      : DIIS                : direct inversion
                                         in the iterative subspace
                                         using   7 DIIS vectors
                                         safer DIIS on
  Preconditioner : FULL_ALL            : diagonalization, state selective
  Precond_solver : DEFAULT
  stepsize       :    0.15000000                  energy_gap     :    0.08000000
  eps_taylor     :   0.10000E-15                  max_taylor     :             4
  ----------------------------------- OT ---------------------------------------

  Step     Update method      Time    Convergence         Total energy    Change
  ------------------------------------------------------------------------------
     1 OT DIIS     0.15E+00    1.1     0.09931564       -89.0091272303 -8.90E+01
     2 OT DIIS     0.15E+00    1.3     0.04309364       -89.8867666185 -8.78E-01
     3 OT DIIS     0.15E+00    1.3     0.02554197       -90.0664790927 -1.80E-01
     4 OT DIIS     0.15E+00    1.3     0.01395333       -90.1172459537 -5.08E-02
     5 OT DIIS     0.15E+00    1.3     0.00954241       -90.1608362986 -4.36E-02
     6 OT DIIS     0.15E+00    1.3     0.00655265       -90.1922933169 -3.15E-02
     7 OT DIIS     0.15E+00    1.3     0.00391220       -90.2048685273 -1.26E-02
     8 OT DIIS     0.15E+00    1.3     0.00489997       -90.2124644968 -7.60E-03
     9 OT DIIS     0.15E+00    1.3     0.00384894       -90.2123404858  1.24E-04
    10 OT DIIS     0.15E+00    1.3     0.00212517       -90.2160715060 -3.73E-03
    11 OT DIIS     0.15E+00    1.3     0.00100114       -90.2169630875 -8.92E-04
    12 OT DIIS     0.15E+00    1.3     0.00122058       -90.2175833464 -6.20E-04
    13 OT DIIS     0.15E+00    1.3     0.00098956       -90.2176768694 -9.35E-05
    14 OT DIIS     0.15E+00    1.3     0.00046425       -90.2179593820 -2.83E-04
    15 OT DIIS     0.15E+00    1.3     0.00050396       -90.2180119084 -5.25E-05
    16 OT DIIS     0.15E+00    1.3     0.00030184       -90.2180735402 -6.16E-05
    17 OT DIIS     0.15E+00    1.3     0.00010700       -90.2180904049 -1.69E-05
    18 OT DIIS     0.15E+00    1.3     0.00007215       -90.2180951058 -4.70E-06
    19 OT DIIS     0.15E+00    1.3     0.00004710       -90.2180976607 -2.55E-06
    20 OT DIIS     0.15E+00    1.3     0.00003151       -90.2180984973 -8.37E-07

  Leaving inner SCF loop after reaching    20 steps.


  Electronic density on regular grids:        -10.3453830956        3.6546169044
  Core density on regular grids:               14.0000000000        0.0000000000
  Hard and soft densities (Lebedev):          -45.6554981912      -42.0008803613
  Total Rho_soft + Rho1_hard - Rho1_soft      -14.0000009255
  Total charge density (r-space):              -0.0000009255
  Total Rho_soft + Rho0_soft (g-space):        -0.0000010189

  Overlap energy of the core charge distribution:               0.00000000092987
  Self energy of the core charge distribution:                -85.60438585769306
  Core Hamiltonian energy:                                     -5.83116399743535
  Hartree energy:                                              15.33061804894638
  Exchange-correlation energy:                                 -5.19778543099666

  GAPW| Exc from hard and soft atomic rho1:                    -7.09559167207143
  GAPW| local Eh = 1 center integrals:                         -1.81978958899020

  Total energy:                                               -90.21809849731046

  outer SCF iter =    1 RMS gradient =   0.32E-04 energy =        -90.2180984973

  ----------------------------------- OT ---------------------------------------
  Minimizer      : DIIS                : direct inversion
                                         in the iterative subspace
                                         using   7 DIIS vectors
                                         safer DIIS on
  Preconditioner : FULL_ALL            : diagonalization, state selective
  Precond_solver : DEFAULT
  stepsize       :    0.15000000                  energy_gap     :    0.08000000
  eps_taylor     :   0.10000E-15                  max_taylor     :             4
  ----------------------------------- OT ---------------------------------------

  Step     Update method      Time    Convergence         Total energy    Change
  ------------------------------------------------------------------------------
     1 OT DIIS     0.15E+00    2.7     0.00004862       -90.2180991549 -6.58E-07
     2 OT DIIS     0.15E+00    1.3     0.00005457       -90.2180992732 -1.18E-07
     3 OT DIIS     0.15E+00    1.3     0.00002357       -90.2180993390 -6.58E-08
     4 OT DIIS     0.15E+00    1.3     0.00000090       -90.2180993667 -2.77E-08
     5 OT DIIS     0.15E+00    1.3     0.00000021       -90.2180993668 -1.06E-10
     6 OT DIIS     0.15E+00    1.3     0.00000003       -90.2180993668 -6.79E-12

  *** SCF run converged in     6 steps ***


  Electronic density on regular grids:        -10.3453971650        3.6546028350
  Core density on regular grids:               14.0000000000        0.0000000000
  Hard and soft densities (Lebedev):          -45.6551889355      -42.0005851749
  Total Rho_soft + Rho1_hard - Rho1_soft      -14.0000009256
  Total charge density (r-space):              -0.0000009256
  Total Rho_soft + Rho0_soft (g-space):        -0.0000010191

  Overlap energy of the core charge distribution:               0.00000000092987
  Self energy of the core charge distribution:                -85.60438585769306
  Core Hamiltonian energy:                                     -5.83144485910996
  Hartree energy:                                              15.33082875004041
  Exchange-correlation energy:                                 -5.19772734871775

  GAPW| Exc from hard and soft atomic rho1:                    -7.09557008687513
  GAPW| local Eh = 1 center integrals:                         -1.81979996537817

  Total energy:                                               -90.21809936680377

  outer SCF iter =    2 RMS gradient =   0.33E-07 energy =        -90.2180993668
  outer SCF loop converged in   2 iterations or   26 steps


 ENERGY| Total FORCE_EVAL ( QS ) energy [a.u.]:              -90.218099366803770

 -------------------------------------------------------------------------------
 -                                                                             -
 -                                DBCSR STATISTICS                             -
 -                                                                             -
 -------------------------------------------------------------------------------
 COUNTER                                    TOTAL       BLAS       SMM       ACC
 flops     7 x     7 x     7               123480       0.0%    100.0%      0.0%
 flops    35 x     7 x     7               452760       0.0%    100.0%      0.0%
 flops     7 x     7 x    57               592116       0.0%    100.0%      0.0%
 flops     7 x     7 x    35               727160       0.0%    100.0%      0.0%
 flops    35 x    57 x     7               754110       0.0%    100.0%      0.0%
 flops    57 x    35 x     7               754110       0.0%    100.0%      0.0%
 flops    92 x     7 x     7              1190112       0.0%    100.0%      0.0%
 flops    57 x    57 x     7              1228122       0.0%    100.0%      0.0%
 flops    35 x    35 x     7              1389150       0.0%    100.0%      0.0%
 flops    57 x     7 x    57              3002076       0.0%    100.0%      0.0%
 flops    57 x     7 x    35              3686760       0.0%    100.0%      0.0%
 flops    92 x     7 x    57              4111296       0.0%    100.0%      0.0%
 flops    92 x     7 x    35              5048960       0.0%    100.0%      0.0%
 flops    35 x     7 x    57              5250840       0.0%    100.0%      0.0%
 flops    35 x     7 x    35              6448400       0.0%    100.0%      0.0%
 flops inhomo. stacks                           0       0.0%      0.0%      0.0%
 flops total                        34.759452E+06       0.0%    100.0%      0.0%
 flops max/rank                     23.817262E+06       0.0%    100.0%      0.0%
 matmuls inhomo. stacks                         0       0.0%      0.0%      0.0%
 matmuls total                               1854       0.0%    100.0%      0.0%
 number of processed stacks                  1854       0.0%    100.0%      0.0%
 average stack size                                     0.0       1.0       0.0
 marketing flops                    36.755668E+06
 -------------------------------------------------------------------------------
 # multiplications                            569
 max memory usage/rank             441.700352E+06
 # max total images/rank                        3
 # max 3D layers                                1
 # MPI messages exchanged                   54624
 MPI messages size (bytes):
  total size                        90.421584E+06
  min size                           0.000000E+00
  max size                          41.952000E+03
  average size                       1.655345E+03
 MPI breakdown and total messages size (bytes):
             size <=      128               45807                        0
       128 < size <=     8192                5157                 11712064
      8192 < size <=    32768                3050                 53118800
     32768 < size <=   131072                 610                 25590720
    131072 < size <=  4194304                   0                        0
   4194304 < size <= 16777216                   0                        0
  16777216 < size                               0                        0
 -------------------------------------------------------------------------------

 *** WARNING in dbcsr_mm.F:290 :: Using a non-square number of MPI ranks ***
 *** might lead to poor performance. Used ranks: 12 Suggested: 9 25      ***

 -------------------------------------------------------------------------------
 -                                                                             -
 -                      DBCSR MESSAGE PASSING PERFORMANCE                      -
 -                                                                             -
 -------------------------------------------------------------------------------
 ROUTINE             CALLS      AVE VOLUME [Bytes]
 MP_Bcast               16                     12.
 MP_Allreduce         3057                      8.
 MP_Alltoall          2206                   1101.
 MP_ISend            11694                   1351.
 MP_IRecv            11560                    804.
 -------------------------------------------------------------------------------

 -------------------------------------------------------------------------------
 -                                                                             -
 -                                GRID STATISTICS                              -
 -                                                                             -
 -------------------------------------------------------------------------------
 LP    KERNEL             BACKEND                              COUNT     PERCENT
 1     collocate ortho    REF                                  52920      16.27%
 1     integrate ortho    REF                                  50960      15.67%
 2     collocate ortho    REF                                  43443      13.36%
 2     integrate ortho    REF                                  41834      12.86%
 3     collocate ortho    REF                                  26190       8.05%
 0     collocate ortho    REF                                  25515       7.85%
 3     integrate ortho    REF                                  25220       7.75%
 0     integrate ortho    REF                                  24570       7.55%
 4     collocate ortho    REF                                  12258       3.77%
 4     integrate ortho    REF                                  11804       3.63%
 5     collocate ortho    REF                                   3186       0.98%
 5     integrate ortho    REF                                   3068       0.94%
 6     collocate ortho    REF                                   1026       0.32%
 6     integrate ortho    REF                                    988       0.30%
 2     collocate general  REF                                    936       0.29%
 2     integrate general  REF                                    936       0.29%
 7     collocate ortho    REF                                    162       0.05%
 7     integrate ortho    REF                                    156       0.05%
 8     collocate ortho    REF                                     27       0.01%
 8     integrate ortho    REF                                     26       0.01%
 -------------------------------------------------------------------------------

 MEMORY| Estimated peak process memory [MiB]                                 422

 -------------------------------------------------------------------------------
 -                                                                             -
 -                         MESSAGE PASSING PERFORMANCE                         -
 -                                                                             -
 -------------------------------------------------------------------------------

 ROUTINE             CALLS      AVE VOLUME [Bytes]
 MP_Group                4
 MP_Bcast              518                 301067.
 MP_Allreduce         1670                  36472.
 MP_Sync                56
 MP_Alltoall           538               18964233.
 MP_ISendRecv         1749                 338304.
 MP_Wait              3744
 MP_comm_split          26
 MP_ISend             1680                1093860.
 MP_IRecv             1680                1093860.
 MP_Recv                 6                   2032.
 -------------------------------------------------------------------------------


 -------------------------------------------------------------------------------
 -                                                                             -
 -                           R E F E R E N C E S                               -
 -                                                                             -
 -------------------------------------------------------------------------------
 
 CP2K version 10.0 (Development Version), the CP2K developers group (2022).
 CP2K is freely available from https://www.cp2k.org/ .

 Kuehne,Thomas D.; Iannuzzi,Marcella; Del Ben,Mauro;
 Rybkin,Vladimir V.; Seewald,Patrick; Stein,Frederick; Laino,Teodoro;
 Khaliullin,Rustam Z.; Schuett,Ole; Schiffmann,Florian; Golze,Dorothea;
 Wilhelm,Jan; Chulkov,Sergey; Bani-Hashemian,Mohammad Hossein;
 Weber,Valery; Borstnik,Urban; Taillefumier,Mathieu;
 Jakobovits,Alice Shoshana; Lazzaro,Alfio; Pabst,Hans; Mueller,Tiziano;
 Schade,Robert; Guidon,Manuel; Andermatt,Samuel; Holmberg,Nico;
 Schenter,Gregory K.; Hehn,Anna; Bussy,Augustin; Belleflamme,Fabian;
 Tabacchi,Gloria; Gloess,Andreas; Lass,Michael; Bethune,Iain;
 Mundy,Christopher J.; Plessl,Christian; Watkins,Matt;
 VandeVondele,Joost; Krack,Matthias; Hutter,Juerg. 
 The Journal of Chemical Physics, 152 (19), (2020). 
 CP2K: An electronic structure and molecular dynamics software package -
 Quickstep: Efficient and accurate electronic structure calculations.
 https://doi.org/10.1063/5.0007045

 Schuett, Ole; Messmer, Peter; Hutter, Juerg; VandeVondele, Joost. 
 Electronic Structure Calculations on Graphics Processing Units, John
 Wiley & Sons, Ltd, 173-190 (2016). 
 GPU-Accelerated Sparse Matrix-Matrix Multiplication for
 Linear Scaling Density Functional Theory.
 https://doi.org/10.1002/9781118670712.ch8

 Heinecke, A; Henry, G; Hutchinson, M; Pabst, H. 
 Proceedings of Intl. Supercomputing Conference, 981-991 (2016). 
 LIBXSMM: Accelerating Small Matrix Multiplications
 by Runtime Code Generation.
 https://doi.org/10.1109/SC.2016.83

 Borstnik, U; VandeVondele, J; Weber, V; Hutter, J. 
 PARALLEL COMPUTING, 40 (5-6), 47-58 (2014). 
 Sparse matrix multiplication: The distributed block-compressed sparse
 row library.
 https://doi.org/10.1016/j.parco.2014.03.012

 Hutter, J; Iannuzzi, M; Schiffmann, F; VandeVondele, J. 
 WIREs Comput Mol Sci., 4 (1), 15-25 (2014). 
 CP2K: atomistic simulations of condensed matter systems.
 https://doi.org/10.1002/wcms.1159

 Marek, A; Blum, V; Johanni, R; Havu, V; Lang, B; Auckenthaler, T;
 Heinecke, A; Bungartz, H; Lederer, H. 
 Journal of Physics: Condensed Matter, 26 (21), (2014). 
 The ELPA library: scalable parallel eigenvalue solutions for
 electronic structure
 theory and computational science.
 https://doi.org/10.1088/0953-8984/26/21/213201

 Frigo, M; Johnson, SG. 
 PROCEEDINGS OF THE IEEE, 93 (2), 216-231 (2005). 
 The design and implementation of FFTW3.
 https://doi.org/10.1109/JPROC.2004.840301

 VandeVondele, J; Hutter, J. 
 JOURNAL OF CHEMICAL PHYSICS, 118 (10), 4365-4369 (2003). 
 An efficient orbital transformation method for electronic structure
 calculations.
 https://doi.org/10.1063/1.1543154

 Lippert, G; Hutter, J; Parrinello, M. 
 THEORETICAL CHEMISTRY ACCOUNTS, 103 (2), 124-140 (1999). 
 The Gaussian and augmented-plane-wave density functional method for ab
 initio molecular dynamics simulations.
 https://doi.org/10.1007/s002140050523

 Krack, M; Parrinello, M. 
 PHYSICAL CHEMISTRY CHEMICAL PHYSICS, 2 (10), 2105-2112 (2000). 
 All-electron ab-initio molecular dynamics.
 https://doi.org/10.1039/b001167n

 Perdew, JP; Burke, K; Ernzerhof, M. 
 PHYSICAL REVIEW LETTERS, 77 (18), 3865-3868 (1996). 
 Generalized gradient approximation made simple.
 https://doi.org/10.1103/PhysRevLett.77.3865


 -------------------------------------------------------------------------------
 -                                                                             -
 -                                T I M I N G                                  -
 -                                                                             -
 -------------------------------------------------------------------------------
 SUBROUTINE                       CALLS  ASD         SELF TIME        TOTAL TIME
                                MAXIMUM       AVERAGE  MAXIMUM  AVERAGE  MAXIMUM
 CP2K                                 1  1.0    0.009    0.030   35.286   35.290
 qs_energies                          1  2.0    0.000    0.000   34.953   34.957
 scf_env_do_scf                       1  3.0    0.000    0.000   34.539   34.543
 scf_env_do_scf_inner_loop           26  4.0    0.001    0.002   32.309   32.313
 qs_ks_update_qs_env                 28  5.0    0.000    0.000   28.053   28.055
 rebuild_ks_matrix                   26  6.0    0.000    0.000   28.050   28.054
 qs_ks_build_kohn_sham_matrix        26  7.0    0.005    0.006   28.050   28.054
 pw_transfer                        551 10.1    0.052    0.057   17.562   17.943
 fft_wrap_pw1pw2                    473 11.3    0.006    0.006   17.410   17.785
 fft_wrap_pw1pw2_300                314 12.6    0.844    0.969   16.541   16.803
 qs_vxc_create                       26  8.0    0.001    0.001   16.248   16.250
 xc_vxc_pw_create                    26  9.0    0.112    0.130   16.247   16.249
 fft3d_ps                           473 13.3    7.065    7.990   12.869   13.857
 xc_rho_set_and_dset_create          26 10.0    0.097    0.128    9.496   10.088
 xc_pw_derive                       156 11.0    0.001    0.002    9.309    9.613
 xc_pw_divergence                    26 10.0    0.001    0.001    6.450    6.813
 mp_alltoall_z22v                   473 15.3    3.650    6.549    3.650    6.549
 qs_rho_update_rho                   27  5.0    0.000    0.000    6.108    6.110
 calculate_rho_elec                  27  6.0    0.058    0.059    5.901    5.902
 xc_functional_eval                  78 10.7    0.000    0.001    4.924    5.411
 pbe_lda_eval                        78 11.7    4.923    5.410    4.923    5.410
 yz_to_x                            238 13.9    1.116    1.458    3.302    4.641
 density_rs2pw                       27  7.0    0.001    0.002    4.408    4.629
 sum_up_and_integrate                26  8.0    0.022    0.027    4.492    4.493
 integrate_v_rspace                  26  9.0    0.001    0.001    4.470    4.476
 rs_pw_transfer                     264  9.5    0.004    0.005    3.765    4.005
 prepare_gapw_den                    26  8.0    0.001    0.001    3.021    3.148
 x_to_yz                            235 14.7    1.024    1.323    2.489    3.144
 potential_pw2rs                     26 10.0    0.004    0.005    2.881    2.887
 pw_gather_p                        238 12.9    1.883    2.455    1.883    2.455
 put_rho0_on_grid                    26  9.0    0.059    0.066    2.140    2.267
 init_scf_loop                        2  4.0    0.000    0.000    2.229    2.229
 mp_sum_d                          1145  6.8    1.371    2.140    1.371    2.140
 pw_scatter_p                       235 13.7    1.773    2.006    1.773    2.006
 rs_pw_transfer_RS2PW_300            53 10.0    0.789    0.958    1.583    1.854
 mp_waitany                        1680 11.5    1.089    1.677    1.089    1.677
 grid_collocate_task_list            27  7.0    1.289    1.589    1.289    1.589
 grid_integrate_task_list            26 10.0    1.279    1.586    1.279    1.586
 rs_pw_transfer_PW2RS_300            52 11.0    0.752    0.870    1.390    1.509
 integrate_vhg0_rspace               26  8.0    0.093    0.108    1.227    1.238
 fft_wrap_pw1pw2_100                 53 11.5    0.027    0.036    0.715    0.903
 calculate_vxc_atom                  26  8.0    0.029    0.104    0.866    0.866
 calculate_rho_atom                  52  9.0    0.471    0.790    0.471    0.790
 mp_waitall_1                     29376 14.1    0.563    0.720    0.563    0.720
 gaVxcgb_GC                          26  9.0    0.128    0.714    0.128    0.714
 -------------------------------------------------------------------------------

 The number of warnings for this run is : 1
 
 -------------------------------------------------------------------------------
  **** **** ******  **  PROGRAM ENDED AT                 2022-05-12 11:20:21.277
 ***** ** ***  *** **   PROGRAM RAN ON                                   tcopt10
 **    ****   ******    PROGRAM RAN BY                                    hutter
 ***** **    ** ** **   PROGRAM PROCESS ID                                 53696
  **** **  *******  **  PROGRAM STOPPED IN /data/hutter/GITHUB/BASIS/scMOLOPT/PB
                                           E/Li
