 DBCSR| CPU Multiplication driver                                           XSMM
 DBCSR| Multrec recursion limit                                              512
 DBCSR| Multiplication stack size                                           1000
 DBCSR| Maximum elements for images                                    UNLIMITED
 DBCSR| Multiplicative factor virtual images                                   1
 DBCSR| Use multiplication densification                                       T
 DBCSR| Multiplication size stacks                                             3
 DBCSR| Use memory pool for CPU allocation                                     F
 DBCSR| Number of 3D layers                                               SINGLE
 DBCSR| Use MPI memory allocation                                              F
 DBCSR| Use RMA algorithm                                                      F
 DBCSR| Use Communication thread                                               T
 DBCSR| Communication thread load                                             87
 DBCSR| MPI: My node id                                                        0
 DBCSR| MPI: Number of nodes                                                  12
 DBCSR| OMP: Current number of threads                                         1
 DBCSR| OMP: Max number of threads                                             1
 DBCSR| Split modifier for TAS multiplication algorithm                  1.0E+00


  **** **** ******  **  PROGRAM STARTED AT               2022-05-12 11:34:52.020
 ***** ** ***  *** **   PROGRAM STARTED ON                               tcopt10
 **    ****   ******    PROGRAM STARTED BY                                hutter
 ***** **    ** ** **   PROGRAM PROCESS ID                                 55036
  **** **  *******  **  PROGRAM STARTED IN /data/hutter/GITHUB/BASIS/scMOLOPT/PB
                                           E/Li

 CP2K| version string:                   CP2K version 10.0 (Development Version)
 CP2K| source code revision number:                                  git:13fcfd8
 CP2K| cp2kflags: omp libint fftw3 libxc elpa parallel mpi3 scalapack cosma xsmm
 CP2K|             spglib sirius libvori libbqb
 CP2K| is freely available from                            https://www.cp2k.org/
 CP2K| Program compiled at                      Tue 10 May 2022 02:27:21 PM CEST
 CP2K| Program compiled on                                               tcopt10
 CP2K| Program compiled for                                                local
 CP2K| Data directory path                   /data/hutter/GITHUB/TDLRI/cp2k/data
 CP2K| Input file name                                            Li4Cl4-ref.inp

 GLOBAL| Force Environment number                                              1
 GLOBAL| Basis set file name                                        ../def2QZVPP
 GLOBAL| Potential file name                                        ../POTENTIAL
 GLOBAL| MM Potential file name                                     MM_POTENTIAL
 GLOBAL| Coordinate file name                                      __STD_INPUT__
 GLOBAL| Method name                                                        CP2K
 GLOBAL| Project name                                                refLi4Cl4q3
 GLOBAL| Run type                                                         ENERGY
 GLOBAL| FFT library                                                       FFTW3
 GLOBAL| Diagonalization library                                            ELPA
 GLOBAL| Minimum number of eigenvectors for ELPA usage                        16
 GLOBAL| Orthonormality check for eigenvectors                          DISABLED
 GLOBAL| Matrix multiplication library                                     COSMA
 GLOBAL| All-to-all communication in single precision                          F
 GLOBAL| FFTs using library dependent lengths                                  F
 GLOBAL| Grid backend                                                       AUTO
 GLOBAL| Global print level                                                  LOW
 GLOBAL| MPI I/O enabled                                                       T
 GLOBAL| Total number of message passing processes                            12
 GLOBAL| Number of threads for this process                                    1
 GLOBAL| This output is from process                                           0
 GLOBAL| Stack size for threads created by OpenMP (OMP_STACKSIZE)        default
 GLOBAL| CPU model name                          AMD EPYC 7401 24-Core Processor
 GLOBAL| CPUID                                                              1002

 MEMORY| system memory details [Kb]
 MEMORY|                        rank 0           min           max       average
 MEMORY| MemTotal            263969136     263969136     263969136     263969136
 MEMORY| MemFree             230513692     230513692     230513692     230513692
 MEMORY| Buffers                   136           136           136           136
 MEMORY| Cached               18918604      18918600      18918604      18918600
 MEMORY| Slab                  1425780       1425780       1425780       1425780
 MEMORY| SReclaimable           872348        872348        872348        872348
 MEMORY| MemLikelyFree       250304780     250304776     250304780     250304776


 GENERATE|  Preliminary Number of Bonds generated:                             0
 GENERATE|  Achieved consistency in connectivity generation.

 *******************************************************************************
 *******************************************************************************
 **                                                                           **
 **     #####                         ##              ##                      **
 **    ##   ##            ##          ##              ##                      **
 **   ##     ##                       ##            ######                    **
 **   ##     ##  ##   ##  ##   #####  ##  ##   ####   ##    #####    #####    **
 **   ##     ##  ##   ##  ##  ##      ## ##   ##      ##   ##   ##  ##   ##   **
 **   ##  ## ##  ##   ##  ##  ##      ####     ###    ##   ######   ######    **
 **    ##  ###   ##   ##  ##  ##      ## ##      ##   ##   ##       ##        **
 **     #######   #####   ##   #####  ##  ##  ####    ##    #####   ##        **
 **           ##                                                    ##        **
 **                                                                           **
 **                                                ... make the atoms dance   **
 **                                                                           **
 **            Copyright (C) by CP2K developers group (2000-2022)             **
 **                      J. Chem. Phys. 152, 194103 (2020)                    **
 **                                                                           **
 *******************************************************************************


 TOTAL NUMBERS AND MAXIMUM NUMBERS

  Total number of            - Atomic kinds:                                   2
                             - Atoms:                                          8
                             - Shell sets:                                   140
                             - Shells:                                       140
                             - Primitive Cartesian functions:                260
                             - Cartesian basis functions:                    504
                             - Spherical basis functions:                    420

  Maximum angular momentum of the orbital basis functions:                     4


 SCF PARAMETERS         Density guess:                                    ATOMIC
                        --------------------------------------------------------
                        max_scf:                                              30
                        max_scf_history:                                       0
                        max_diis:                                              4
                        --------------------------------------------------------
                        eps_scf:                                        1.00E-06
                        eps_scf_history:                                0.00E+00
                        eps_diis:                                       1.00E-01
                        eps_eigval:                                     1.00E-05
                        --------------------------------------------------------
                        level_shift [a.u.]:                             0.000000
                        --------------------------------------------------------
                        Outer loop SCF in use 
                        No variables optimised in outer loop
                        eps_scf                                         1.00E-06
                        max_scf                                                5
                        No outer loop optimization
                        step_size                                       5.00E-01

 Number of electrons:                                                         80
 Number of occupied orbitals:                                                 40
 Number of molecular orbitals:                                                40

 Number of orbital functions:                                                420
 Number of independent orbital functions:                                    420

 Extrapolation method: initial_guess


 SCF WAVEFUNCTION OPTIMIZATION

  ----------------------------------- OT ---------------------------------------
  Minimizer      : DIIS                : direct inversion
                                         in the iterative subspace
                                         using   7 DIIS vectors
                                         safer DIIS on
  Preconditioner : FULL_ALL            : diagonalization, state selective
  Precond_solver : DEFAULT
  stepsize       :    0.10000000                  energy_gap     :    0.08000000
  eps_taylor     :   0.10000E-15                  max_taylor     :             4
  ----------------------------------- OT ---------------------------------------

  Step     Update method      Time    Convergence         Total energy    Change
  ------------------------------------------------------------------------------
     1 OT DIIS     0.10E+00    1.7     0.20681640     -1783.4493712379 -1.78E+03
     2 OT DIIS     0.10E+00    2.0     0.11900592     -1840.2543870212 -5.68E+01
     3 OT DIIS     0.10E+00    2.0     0.03993642     -1863.6456580283 -2.34E+01
     4 OT DIIS     0.10E+00    2.0     0.03274593     -1865.3257336014 -1.68E+00
     5 OT DIIS     0.10E+00    2.0     0.01837939     -1867.7304991683 -2.40E+00
     6 OT DIIS     0.10E+00    2.0     0.01077126     -1868.3801388316 -6.50E-01
     7 OT DIIS     0.10E+00    2.0     0.00654845     -1868.8677345993 -4.88E-01
     8 OT DIIS     0.10E+00    2.0     0.00663533     -1869.1427604788 -2.75E-01
     9 OT DIIS     0.10E+00    2.0     0.00607913     -1869.1752628620 -3.25E-02
    10 OT DIIS     0.10E+00    2.0     0.00453322     -1869.3830126545 -2.08E-01
    11 OT DIIS     0.10E+00    2.0     0.00358782     -1869.6259632387 -2.43E-01
    12 OT DIIS     0.10E+00    2.0     0.00348595     -1869.7028685342 -7.69E-02
    13 OT DIIS     0.10E+00    2.0     0.00300823     -1869.7810809365 -7.82E-02
    14 OT SD       0.10E+00    2.0     0.00296458     -1869.9072216802 -1.26E-01
    15 OT DIIS     0.10E+00    2.0     0.00266976     -1869.9209348165 -1.37E-02
    16 OT DIIS     0.10E+00    2.0     0.00249222     -1870.0139755435 -9.30E-02
    17 OT DIIS     0.10E+00    2.0     0.00243615     -1870.0526552932 -3.87E-02
    18 OT SD       0.10E+00    2.0     0.00235502     -1870.0999765461 -4.73E-02
    19 OT DIIS     0.10E+00    2.0     0.00227210     -1870.1091003895 -9.12E-03
    20 OT DIIS     0.10E+00    2.0     0.00382658     -1870.3083095209 -1.99E-01
    21 OT DIIS     0.10E+00    2.0     0.00226038     -1870.3124918345 -4.18E-03
    22 OT DIIS     0.10E+00    2.0     0.00200171     -1870.3679215120 -5.54E-02
    23 OT DIIS     0.10E+00    2.0     0.00404309     -1870.3863464155 -1.84E-02
    24 OT SD       0.10E+00    2.0     0.00303269     -1870.3984833708 -1.21E-02
    25 OT DIIS     0.10E+00    2.0     0.00162616     -1870.4092741106 -1.08E-02
    26 OT DIIS     0.10E+00    2.0     0.00337527     -1870.4020581917  7.22E-03
    27 OT DIIS     0.10E+00    2.1     0.00151585     -1870.4755654199 -7.35E-02
    28 OT DIIS     0.10E+00    2.0     0.00188115     -1870.5010861929 -2.55E-02
    29 OT DIIS     0.10E+00    2.0     0.00115297     -1870.5228838553 -2.18E-02
    30 OT DIIS     0.10E+00    2.0     0.00159593     -1870.5438302926 -2.09E-02

  Leaving inner SCF loop after reaching    30 steps.


  Electronic density on regular grids:        -41.7025447081       38.2974552919
  Core density on regular grids:               80.0000000000        0.0000000000
  Hard and soft densities (Lebedev):         -107.0094509106      -68.7119964108
  Total Rho_soft + Rho1_hard - Rho1_soft      -79.9999992079
  Total charge density (r-space):               0.0000007921
  Total Rho_soft + Rho0_soft (g-space):        -0.0000002163

  Overlap energy of the core charge distribution:               0.00000000000123
  Self energy of the core charge distribution:               -820.75823684648594
  Core Hamiltonian energy:                                  -1061.29066163082462
  Hartree energy:                                             137.14934059569475
  Exchange-correlation energy:                                -18.93616789213669

  GAPW| Exc from hard and soft atomic rho1:                  -100.93477359824278
  GAPW| local Eh = 1 center integrals:                         -5.77333092062922

  Total energy:                                             -1870.54383029262294

  outer SCF iter =    1 RMS gradient =   0.16E-02 energy =      -1870.5438302926

  ----------------------------------- OT ---------------------------------------
  Minimizer      : DIIS                : direct inversion
                                         in the iterative subspace
                                         using   7 DIIS vectors
                                         safer DIIS on
  Preconditioner : FULL_ALL            : diagonalization, state selective
  Precond_solver : DEFAULT
  stepsize       :    0.10000000                  energy_gap     :    0.08000000
  eps_taylor     :   0.10000E-15                  max_taylor     :             4
  ----------------------------------- OT ---------------------------------------

  Step     Update method      Time    Convergence         Total energy    Change
  ------------------------------------------------------------------------------
     1 OT DIIS     0.10E+00    4.2     0.00763323     -1870.5635528202 -1.97E-02
     2 OT DIIS     0.10E+00    2.0     0.00401631     -1870.6379479938 -7.44E-02
     3 OT DIIS     0.10E+00    2.0     0.00071741     -1870.6637024289 -2.58E-02
     4 OT DIIS     0.10E+00    2.0     0.00033606     -1870.6642059759 -5.04E-04
     5 OT DIIS     0.10E+00    2.0     0.00008487     -1870.6643993129 -1.93E-04
     6 OT DIIS     0.10E+00    2.0     0.00001314     -1870.6644110004 -1.17E-05
     7 OT DIIS     0.10E+00    2.0     0.00000501     -1870.6644112559 -2.56E-07
     8 OT DIIS     0.10E+00    2.0     0.00000094     -1870.6644112894 -3.35E-08

  *** SCF run converged in     8 steps ***


  Electronic density on regular grids:        -41.7012327011       38.2987672989
  Core density on regular grids:               80.0000000000        0.0000000000
  Hard and soft densities (Lebedev):         -107.9527097332      -69.6539435218
  Total Rho_soft + Rho1_hard - Rho1_soft      -79.9999989125
  Total charge density (r-space):               0.0000010875
  Total Rho_soft + Rho0_soft (g-space):         0.0000000793

  Overlap energy of the core charge distribution:               0.00000000000123
  Self energy of the core charge distribution:               -820.75823684648594
  Core Hamiltonian energy:                                  -1061.32922804761165
  Hartree energy:                                             137.13309379886562
  Exchange-correlation energy:                                -19.00049613072014

  GAPW| Exc from hard and soft atomic rho1:                  -100.92896133510476
  GAPW| local Eh = 1 center integrals:                         -5.78058272836354

  Total energy:                                             -1870.66441128941915

  outer SCF iter =    2 RMS gradient =   0.94E-06 energy =      -1870.6644112894
  outer SCF loop converged in   2 iterations or   38 steps


 ENERGY| Total FORCE_EVAL ( QS ) energy [a.u.]:            -1870.664411289419149

 -------------------------------------------------------------------------------
 -                                                                             -
 -                                DBCSR STATISTICS                             -
 -                                                                             -
 -------------------------------------------------------------------------------
 COUNTER                                    TOTAL       BLAS       SMM       ACC
 flops    35 x     8 x     8                35840       0.0%    100.0%      0.0%
 flops    70 x     8 x     8                71680       0.0%    100.0%      0.0%
 flops     8 x     8 x     8               337920       0.0%    100.0%      0.0%
 flops    35 x    32 x    32               573440       0.0%    100.0%      0.0%
 flops    70 x    32 x    32              1146880       0.0%    100.0%      0.0%
 flops     8 x     8 x    32              1351680       0.0%    100.0%      0.0%
 flops     8 x    32 x     8              1351680       0.0%    100.0%      0.0%
 flops    32 x     8 x     8              1351680       0.0%    100.0%      0.0%
 flops     8 x     8 x    35              1379840       0.0%    100.0%      0.0%
 flops     8 x     8 x    70              2759680       0.0%    100.0%      0.0%
 flops     8 x     8 x   105              4139520       0.0%    100.0%      0.0%
 flops    32 x    32 x     8              5406720       0.0%    100.0%      0.0%
 flops     8 x    32 x    32              5406720       0.0%    100.0%      0.0%
 flops    32 x     8 x    32              5406720       0.0%    100.0%      0.0%
 flops     8 x    32 x    35              5519360       0.0%    100.0%      0.0%
 flops    32 x     8 x    35              5519360       0.0%    100.0%      0.0%
 flops    35 x    35 x     8              7644000       0.0%    100.0%      0.0%
 flops   210 x     8 x     8             10214400       0.0%    100.0%      0.0%
 flops     8 x    32 x    70             11038720       0.0%    100.0%      0.0%
 flops    32 x     8 x    70             11038720       0.0%    100.0%      0.0%
 flops    35 x    70 x     8             12230400       0.0%    100.0%      0.0%
 flops    70 x    35 x     8             12230400       0.0%    100.0%      0.0%
 flops     8 x    32 x   105             16558080       0.0%    100.0%      0.0%
 flops    32 x     8 x   105             16558080       0.0%    100.0%      0.0%
 flops    32 x    32 x    32             21626880       0.0%    100.0%      0.0%
 flops    32 x    32 x    35             22077440       0.0%    100.0%      0.0%
 flops    35 x     8 x    35             28224000       0.0%    100.0%      0.0%
 flops    70 x    70 x     8             30576000       0.0%    100.0%      0.0%
 flops    35 x    35 x    32             30576000       0.0%    100.0%      0.0%
 flops   210 x     8 x    35             37632000       0.0%    100.0%      0.0%
 flops   210 x    32 x     8             40857600       0.0%    100.0%      0.0%
 flops   210 x     8 x    32             40857600       0.0%    100.0%      0.0%
 flops    32 x    32 x    70             44154880       0.0%    100.0%      0.0%
 flops    35 x    70 x    32             48921600       0.0%    100.0%      0.0%
 flops    70 x    35 x    32             48921600       0.0%    100.0%      0.0%
 flops    70 x     8 x    35             56448000       0.0%    100.0%      0.0%
 flops    35 x     8 x    70             56448000       0.0%    100.0%      0.0%
 flops    32 x    32 x   105             66232320       0.0%    100.0%      0.0%
 flops   210 x     8 x    70             75264000       0.0%    100.0%      0.0%
 flops    35 x    32 x    35            112896000       0.0%    100.0%      0.0%
 flops    70 x     8 x    70            112896000       0.0%    100.0%      0.0%
 flops   210 x     8 x   105            112896000       0.0%    100.0%      0.0%
 flops    70 x    70 x    32            122304000       0.0%    100.0%      0.0%
 flops   210 x    32 x    35            150528000       0.0%    100.0%      0.0%
 flops   210 x    32 x    32            163430400       0.0%    100.0%      0.0%
 flops    70 x    32 x    35            225792000       0.0%    100.0%      0.0%
 flops    35 x    32 x    70            225792000       0.0%    100.0%      0.0%
 flops   210 x    32 x    70            301056000       0.0%    100.0%      0.0%
 flops    70 x    32 x    70            451584000       0.0%    100.0%      0.0%
 flops   210 x    32 x   105            451584000       0.0%    100.0%      0.0%
 flops inhomo. stacks                           0       0.0%      0.0%      0.0%
 flops total                         3.218848E+09       0.0%    100.0%      0.0%
 flops max/rank                      1.245050E+09       0.0%    100.0%      0.0%
 matmuls inhomo. stacks                         0       0.0%      0.0%      0.0%
 matmuls total                              24136       0.0%    100.0%      0.0%
 number of processed stacks                 17424       0.0%    100.0%      0.0%
 average stack size                                     0.0       1.4       0.0
 marketing flops                     3.459363E+09
 -------------------------------------------------------------------------------
 # multiplications                            887
 max memory usage/rank             480.034816E+06
 # max total images/rank                        3
 # max 3D layers                                1
 # MPI messages exchanged                   85152
 MPI messages size (bytes):
  total size                         1.534821E+09
  min size                           0.000000E+00
  max size                         176.400000E+03
  average size                      18.024480E+03
 MPI breakdown and total messages size (bytes):
             size <=      128               48052                        0
       128 < size <=     8192               15482                 58248448
      8192 < size <=    32768                9108                152866560
     32768 < size <=   131072                9110                723945600
    131072 < size <=  4194304                3400                599760000
   4194304 < size <= 16777216                   0                        0
  16777216 < size                               0                        0
 -------------------------------------------------------------------------------

 *** WARNING in dbcsr_mm.F:290 :: Using a non-square number of MPI ranks ***
 *** might lead to poor performance. Used ranks: 12 Suggested: 9 25      ***

 -------------------------------------------------------------------------------
 -                                                                             -
 -                      DBCSR MESSAGE PASSING PERFORMANCE                      -
 -                                                                             -
 -------------------------------------------------------------------------------
 ROUTINE             CALLS      AVE VOLUME [Bytes]
 MP_Bcast               51                     12.
 MP_Allreduce         4825                      8.
 MP_Alltoall          3233                   4301.
 MP_ISend            18844                   8822.
 MP_IRecv            18634                   7706.
 -------------------------------------------------------------------------------

 -------------------------------------------------------------------------------
 -                                                                             -
 -                                GRID STATISTICS                              -
 -                                                                             -
 -------------------------------------------------------------------------------
 LP    KERNEL             BACKEND                              COUNT     PERCENT
 1     collocate ortho    REF                                 362076      15.28%
 1     integrate ortho    REF                                 352792      14.89%
 2     collocate ortho    REF                                 312078      13.17%
 2     integrate ortho    REF                                 304076      12.84%
 3     collocate ortho    REF                                 197808       8.35%
 3     integrate ortho    REF                                 192736       8.14%
 0     collocate ortho    REF                                 165516       6.99%
 0     integrate ortho    REF                                 161272       6.81%
 4     collocate ortho    REF                                 108342       4.57%
 4     integrate ortho    REF                                 105564       4.46%
 5     collocate ortho    REF                                  37128       1.57%
 5     integrate ortho    REF                                  36176       1.53%
 6     collocate ortho    REF                                  10452       0.44%
 6     integrate ortho    REF                                  10184       0.43%
 2     collocate general  REF                                   3648       0.15%
 2     integrate general  REF                                   3648       0.15%
 7     collocate ortho    REF                                   2340       0.10%
 7     integrate ortho    REF                                   2280       0.10%
 8     collocate ortho    REF                                    390       0.02%
 8     integrate ortho    REF                                    380       0.02%
 -------------------------------------------------------------------------------

 MEMORY| Estimated peak process memory [MiB]                                 461

 -------------------------------------------------------------------------------
 -                                                                             -
 -                         MESSAGE PASSING PERFORMANCE                         -
 -                                                                             -
 -------------------------------------------------------------------------------

 ROUTINE             CALLS      AVE VOLUME [Bytes]
 MP_Group                4
 MP_Bcast             1686                 109445.
 MP_Allreduce         4148                 166327.
 MP_Sync                92
 MP_Alltoall           778               19136095.
 MP_ISendRecv         2541                 338304.
 MP_Wait              5448
 MP_comm_split          44
 MP_ISend             2448                1134000.
 MP_IRecv             2448                1134000.
 MP_Recv                10                  23520.
 -------------------------------------------------------------------------------


 -------------------------------------------------------------------------------
 -                                                                             -
 -                           R E F E R E N C E S                               -
 -                                                                             -
 -------------------------------------------------------------------------------
 
 CP2K version 10.0 (Development Version), the CP2K developers group (2022).
 CP2K is freely available from https://www.cp2k.org/ .

 Kuehne,Thomas D.; Iannuzzi,Marcella; Del Ben,Mauro;
 Rybkin,Vladimir V.; Seewald,Patrick; Stein,Frederick; Laino,Teodoro;
 Khaliullin,Rustam Z.; Schuett,Ole; Schiffmann,Florian; Golze,Dorothea;
 Wilhelm,Jan; Chulkov,Sergey; Bani-Hashemian,Mohammad Hossein;
 Weber,Valery; Borstnik,Urban; Taillefumier,Mathieu;
 Jakobovits,Alice Shoshana; Lazzaro,Alfio; Pabst,Hans; Mueller,Tiziano;
 Schade,Robert; Guidon,Manuel; Andermatt,Samuel; Holmberg,Nico;
 Schenter,Gregory K.; Hehn,Anna; Bussy,Augustin; Belleflamme,Fabian;
 Tabacchi,Gloria; Gloess,Andreas; Lass,Michael; Bethune,Iain;
 Mundy,Christopher J.; Plessl,Christian; Watkins,Matt;
 VandeVondele,Joost; Krack,Matthias; Hutter,Juerg. 
 The Journal of Chemical Physics, 152 (19), (2020). 
 CP2K: An electronic structure and molecular dynamics software package -
 Quickstep: Efficient and accurate electronic structure calculations.
 https://doi.org/10.1063/5.0007045

 Schuett, Ole; Messmer, Peter; Hutter, Juerg; VandeVondele, Joost. 
 Electronic Structure Calculations on Graphics Processing Units, John
 Wiley & Sons, Ltd, 173-190 (2016). 
 GPU-Accelerated Sparse Matrix-Matrix Multiplication for
 Linear Scaling Density Functional Theory.
 https://doi.org/10.1002/9781118670712.ch8

 Heinecke, A; Henry, G; Hutchinson, M; Pabst, H. 
 Proceedings of Intl. Supercomputing Conference, 981-991 (2016). 
 LIBXSMM: Accelerating Small Matrix Multiplications
 by Runtime Code Generation.
 https://doi.org/10.1109/SC.2016.83

 Borstnik, U; VandeVondele, J; Weber, V; Hutter, J. 
 PARALLEL COMPUTING, 40 (5-6), 47-58 (2014). 
 Sparse matrix multiplication: The distributed block-compressed sparse
 row library.
 https://doi.org/10.1016/j.parco.2014.03.012

 Hutter, J; Iannuzzi, M; Schiffmann, F; VandeVondele, J. 
 WIREs Comput Mol Sci., 4 (1), 15-25 (2014). 
 CP2K: atomistic simulations of condensed matter systems.
 https://doi.org/10.1002/wcms.1159

 Marek, A; Blum, V; Johanni, R; Havu, V; Lang, B; Auckenthaler, T;
 Heinecke, A; Bungartz, H; Lederer, H. 
 Journal of Physics: Condensed Matter, 26 (21), (2014). 
 The ELPA library: scalable parallel eigenvalue solutions for
 electronic structure
 theory and computational science.
 https://doi.org/10.1088/0953-8984/26/21/213201

 Frigo, M; Johnson, SG. 
 PROCEEDINGS OF THE IEEE, 93 (2), 216-231 (2005). 
 The design and implementation of FFTW3.
 https://doi.org/10.1109/JPROC.2004.840301

 VandeVondele, J; Hutter, J. 
 JOURNAL OF CHEMICAL PHYSICS, 118 (10), 4365-4369 (2003). 
 An efficient orbital transformation method for electronic structure
 calculations.
 https://doi.org/10.1063/1.1543154

 Lippert, G; Hutter, J; Parrinello, M. 
 THEORETICAL CHEMISTRY ACCOUNTS, 103 (2), 124-140 (1999). 
 The Gaussian and augmented-plane-wave density functional method for ab
 initio molecular dynamics simulations.
 https://doi.org/10.1007/s002140050523

 Krack, M; Parrinello, M. 
 PHYSICAL CHEMISTRY CHEMICAL PHYSICS, 2 (10), 2105-2112 (2000). 
 All-electron ab-initio molecular dynamics.
 https://doi.org/10.1039/b001167n

 Perdew, JP; Burke, K; Ernzerhof, M. 
 PHYSICAL REVIEW LETTERS, 77 (18), 3865-3868 (1996). 
 Generalized gradient approximation made simple.
 https://doi.org/10.1103/PhysRevLett.77.3865


 -------------------------------------------------------------------------------
 -                                                                             -
 -                                T I M I N G                                  -
 -                                                                             -
 -------------------------------------------------------------------------------
 SUBROUTINE                       CALLS  ASD         SELF TIME        TOTAL TIME
                                MAXIMUM       AVERAGE  MAXIMUM  AVERAGE  MAXIMUM
 CP2K                                 1  1.0    0.008    0.029   79.239   79.240
 qs_energies                          1  2.0    0.000    0.000   78.889   78.890
 scf_env_do_scf                       1  3.0    0.000    0.000   77.490   77.491
 scf_env_do_scf_inner_loop           38  4.0    0.001    0.003   74.190   74.191
 qs_ks_update_qs_env                 40  5.0    0.000    0.001   58.911   58.923
 rebuild_ks_matrix                   38  6.0    0.000    0.000   58.903   58.913
 qs_ks_build_kohn_sham_matrix        38  7.0    0.007    0.009   58.903   58.912
 pw_transfer                        803 10.1    0.074    0.077   25.613   25.991
 fft_wrap_pw1pw2                    689 11.3    0.008    0.009   25.394   25.763
 fft_wrap_pw1pw2_300                458 12.7    1.233    1.423   24.130   24.297
 qs_vxc_create                       38  8.0    0.001    0.001   23.759   23.759
 xc_vxc_pw_create                    38  9.0    0.162    0.190   23.758   23.759
 fft3d_ps                           689 13.3   10.209   11.663   18.801   20.214
 qs_rho_update_rho                   39  5.0    0.001    0.001   17.609   17.614
 calculate_rho_elec                  39  6.0    0.083    0.084   15.126   15.127
 xc_rho_set_and_dset_create          38 10.0    0.144    0.190   13.862   14.746
 sum_up_and_integrate                38  8.0    0.031    0.037   14.653   14.657
 integrate_v_rspace                  38  9.0    0.001    0.002   14.622   14.634
 xc_pw_derive                       228 11.0    0.002    0.002   13.631   14.059
 grid_integrate_task_list            38 10.0    8.346   10.326    8.346   10.326
 xc_pw_divergence                    38 10.0    0.001    0.001    9.452    9.983
 mp_alltoall_z22v                   689 15.3    5.569    9.533    5.569    9.533
 grid_collocate_task_list            39  7.0    7.223    8.909    7.223    8.909
 density_rs2pw                       39  7.0    0.002    0.002    7.617    8.855
 rs_pw_transfer                     384  9.5    0.006    0.007    6.969    8.378
 xc_functional_eval                 190 10.4    0.001    0.002    7.229    7.980
 pbe_lda_eval                       190 11.4    7.228    7.978    7.228    7.978
 prepare_gapw_den                    38  8.0    0.001    0.001    7.585    7.775
 yz_to_x                            346 13.9    1.537    2.139    4.902    6.733
 mp_sum_d                          1741  8.3    3.785    5.729    3.785    5.729
 rs_pw_transfer_RS2PW_300            77 10.0    1.170    1.418    3.610    5.069
 mp_waitany                        2448 11.5    3.000    4.963    3.000    4.963
 x_to_yz                            343 14.7    1.468    1.987    3.672    4.628
 potential_pw2rs                     38 10.0    0.005    0.006    4.288    4.297
 mp_sum_dm                          928  7.7    3.063    3.857    3.063    3.857
 calculate_vxc_atom                  38  8.0    0.099    0.302    3.620    3.620
 mp_alltoall_d11v                   758 12.0    2.003    3.581    2.003    3.581
 pw_gather_p                        346 12.9    2.724    3.564    2.724    3.564
 rs_gather_matrices                  38 10.0    0.002    0.003    1.987    3.564
 integrate_vhg0_rspace               38  8.0    0.594    0.779    3.413    3.487
 put_rho0_on_grid                    38  9.0    0.091    0.107    3.179    3.369
 init_scf_loop                        2  4.0    0.000    0.000    3.299    3.299
 dbcsr_multiply_generic             887 10.1    0.027    0.030    2.650    3.250
 gaVxcgb_GC                          76  9.0    0.918    3.162    0.918    3.162
 calculate_rho_atom                  76  9.0    1.417    3.150    1.417    3.150
 pw_scatter_p                       343 13.7    2.580    2.934    2.580    2.934
 update_ks_atom                      38  8.0    0.830    2.339    1.002    2.498
 calculate_rho_atom_coeff            39  6.0    0.767    2.339    2.482    2.487
 mp_sum_dv                         1762 13.1    1.492    2.405    1.492    2.405
 rs_pw_transfer_PW2RS_300            76 11.0    1.136    1.329    2.237    2.387
 mp_sum_l                          4602 10.5    1.628    2.289    1.628    2.289
 calculate_rho0_atom                 76  9.0    1.506    2.253    1.506    2.253
 -------------------------------------------------------------------------------

 The number of warnings for this run is : 1
 
 -------------------------------------------------------------------------------
  **** **** ******  **  PROGRAM ENDED AT                 2022-05-12 11:36:11.703
 ***** ** ***  *** **   PROGRAM RAN ON                                   tcopt10
 **    ****   ******    PROGRAM RAN BY                                    hutter
 ***** **    ** ** **   PROGRAM PROCESS ID                                 55036
  **** **  *******  **  PROGRAM STOPPED IN /data/hutter/GITHUB/BASIS/scMOLOPT/PB
                                           E/Li
