 DBCSR| CPU Multiplication driver                                           XSMM
 DBCSR| Multrec recursion limit                                              512
 DBCSR| Multiplication stack size                                           1000
 DBCSR| Maximum elements for images                                    UNLIMITED
 DBCSR| Multiplicative factor virtual images                                   1
 DBCSR| Use multiplication densification                                       T
 DBCSR| Multiplication size stacks                                             3
 DBCSR| Use memory pool for CPU allocation                                     F
 DBCSR| Number of 3D layers                                               SINGLE
 DBCSR| Use MPI memory allocation                                              F
 DBCSR| Use RMA algorithm                                                      F
 DBCSR| Use Communication thread                                               T
 DBCSR| Communication thread load                                             87
 DBCSR| MPI: My node id                                                        0
 DBCSR| MPI: Number of nodes                                                  12
 DBCSR| OMP: Current number of threads                                         1
 DBCSR| OMP: Max number of threads                                             1
 DBCSR| Split modifier for TAS multiplication algorithm                  1.0E+00


  **** **** ******  **  PROGRAM STARTED AT               2022-05-12 11:22:23.085
 ***** ** ***  *** **   PROGRAM STARTED ON                               tcopt10
 **    ****   ******    PROGRAM STARTED BY                                hutter
 ***** **    ** ** **   PROGRAM PROCESS ID                                 54005
  **** **  *******  **  PROGRAM STARTED IN /data/hutter/GITHUB/BASIS/scMOLOPT/PB
                                           E/Li

 CP2K| version string:                   CP2K version 10.0 (Development Version)
 CP2K| source code revision number:                                  git:13fcfd8
 CP2K| cp2kflags: omp libint fftw3 libxc elpa parallel mpi3 scalapack cosma xsmm
 CP2K|             spglib sirius libvori libbqb
 CP2K| is freely available from                            https://www.cp2k.org/
 CP2K| Program compiled at                      Tue 10 May 2022 02:27:21 PM CEST
 CP2K| Program compiled on                                               tcopt10
 CP2K| Program compiled for                                                local
 CP2K| Data directory path                   /data/hutter/GITHUB/TDLRI/cp2k/data
 CP2K| Input file name                                          Li4C4H12-ref.inp

 GLOBAL| Force Environment number                                              1
 GLOBAL| Basis set file name                                        ../def2QZVPP
 GLOBAL| Potential file name                                        ../POTENTIAL
 GLOBAL| MM Potential file name                                     MM_POTENTIAL
 GLOBAL| Coordinate file name                                      __STD_INPUT__
 GLOBAL| Method name                                                        CP2K
 GLOBAL| Project name                                              refLi4C4H12q3
 GLOBAL| Run type                                                         ENERGY
 GLOBAL| FFT library                                                       FFTW3
 GLOBAL| Diagonalization library                                            ELPA
 GLOBAL| Minimum number of eigenvectors for ELPA usage                        16
 GLOBAL| Orthonormality check for eigenvectors                          DISABLED
 GLOBAL| Matrix multiplication library                                     COSMA
 GLOBAL| All-to-all communication in single precision                          F
 GLOBAL| FFTs using library dependent lengths                                  F
 GLOBAL| Grid backend                                                       AUTO
 GLOBAL| Global print level                                                  LOW
 GLOBAL| MPI I/O enabled                                                       T
 GLOBAL| Total number of message passing processes                            12
 GLOBAL| Number of threads for this process                                    1
 GLOBAL| This output is from process                                           0
 GLOBAL| Stack size for threads created by OpenMP (OMP_STACKSIZE)        default
 GLOBAL| CPU model name                          AMD EPYC 7401 24-Core Processor
 GLOBAL| CPUID                                                              1002

 MEMORY| system memory details [Kb]
 MEMORY|                        rank 0           min           max       average
 MEMORY| MemTotal            263969136     263969136     263969136     263969136
 MEMORY| MemFree             230503784     230503784     230503784     230503784
 MEMORY| Buffers                   136           136           136           136
 MEMORY| Cached               18918144      18918144      18918144      18918144
 MEMORY| Slab                  1425512       1425512       1425512       1425512
 MEMORY| SReclaimable           872084        872084        872084        872084
 MEMORY| MemLikelyFree       250294148     250294148     250294148     250294148


 GENERATE|  Preliminary Number of Bonds generated:                             0
 GENERATE|  Achieved consistency in connectivity generation.

 *******************************************************************************
 *******************************************************************************
 **                                                                           **
 **     #####                         ##              ##                      **
 **    ##   ##            ##          ##              ##                      **
 **   ##     ##                       ##            ######                    **
 **   ##     ##  ##   ##  ##   #####  ##  ##   ####   ##    #####    #####    **
 **   ##     ##  ##   ##  ##  ##      ## ##   ##      ##   ##   ##  ##   ##   **
 **   ##  ## ##  ##   ##  ##  ##      ####     ###    ##   ######   ######    **
 **    ##  ###   ##   ##  ##  ##      ## ##      ##   ##   ##       ##        **
 **     #######   #####   ##   #####  ##  ##  ####    ##    #####   ##        **
 **           ##                                                    ##        **
 **                                                                           **
 **                                                ... make the atoms dance   **
 **                                                                           **
 **            Copyright (C) by CP2K developers group (2000-2022)             **
 **                      J. Chem. Phys. 152, 194103 (2020)                    **
 **                                                                           **
 *******************************************************************************


 TOTAL NUMBERS AND MAXIMUM NUMBERS

  Total number of            - Atomic kinds:                                   3
                             - Atoms:                                         20
                             - Shell sets:                                   240
                             - Shells:                                       240
                             - Primitive Cartesian functions:                368
                             - Cartesian basis functions:                    868
                             - Spherical basis functions:                    728

  Maximum angular momentum of the orbital basis functions:                     4


 SCF PARAMETERS         Density guess:                                    ATOMIC
                        --------------------------------------------------------
                        max_scf:                                              30
                        max_scf_history:                                       0
                        max_diis:                                              4
                        --------------------------------------------------------
                        eps_scf:                                        1.00E-06
                        eps_scf_history:                                0.00E+00
                        eps_diis:                                       1.00E-01
                        eps_eigval:                                     1.00E-05
                        --------------------------------------------------------
                        level_shift [a.u.]:                             0.000000
                        --------------------------------------------------------
                        Outer loop SCF in use 
                        No variables optimised in outer loop
                        eps_scf                                         1.00E-06
                        max_scf                                                5
                        No outer loop optimization
                        step_size                                       5.00E-01

 Number of electrons:                                                         48
 Number of occupied orbitals:                                                 24
 Number of molecular orbitals:                                                24

 Number of orbital functions:                                                728
 Number of independent orbital functions:                                    728

 Extrapolation method: initial_guess


 SCF WAVEFUNCTION OPTIMIZATION

  ----------------------------------- OT ---------------------------------------
  Minimizer      : DIIS                : direct inversion
                                         in the iterative subspace
                                         using   7 DIIS vectors
                                         safer DIIS on
  Preconditioner : FULL_ALL            : diagonalization, state selective
  Precond_solver : DEFAULT
  stepsize       :    0.10000000                  energy_gap     :    0.08000000
  eps_taylor     :   0.10000E-15                  max_taylor     :             4
  ----------------------------------- OT ---------------------------------------

  Step     Update method      Time    Convergence         Total energy    Change
  ------------------------------------------------------------------------------
     1 OT DIIS     0.10E+00    2.8     0.07755610      -178.0540902680 -1.78E+02
     2 OT DIIS     0.10E+00    3.2     0.03654170      -185.8543565187 -7.80E+00
     3 OT DIIS     0.10E+00    3.2     0.01581452      -187.9319746822 -2.08E+00
     4 OT DIIS     0.10E+00    3.2     0.01116120      -188.2374196811 -3.05E-01
     5 OT DIIS     0.10E+00    3.2     0.00781362      -188.5818783835 -3.44E-01
     6 OT DIIS     0.10E+00    3.2     0.00612538      -188.8484254305 -2.67E-01
     7 OT DIIS     0.10E+00    3.2     0.00544095      -188.9621465735 -1.14E-01
     8 OT DIIS     0.10E+00    3.2     0.00494571      -189.1094737328 -1.47E-01
     9 OT DIIS     0.10E+00    3.2     0.00459048      -189.1675605306 -5.81E-02
    10 OT DIIS     0.10E+00    3.2     0.00349695      -189.3445158841 -1.77E-01
    11 OT DIIS     0.10E+00    3.2     0.00247364      -189.4326469947 -8.81E-02
    12 OT DIIS     0.10E+00    3.2     0.00202138      -189.4662980097 -3.37E-02
    13 OT DIIS     0.10E+00    3.2     0.00163590      -189.4986979466 -3.24E-02
    14 OT DIIS     0.10E+00    3.2     0.00116855      -189.5033469530 -4.65E-03
    15 OT DIIS     0.10E+00    3.2     0.00144001      -189.5083441870 -5.00E-03
    16 OT DIIS     0.10E+00    3.2     0.00088652      -189.5157835169 -7.44E-03
    17 OT DIIS     0.10E+00    3.2     0.00079798      -189.5200309502 -4.25E-03
    18 OT DIIS     0.10E+00    3.2     0.00046000      -189.5236625322 -3.63E-03
    19 OT DIIS     0.10E+00    3.2     0.00038470      -189.5244093995 -7.47E-04
    20 OT DIIS     0.10E+00    3.2     0.00027205      -189.5256321338 -1.22E-03
    21 OT DIIS     0.10E+00    3.2     0.00021744      -189.5260667520 -4.35E-04
    22 OT DIIS     0.10E+00    3.2     0.00015941      -189.5263901408 -3.23E-04
    23 OT DIIS     0.10E+00    3.2     0.00012924      -189.5266094868 -2.19E-04
    24 OT DIIS     0.10E+00    3.2     0.00010756      -189.5267681662 -1.59E-04
    25 OT DIIS     0.10E+00    3.2     0.00009604      -189.5268599608 -9.18E-05
    26 OT DIIS     0.10E+00    3.2     0.00008305      -189.5269784501 -1.18E-04
    27 OT DIIS     0.10E+00    3.2     0.00007686      -189.5270507039 -7.23E-05
    28 OT DIIS     0.10E+00    3.2     0.00007356      -189.5271015814 -5.09E-05
    29 OT DIIS     0.10E+00    3.2     0.00006930      -189.5271683376 -6.68E-05
    30 OT DIIS     0.10E+00    3.2     0.00006542      -189.5272319144 -6.36E-05

  Leaving inner SCF loop after reaching    30 steps.


  Electronic density on regular grids:        -37.2607043656       10.7392956344
  Core density on regular grids:               48.0000000000       -0.0000000000
  Hard and soft densities (Lebedev):         -135.6718402482     -124.9325447079
  Total Rho_soft + Rho1_hard - Rho1_soft      -47.9999999059
  Total charge density (r-space):               0.0000000941
  Total Rho_soft + Rho0_soft (g-space):        -0.0000000920

  Overlap energy of the core charge distribution:               0.00000442386359
  Self energy of the core charge distribution:               -158.76520524228658
  Core Hamiltonian energy:                                    -22.20881467307581
  Hartree energy:                                              63.98387704041234
  Exchange-correlation energy:                                -15.18986173688862

  GAPW| Exc from hard and soft atomic rho1:                   -18.18661050057336
  GAPW| local Eh = 1 center integrals:                        -39.16062122587169

  Total energy:                                              -189.52723191442010

  outer SCF iter =    1 RMS gradient =   0.65E-04 energy =       -189.5272319144

  ----------------------------------- OT ---------------------------------------
  Minimizer      : DIIS                : direct inversion
                                         in the iterative subspace
                                         using   7 DIIS vectors
                                         safer DIIS on
  Preconditioner : FULL_ALL            : diagonalization, state selective
  Precond_solver : DEFAULT
  stepsize       :    0.10000000                  energy_gap     :    0.08000000
  eps_taylor     :   0.10000E-15                  max_taylor     :             4
  ----------------------------------- OT ---------------------------------------

  Step     Update method      Time    Convergence         Total energy    Change
  ------------------------------------------------------------------------------
     1 OT DIIS     0.10E+00    6.6     0.00045995      -189.5273204379 -8.85E-05
     2 OT DIIS     0.10E+00    3.2     0.00027263      -189.5276144075 -2.94E-04
     3 OT DIIS     0.10E+00    3.2     0.00001935      -189.5277749424 -1.61E-04
     4 OT DIIS     0.10E+00    3.2     0.00000628      -189.5277755169 -5.75E-07
     5 OT DIIS     0.10E+00    3.2     0.00000189      -189.5277755795 -6.25E-08
     6 OT DIIS     0.10E+00    3.2     0.00000052      -189.5277755856 -6.15E-09

  *** SCF run converged in     6 steps ***


  Electronic density on regular grids:        -37.2610064728       10.7389935272
  Core density on regular grids:               48.0000000000       -0.0000000000
  Hard and soft densities (Lebedev):         -135.6761230525     -124.9371296200
  Total Rho_soft + Rho1_hard - Rho1_soft      -47.9999999052
  Total charge density (r-space):               0.0000000948
  Total Rho_soft + Rho0_soft (g-space):        -0.0000000914

  Overlap energy of the core charge distribution:               0.00000442386359
  Self energy of the core charge distribution:               -158.76520524228658
  Core Hamiltonian energy:                                    -22.21036686759872
  Hartree energy:                                              63.98627310008114
  Exchange-correlation energy:                                -15.19004575235294

  GAPW| Exc from hard and soft atomic rho1:                   -18.18612022760251
  GAPW| local Eh = 1 center integrals:                        -39.16231501972862

  Total energy:                                              -189.52777558562462

  outer SCF iter =    2 RMS gradient =   0.52E-06 energy =       -189.5277755856
  outer SCF loop converged in   2 iterations or   36 steps


 ENERGY| Total FORCE_EVAL ( QS ) energy [a.u.]:             -189.527775585624624

 -------------------------------------------------------------------------------
 -                                                                             -
 -                                DBCSR STATISTICS                             -
 -                                                                             -
 -------------------------------------------------------------------------------
 COUNTER                                    TOTAL       BLAS       SMM       ACC
 flops    24 x    24 x    24              8764416       0.0%    100.0%      0.0%
 flops    35 x    35 x    24             21756000       0.0%    100.0%      0.0%
 flops    35 x    57 x    24             28344960       0.0%    100.0%      0.0%
 flops    57 x    35 x    24             28344960       0.0%    100.0%      0.0%
 flops    24 x    24 x    95             31956480       0.0%    100.0%      0.0%
 flops    24 x    24 x   117             39356928       0.0%    100.0%      0.0%
 flops    35 x    30 x    24             44755200       0.0%    100.0%      0.0%
 flops    30 x    35 x    24             44755200       0.0%    100.0%      0.0%
 flops    24 x    24 x   152             51130368       0.0%    100.0%      0.0%
 flops    57 x    57 x    24             57702240       0.0%    100.0%      0.0%
 flops    57 x    30 x    24             72887040       0.0%    100.0%      0.0%
 flops    30 x    57 x    24             72887040       0.0%    100.0%      0.0%
 flops    35 x    24 x    35             80908800       0.0%    100.0%      0.0%
 flops    30 x    30 x    24            124675200       0.0%    100.0%      0.0%
 flops    57 x    24 x    35            131765760       0.0%    100.0%      0.0%
 flops    35 x    24 x    57            131765760       0.0%    100.0%      0.0%
 flops   364 x    24 x    24            152635392       0.0%    100.0%      0.0%
 flops    35 x    24 x    30            208051200       0.0%    100.0%      0.0%
 flops    30 x    24 x    35            208051200       0.0%    100.0%      0.0%
 flops    57 x    24 x    57            214589952       0.0%    100.0%      0.0%
 flops    57 x    24 x    30            338826240       0.0%    100.0%      0.0%
 flops    30 x    24 x    57            338826240       0.0%    100.0%      0.0%
 flops   364 x    24 x    95            504591360       0.0%    100.0%      0.0%
 flops    30 x    24 x    30            534988800       0.0%    100.0%      0.0%
 flops   364 x    24 x   117            621444096       0.0%    100.0%      0.0%
 flops   364 x    24 x   152            807346176       0.0%    100.0%      0.0%
 flops inhomo. stacks                           0       0.0%      0.0%      0.0%
 flops total                         4.901107E+09       0.0%    100.0%      0.0%
 flops max/rank                      2.313754E+09       0.0%    100.0%      0.0%
 matmuls inhomo. stacks                         0       0.0%      0.0%      0.0%
 matmuls total                              44639       0.0%    100.0%      0.0%
 number of processed stacks                 12357       0.0%    100.0%      0.0%
 average stack size                                     0.0       3.6       0.0
 marketing flops                     5.347928E+09
 -------------------------------------------------------------------------------
 # multiplications                            846
 max memory usage/rank             757.116928E+06
 # max total images/rank                        3
 # max 3D layers                                1
 # MPI messages exchanged                   81216
 MPI messages size (bytes):
  total size                         3.747213E+09
  min size                           0.000000E+00
  max size                         442.624000E+03
  average size                      46.138855E+03
 MPI breakdown and total messages size (bytes):
             size <=      128               60772                        0
       128 < size <=     8192                2084                  9603072
      8192 < size <=    32768                6450                150259200
     32768 < size <=   131072                2190                153054720
    131072 < size <=  4194304                9720               3434296320
   4194304 < size <= 16777216                   0                        0
  16777216 < size                               0                        0
 -------------------------------------------------------------------------------

 *** WARNING in dbcsr_mm.F:290 :: Using a non-square number of MPI ranks ***
 *** might lead to poor performance. Used ranks: 12 Suggested: 9 25      ***

 -------------------------------------------------------------------------------
 -                                                                             -
 -                      DBCSR MESSAGE PASSING PERFORMANCE                      -
 -                                                                             -
 -------------------------------------------------------------------------------
 ROUTINE             CALLS      AVE VOLUME [Bytes]
 MP_Bcast               27                     12.
 MP_Allreduce         4554                      8.
 MP_Alltoall          3020                   6368.
 MP_ISend            18140                  20582.
 MP_IRecv            17484                  19570.
 -------------------------------------------------------------------------------

 -------------------------------------------------------------------------------
 -                                                                             -
 -                                GRID STATISTICS                              -
 -                                                                             -
 -------------------------------------------------------------------------------
 LP    KERNEL             BACKEND                              COUNT     PERCENT
 1     collocate ortho    REF                                 400340      14.30%
 1     integrate ortho    REF                                 389520      13.91%
 2     collocate ortho    REF                                 346838      12.39%
 2     integrate ortho    REF                                 337464      12.05%
 3     collocate ortho    REF                                 240796       8.60%
 3     integrate ortho    REF                                 234288       8.37%
 0     collocate ortho    REF                                 226884       8.10%
 0     integrate ortho    REF                                 220752       7.88%
 4     collocate ortho    REF                                 128094       4.58%
 4     integrate ortho    REF                                 124632       4.45%
 5     collocate ortho    REF                                  47804       1.71%
 5     integrate ortho    REF                                  46512       1.66%
 6     collocate ortho    REF                                  15762       0.56%
 6     integrate ortho    REF                                  15336       0.55%
 2     collocate general  REF                                   8640       0.31%
 2     integrate general  REF                                   8640       0.31%
 7     collocate ortho    REF                                   3404       0.12%
 7     integrate ortho    REF                                   3312       0.12%
 8     collocate ortho    REF                                    370       0.01%
 8     integrate ortho    REF                                    360       0.01%
 -------------------------------------------------------------------------------

 MEMORY| Estimated peak process memory [MiB]                                 723

 -------------------------------------------------------------------------------
 -                                                                             -
 -                         MESSAGE PASSING PERFORMANCE                         -
 -                                                                             -
 -------------------------------------------------------------------------------

 ROUTINE             CALLS      AVE VOLUME [Bytes]
 MP_Group                4
 MP_Bcast             3056                  83165.
 MP_Allreduce         6719                  55896.
 MP_Sync                74
 MP_Alltoall           738               45320542.
 MP_ISendRecv         2409                 804619.
 MP_Wait              5164
 MP_comm_split          34
 MP_ISend             2320                1954080.
 MP_IRecv             2320                1954080.
 MP_Recv                10                  23296.
 -------------------------------------------------------------------------------


 -------------------------------------------------------------------------------
 -                                                                             -
 -                           R E F E R E N C E S                               -
 -                                                                             -
 -------------------------------------------------------------------------------
 
 CP2K version 10.0 (Development Version), the CP2K developers group (2022).
 CP2K is freely available from https://www.cp2k.org/ .

 Kuehne,Thomas D.; Iannuzzi,Marcella; Del Ben,Mauro;
 Rybkin,Vladimir V.; Seewald,Patrick; Stein,Frederick; Laino,Teodoro;
 Khaliullin,Rustam Z.; Schuett,Ole; Schiffmann,Florian; Golze,Dorothea;
 Wilhelm,Jan; Chulkov,Sergey; Bani-Hashemian,Mohammad Hossein;
 Weber,Valery; Borstnik,Urban; Taillefumier,Mathieu;
 Jakobovits,Alice Shoshana; Lazzaro,Alfio; Pabst,Hans; Mueller,Tiziano;
 Schade,Robert; Guidon,Manuel; Andermatt,Samuel; Holmberg,Nico;
 Schenter,Gregory K.; Hehn,Anna; Bussy,Augustin; Belleflamme,Fabian;
 Tabacchi,Gloria; Gloess,Andreas; Lass,Michael; Bethune,Iain;
 Mundy,Christopher J.; Plessl,Christian; Watkins,Matt;
 VandeVondele,Joost; Krack,Matthias; Hutter,Juerg. 
 The Journal of Chemical Physics, 152 (19), (2020). 
 CP2K: An electronic structure and molecular dynamics software package -
 Quickstep: Efficient and accurate electronic structure calculations.
 https://doi.org/10.1063/5.0007045

 Schuett, Ole; Messmer, Peter; Hutter, Juerg; VandeVondele, Joost. 
 Electronic Structure Calculations on Graphics Processing Units, John
 Wiley & Sons, Ltd, 173-190 (2016). 
 GPU-Accelerated Sparse Matrix-Matrix Multiplication for
 Linear Scaling Density Functional Theory.
 https://doi.org/10.1002/9781118670712.ch8

 Heinecke, A; Henry, G; Hutchinson, M; Pabst, H. 
 Proceedings of Intl. Supercomputing Conference, 981-991 (2016). 
 LIBXSMM: Accelerating Small Matrix Multiplications
 by Runtime Code Generation.
 https://doi.org/10.1109/SC.2016.83

 Borstnik, U; VandeVondele, J; Weber, V; Hutter, J. 
 PARALLEL COMPUTING, 40 (5-6), 47-58 (2014). 
 Sparse matrix multiplication: The distributed block-compressed sparse
 row library.
 https://doi.org/10.1016/j.parco.2014.03.012

 Hutter, J; Iannuzzi, M; Schiffmann, F; VandeVondele, J. 
 WIREs Comput Mol Sci., 4 (1), 15-25 (2014). 
 CP2K: atomistic simulations of condensed matter systems.
 https://doi.org/10.1002/wcms.1159

 Marek, A; Blum, V; Johanni, R; Havu, V; Lang, B; Auckenthaler, T;
 Heinecke, A; Bungartz, H; Lederer, H. 
 Journal of Physics: Condensed Matter, 26 (21), (2014). 
 The ELPA library: scalable parallel eigenvalue solutions for
 electronic structure
 theory and computational science.
 https://doi.org/10.1088/0953-8984/26/21/213201

 Frigo, M; Johnson, SG. 
 PROCEEDINGS OF THE IEEE, 93 (2), 216-231 (2005). 
 The design and implementation of FFTW3.
 https://doi.org/10.1109/JPROC.2004.840301

 VandeVondele, J; Hutter, J. 
 JOURNAL OF CHEMICAL PHYSICS, 118 (10), 4365-4369 (2003). 
 An efficient orbital transformation method for electronic structure
 calculations.
 https://doi.org/10.1063/1.1543154

 Lippert, G; Hutter, J; Parrinello, M. 
 THEORETICAL CHEMISTRY ACCOUNTS, 103 (2), 124-140 (1999). 
 The Gaussian and augmented-plane-wave density functional method for ab
 initio molecular dynamics simulations.
 https://doi.org/10.1007/s002140050523

 Krack, M; Parrinello, M. 
 PHYSICAL CHEMISTRY CHEMICAL PHYSICS, 2 (10), 2105-2112 (2000). 
 All-electron ab-initio molecular dynamics.
 https://doi.org/10.1039/b001167n

 Perdew, JP; Burke, K; Ernzerhof, M. 
 PHYSICAL REVIEW LETTERS, 77 (18), 3865-3868 (1996). 
 Generalized gradient approximation made simple.
 https://doi.org/10.1103/PhysRevLett.77.3865


 -------------------------------------------------------------------------------
 -                                                                             -
 -                                T I M I N G                                  -
 -                                                                             -
 -------------------------------------------------------------------------------
 SUBROUTINE                       CALLS  ASD         SELF TIME        TOTAL TIME
                                MAXIMUM       AVERAGE  MAXIMUM  AVERAGE  MAXIMUM
 CP2K                                 1  1.0    0.011    0.038  117.564  117.566
 qs_energies                          1  2.0    0.000    0.000  116.939  116.940
 scf_env_do_scf                       1  3.0    0.000    0.000  115.837  115.838
 scf_env_do_scf_inner_loop           36  4.0    0.001    0.003  110.300  110.301
 qs_ks_update_qs_env                 38  5.0    0.000    0.001   91.847   91.869
 rebuild_ks_matrix                   36  6.0    0.000    0.000   91.841   91.863
 qs_ks_build_kohn_sham_matrix        36  7.0    0.007    0.008   91.840   91.863
 pw_transfer                        761 10.1    0.076    0.081   55.624   59.093
 fft_wrap_pw1pw2                    653 11.3    0.008    0.010   55.229   58.654
 fft_wrap_pw1pw2_300                434 12.7    2.567    2.919   52.351   55.776
 qs_vxc_create                       36  8.0    0.001    0.001   50.774   50.779
 xc_vxc_pw_create                    36  9.0    0.355    0.382   50.774   50.778
 fft3d_ps                           653 13.3   20.615   24.790   40.737   43.822
 xc_pw_derive                       216 11.0    0.002    0.003   29.690   32.979
 xc_rho_set_and_dset_create          36 10.0    0.275    0.360   29.596   32.285
 xc_pw_divergence                    36 10.0    0.001    0.001   20.200   23.565
 qs_rho_update_rho                   37  5.0    0.001    0.001   22.895   22.896
 calculate_rho_elec                  37  6.0    0.188    0.193   21.823   21.824
 sum_up_and_integrate                36  8.0    0.067    0.080   18.848   18.854
 integrate_v_rspace                  36  9.0    0.001    0.002   18.780   18.799
 mp_alltoall_z22v                   653 15.3   12.072   17.516   12.072   17.516
 xc_functional_eval                 252 10.2    0.001    0.002   14.653   16.875
 pbe_lda_eval                       252 11.2   14.652   16.875   14.652   16.875
 density_rs2pw                       37  7.0    0.002    0.002   14.186   15.139
 yz_to_x                            328 13.9    3.949    4.628   11.017   13.362
 rs_pw_transfer                     364  9.5    0.006    0.008   10.791   11.992
 x_to_yz                            325 14.7    4.085    4.730    9.089   11.023
 grid_integrate_task_list            36 10.0    7.944   10.264    7.944   10.264
 grid_collocate_task_list            37  7.0    7.035    8.899    7.035    8.899
 prepare_gapw_den                    36  8.0    0.001    0.001    8.304    8.727
 potential_pw2rs                     36 10.0    0.010    0.013    8.507    8.523
 pw_gather_p                        328 12.9    5.834    7.819    5.834    7.819
 pw_scatter_p                       325 13.7    5.968    6.846    5.968    6.846
 put_rho0_on_grid                    36  9.0    0.195    0.215    6.024    6.447
 rs_pw_transfer_RS2PW_300            73 10.0    1.757    2.301    4.903    6.140
 mp_waitany                        2320 11.5    3.825    5.970    3.825    5.970
 mp_sum_d                          1968  8.7    3.652    5.725    3.652    5.725
 init_scf_loop                        2  4.0    0.000    0.000    5.536    5.537
 integrate_vhg0_rspace               36  8.0    0.586    0.727    3.755    3.762
 mp_alltoall_d11v                   691 11.9    2.348    3.648    2.348    3.648
 rs_pw_transfer_PW2RS_300            72 11.0    1.807    2.116    3.331    3.643
 rs_gather_matrices                  36 10.0    0.004    0.005    2.329    3.630
 mp_waitall_1                     43452 14.2    2.091    2.817    2.091    2.817
 calculate_vxc_atom                  36  8.0    0.190    0.391    2.751    2.754
 fft_wrap_pw1pw2_100                 73 11.5    0.094    0.129    2.399    2.659
 -------------------------------------------------------------------------------

 The number of warnings for this run is : 1
 
 -------------------------------------------------------------------------------
  **** **** ******  **  PROGRAM ENDED AT                 2022-05-12 11:24:21.078
 ***** ** ***  *** **   PROGRAM RAN ON                                   tcopt10
 **    ****   ******    PROGRAM RAN BY                                    hutter
 ***** **    ** ** **   PROGRAM PROCESS ID                                 54005
  **** **  *******  **  PROGRAM STOPPED IN /data/hutter/GITHUB/BASIS/scMOLOPT/PB
                                           E/Li
