 DBCSR| CPU Multiplication driver                                           XSMM
 DBCSR| Multrec recursion limit                                              512
 DBCSR| Multiplication stack size                                           1000
 DBCSR| Maximum elements for images                                    UNLIMITED
 DBCSR| Multiplicative factor virtual images                                   1
 DBCSR| Use multiplication densification                                       T
 DBCSR| Multiplication size stacks                                             3
 DBCSR| Use memory pool for CPU allocation                                     F
 DBCSR| Number of 3D layers                                               SINGLE
 DBCSR| Use MPI memory allocation                                              F
 DBCSR| Use RMA algorithm                                                      F
 DBCSR| Use Communication thread                                               T
 DBCSR| Communication thread load                                             87
 DBCSR| MPI: My node id                                                        0
 DBCSR| MPI: Number of nodes                                                  12
 DBCSR| OMP: Current number of threads                                         1
 DBCSR| OMP: Max number of threads                                             1
 DBCSR| Split modifier for TAS multiplication algorithm                  1.0E+00


  **** **** ******  **  PROGRAM STARTED AT               2022-05-12 11:36:30.756
 ***** ** ***  *** **   PROGRAM STARTED ON                               tcopt10
 **    ****   ******    PROGRAM STARTED BY                                hutter
 ***** **    ** ** **   PROGRAM PROCESS ID                                 55207
  **** **  *******  **  PROGRAM STARTED IN /data/hutter/GITHUB/BASIS/scMOLOPT/PB
                                           E/Li

 CP2K| version string:                   CP2K version 10.0 (Development Version)
 CP2K| source code revision number:                                  git:13fcfd8
 CP2K| cp2kflags: omp libint fftw3 libxc elpa parallel mpi3 scalapack cosma xsmm
 CP2K|             spglib sirius libvori libbqb
 CP2K| is freely available from                            https://www.cp2k.org/
 CP2K| Program compiled at                      Tue 10 May 2022 02:27:21 PM CEST
 CP2K| Program compiled on                                               tcopt10
 CP2K| Program compiled for                                                local
 CP2K| Data directory path                   /data/hutter/GITHUB/TDLRI/cp2k/data
 CP2K| Input file name                                             Li4H4-ref.inp

 GLOBAL| Force Environment number                                              1
 GLOBAL| Basis set file name                                        ../def2QZVPP
 GLOBAL| Potential file name                                        ../POTENTIAL
 GLOBAL| MM Potential file name                                     MM_POTENTIAL
 GLOBAL| Coordinate file name                                      __STD_INPUT__
 GLOBAL| Method name                                                        CP2K
 GLOBAL| Project name                                                 refLi4H4q3
 GLOBAL| Run type                                                         ENERGY
 GLOBAL| FFT library                                                       FFTW3
 GLOBAL| Diagonalization library                                            ELPA
 GLOBAL| Minimum number of eigenvectors for ELPA usage                        16
 GLOBAL| Orthonormality check for eigenvectors                          DISABLED
 GLOBAL| Matrix multiplication library                                     COSMA
 GLOBAL| All-to-all communication in single precision                          F
 GLOBAL| FFTs using library dependent lengths                                  F
 GLOBAL| Grid backend                                                       AUTO
 GLOBAL| Global print level                                                  LOW
 GLOBAL| MPI I/O enabled                                                       T
 GLOBAL| Total number of message passing processes                            12
 GLOBAL| Number of threads for this process                                    1
 GLOBAL| This output is from process                                           0
 GLOBAL| Stack size for threads created by OpenMP (OMP_STACKSIZE)        default
 GLOBAL| CPU model name                          AMD EPYC 7401 24-Core Processor
 GLOBAL| CPUID                                                              1002

 MEMORY| system memory details [Kb]
 MEMORY|                        rank 0           min           max       average
 MEMORY| MemTotal            263969136     263969136     263969136     263969136
 MEMORY| MemFree             230506276     230506276     230506276     230506276
 MEMORY| Buffers                   136           136           136           136
 MEMORY| Cached               18917868      18917868      18917868      18917868
 MEMORY| Slab                  1426100       1426100       1426100       1426100
 MEMORY| SReclaimable           872444        872444        872444        872444
 MEMORY| MemLikelyFree       250296724     250296724     250296724     250296724


 GENERATE|  Preliminary Number of Bonds generated:                             9
 GENERATE|  Achieved consistency in connectivity generation.
 GENERATE|  Number of Bonds generated:                                         9
 GENERATE|  Preliminary Number of Bends generated:                            15
 GENERATE|  Number of Bends generated:                                        15
 GENERATE|  Number of UB generated:                                           15
 GENERATE|  Preliminary Number of Torsions generated:                         12
 GENERATE|  Number of Torsions generated:                                     12
 GENERATE|  Number of Impropers generated:                                     5

 *******************************************************************************
 *******************************************************************************
 **                                                                           **
 **     #####                         ##              ##                      **
 **    ##   ##            ##          ##              ##                      **
 **   ##     ##                       ##            ######                    **
 **   ##     ##  ##   ##  ##   #####  ##  ##   ####   ##    #####    #####    **
 **   ##     ##  ##   ##  ##  ##      ## ##   ##      ##   ##   ##  ##   ##   **
 **   ##  ## ##  ##   ##  ##  ##      ####     ###    ##   ######   ######    **
 **    ##  ###   ##   ##  ##  ##      ## ##      ##   ##   ##       ##        **
 **     #######   #####   ##   #####  ##  ##  ####    ##    #####   ##        **
 **           ##                                                    ##        **
 **                                                                           **
 **                                                ... make the atoms dance   **
 **                                                                           **
 **            Copyright (C) by CP2K developers group (2000-2022)             **
 **                      J. Chem. Phys. 152, 194103 (2020)                    **
 **                                                                           **
 *******************************************************************************


 TOTAL NUMBERS AND MAXIMUM NUMBERS

  Total number of            - Atomic kinds:                                   2
                             - Atoms:                                          8
                             - Shell sets:                                    92
                             - Shells:                                        92
                             - Primitive Cartesian functions:                148
                             - Cartesian basis functions:                    300
                             - Spherical basis functions:                    260

  Maximum angular momentum of the orbital basis functions:                     3


 SCF PARAMETERS         Density guess:                                    ATOMIC
                        --------------------------------------------------------
                        max_scf:                                              20
                        max_scf_history:                                       0
                        max_diis:                                              4
                        --------------------------------------------------------
                        eps_scf:                                        1.00E-07
                        eps_scf_history:                                0.00E+00
                        eps_diis:                                       1.00E-01
                        eps_eigval:                                     1.00E-05
                        --------------------------------------------------------
                        level_shift [a.u.]:                             0.000000
                        --------------------------------------------------------
                        Outer loop SCF in use 
                        No variables optimised in outer loop
                        eps_scf                                         1.00E-07
                        max_scf                                               10
                        No outer loop optimization
                        step_size                                       5.00E-01

 Number of electrons:                                                         16
 Number of occupied orbitals:                                                  8
 Number of molecular orbitals:                                                 8

 Number of orbital functions:                                                260
 Number of independent orbital functions:                                    260

 Extrapolation method: initial_guess


 SCF WAVEFUNCTION OPTIMIZATION

  ----------------------------------- OT ---------------------------------------
  Minimizer      : DIIS                : direct inversion
                                         in the iterative subspace
                                         using   7 DIIS vectors
                                         safer DIIS on
  Preconditioner : FULL_ALL            : diagonalization, state selective
  Precond_solver : DEFAULT
  stepsize       :    0.10000000                  energy_gap     :    0.08000000
  eps_taylor     :   0.10000E-15                  max_taylor     :             4
  ----------------------------------- OT ---------------------------------------

  Step     Update method      Time    Convergence         Total energy    Change
  ------------------------------------------------------------------------------
     1 OT DIIS     0.10E+00    1.3     0.20383273       -28.9339564753 -2.89E+01
     2 OT DIIS     0.10E+00    1.6     0.16910994       -30.3683721096 -1.43E+00
     3 OT DIIS     0.10E+00    1.6     0.03626884       -32.1037369514 -1.74E+00
     4 OT DIIS     0.10E+00    1.6     0.02139036       -32.2629994090 -1.59E-01
     5 OT DIIS     0.10E+00    1.6     0.00985354       -32.3781401329 -1.15E-01
     6 OT DIIS     0.10E+00    1.6     0.00650282       -32.4008277617 -2.27E-02
     7 OT DIIS     0.10E+00    1.6     0.00396048       -32.4136577352 -1.28E-02
     8 OT DIIS     0.10E+00    1.6     0.00221286       -32.4197400213 -6.08E-03
     9 OT DIIS     0.10E+00    1.6     0.00109732       -32.4218831635 -2.14E-03
    10 OT DIIS     0.10E+00    1.6     0.00055776       -32.4224449208 -5.62E-04
    11 OT DIIS     0.10E+00    1.6     0.00047895       -32.4225486417 -1.04E-04
    12 OT DIIS     0.10E+00    1.6     0.00024582       -32.4225746077 -2.60E-05
    13 OT DIIS     0.10E+00    1.6     0.00012385       -32.4226015776 -2.70E-05
    14 OT DIIS     0.10E+00    1.6     0.00007024       -32.4226087804 -7.20E-06
    15 OT DIIS     0.10E+00    1.6     0.00003635       -32.4226111107 -2.33E-06
    16 OT DIIS     0.10E+00    1.6     0.00002166       -32.4226116661 -5.55E-07
    17 OT DIIS     0.10E+00    1.6     0.00001315       -32.4226118579 -1.92E-07
    18 OT DIIS     0.10E+00    1.6     0.00000699       -32.4226119329 -7.49E-08
    19 OT DIIS     0.10E+00    1.6     0.00000489       -32.4226119497 -1.68E-08
    20 OT DIIS     0.10E+00    1.6     0.00000398       -32.4226119550 -5.33E-09

  Leaving inner SCF loop after reaching    20 steps.


  Electronic density on regular grids:        -13.1731846464        2.8268153536
  Core density on regular grids:               16.0000000000       -0.0000000000
  Hard and soft densities (Lebedev):          -36.9586157786      -34.1318004231
  Total Rho_soft + Rho1_hard - Rho1_soft      -16.0000000018
  Total charge density (r-space):              -0.0000000018
  Total Rho_soft + Rho0_soft (g-space):        -0.0000000543

  Overlap energy of the core charge distribution:               0.00000000000002
  Self energy of the core charge distribution:                -31.03042709512659
  Core Hamiltonian energy:                                      3.04354577902899
  Hartree energy:                                              12.32221392608475
  Exchange-correlation energy:                                 -5.24524696371860

  GAPW| Exc from hard and soft atomic rho1:                    -3.64637210468784
  GAPW| local Eh = 1 center integrals:                         -7.86632549659138

  Total energy:                                               -32.42261195501065

  outer SCF iter =    1 RMS gradient =   0.40E-05 energy =        -32.4226119550

  ----------------------------------- OT ---------------------------------------
  Minimizer      : DIIS                : direct inversion
                                         in the iterative subspace
                                         using   7 DIIS vectors
                                         safer DIIS on
  Preconditioner : FULL_ALL            : diagonalization, state selective
  Precond_solver : DEFAULT
  stepsize       :    0.10000000                  energy_gap     :    0.08000000
  eps_taylor     :   0.10000E-15                  max_taylor     :             4
  ----------------------------------- OT ---------------------------------------

  Step     Update method      Time    Convergence         Total energy    Change
  ------------------------------------------------------------------------------
     1 OT DIIS     0.10E+00    3.2     0.00000330       -32.4226119593 -4.27E-09
     2 OT DIIS     0.10E+00    1.6     0.00000198       -32.4226119611 -1.81E-09
     3 OT DIIS     0.10E+00    1.6     0.00000015       -32.4226119621 -1.03E-09
     4 OT DIIS     0.10E+00    1.6     0.00000003       -32.4226119621 -4.07E-12

  *** SCF run converged in     4 steps ***


  Electronic density on regular grids:        -13.1731854098        2.8268145902
  Core density on regular grids:               16.0000000000       -0.0000000000
  Hard and soft densities (Lebedev):          -36.9584594367      -34.1316448447
  Total Rho_soft + Rho1_hard - Rho1_soft      -16.0000000018
  Total charge density (r-space):              -0.0000000018
  Total Rho_soft + Rho0_soft (g-space):        -0.0000000543

  Overlap energy of the core charge distribution:               0.00000000000002
  Self energy of the core charge distribution:                -31.03042709512659
  Core Hamiltonian energy:                                      3.04355357864258
  Hartree energy:                                              12.32221496914459
  Exchange-correlation energy:                                 -5.24525424780250

  GAPW| Exc from hard and soft atomic rho1:                    -3.64637100011533
  GAPW| local Eh = 1 center integrals:                         -7.86632816687353

  Total energy:                                               -32.42261196213078

  outer SCF iter =    2 RMS gradient =   0.33E-07 energy =        -32.4226119621
  outer SCF loop converged in   2 iterations or   24 steps


 ENERGY| Total FORCE_EVAL ( QS ) energy [a.u.]:              -32.422611962130780

 -------------------------------------------------------------------------------
 -                                                                             -
 -                                DBCSR STATISTICS                             -
 -                                                                             -
 -------------------------------------------------------------------------------
 COUNTER                                    TOTAL       BLAS       SMM       ACC
 flops     8 x     8 x     8               182272       0.0%    100.0%      0.0%
 flops     8 x     8 x    30               752640       0.0%    100.0%      0.0%
 flops     8 x     8 x    35               878080       0.0%    100.0%      0.0%
 flops     8 x     8 x    65              1630720       0.0%    100.0%      0.0%
 flops    30 x    35 x     8              3360000       0.0%    100.0%      0.0%
 flops    35 x    30 x     8              3360000       0.0%    100.0%      0.0%
 flops    30 x    30 x     8              3600000       0.0%    100.0%      0.0%
 flops   130 x     8 x     8              4060160       0.0%    100.0%      0.0%
 flops    35 x    35 x     8              4900000       0.0%    100.0%      0.0%
 flops   130 x     8 x    30             12979200       0.0%    100.0%      0.0%
 flops    30 x     8 x    30             14284800       0.0%    100.0%      0.0%
 flops   130 x     8 x    35             15142400       0.0%    100.0%      0.0%
 flops    35 x     8 x    30             16665600       0.0%    100.0%      0.0%
 flops    30 x     8 x    35             16665600       0.0%    100.0%      0.0%
 flops    35 x     8 x    35             19443200       0.0%    100.0%      0.0%
 flops   130 x     8 x    65             28121600       0.0%    100.0%      0.0%
 flops inhomo. stacks                           0       0.0%      0.0%      0.0%
 flops total                       146.026272E+06       0.0%    100.0%      0.0%
 flops max/rank                     68.034992E+06       0.0%    100.0%      0.0%
 matmuls inhomo. stacks                         0       0.0%      0.0%      0.0%
 matmuls total                               6502       0.0%    100.0%      0.0%
 number of processed stacks                  4218       0.0%    100.0%      0.0%
 average stack size                                     0.0       1.5       0.0
 marketing flops                   157.912480E+06
 -------------------------------------------------------------------------------
 # multiplications                            539
 max memory usage/rank             426.749952E+06
 # max total images/rank                        3
 # max 3D layers                                1
 # MPI messages exchanged                   51744
 MPI messages size (bytes):
  total size                       333.192960E+06
  min size                           0.000000E+00
  max size                          67.600000E+03
  average size                       6.439258E+03
 MPI breakdown and total messages size (bytes):
             size <=      128               37882                        0
       128 < size <=     8192                5552                 12706560
      8192 < size <=    32768                3750                 83366400
     32768 < size <=   131072                4560                237120000
    131072 < size <=  4194304                   0                        0
   4194304 < size <= 16777216                   0                        0
  16777216 < size                               0                        0
 -------------------------------------------------------------------------------

 *** WARNING in dbcsr_mm.F:290 :: Using a non-square number of MPI ranks ***
 *** might lead to poor performance. Used ranks: 12 Suggested: 9 25      ***

 -------------------------------------------------------------------------------
 -                                                                             -
 -                      DBCSR MESSAGE PASSING PERFORMANCE                      -
 -                                                                             -
 -------------------------------------------------------------------------------
 ROUTINE             CALLS      AVE VOLUME [Bytes]
 MP_Bcast               17                     12.
 MP_Allreduce         2894                      8.
 MP_Alltoall          2118                   1362.
 MP_ISend            11492                   3160.
 MP_IRecv            11052                   3078.
 -------------------------------------------------------------------------------

 -------------------------------------------------------------------------------
 -                                                                             -
 -                                GRID STATISTICS                              -
 -                                                                             -
 -------------------------------------------------------------------------------
 LP    KERNEL             BACKEND                              COUNT     PERCENT
 1     collocate ortho    REF                                 203300      16.78%
 1     integrate ortho    REF                                 195168      16.11%
 2     collocate ortho    REF                                 157400      12.99%
 2     integrate ortho    REF                                 151104      12.47%
 0     collocate ortho    REF                                 114900       9.49%
 0     integrate ortho    REF                                 110304       9.11%
 3     collocate ortho    REF                                  93200       7.69%
 3     integrate ortho    REF                                  89472       7.39%
 4     collocate ortho    REF                                  36950       3.05%
 4     integrate ortho    REF                                  35472       2.93%
 5     collocate ortho    REF                                   7800       0.64%
 5     integrate ortho    REF                                   7488       0.62%
 2     collocate general  REF                                   2304       0.19%
 2     integrate general  REF                                   2304       0.19%
 6     collocate ortho    REF                                   2100       0.17%
 6     integrate ortho    REF                                   2016       0.17%
 -------------------------------------------------------------------------------

 MEMORY| Estimated peak process memory [MiB]                                 411

 -------------------------------------------------------------------------------
 -                                                                             -
 -                         MESSAGE PASSING PERFORMANCE                         -
 -                                                                             -
 -------------------------------------------------------------------------------

 ROUTINE             CALLS      AVE VOLUME [Bytes]
 MP_Group                4
 MP_Bcast              798                 196625.
 MP_Allreduce         2142                  27665.
 MP_Sync                56
 MP_Alltoall           498               18921854.
 MP_ISendRecv         1617                 338304.
 MP_Wait              3460
 MP_comm_split          26
 MP_ISend             1552                1093860.
 MP_IRecv             1552                1093860.
 MP_Recv                 6                   4160.
 -------------------------------------------------------------------------------


 -------------------------------------------------------------------------------
 -                                                                             -
 -                           R E F E R E N C E S                               -
 -                                                                             -
 -------------------------------------------------------------------------------
 
 CP2K version 10.0 (Development Version), the CP2K developers group (2022).
 CP2K is freely available from https://www.cp2k.org/ .

 Kuehne,Thomas D.; Iannuzzi,Marcella; Del Ben,Mauro;
 Rybkin,Vladimir V.; Seewald,Patrick; Stein,Frederick; Laino,Teodoro;
 Khaliullin,Rustam Z.; Schuett,Ole; Schiffmann,Florian; Golze,Dorothea;
 Wilhelm,Jan; Chulkov,Sergey; Bani-Hashemian,Mohammad Hossein;
 Weber,Valery; Borstnik,Urban; Taillefumier,Mathieu;
 Jakobovits,Alice Shoshana; Lazzaro,Alfio; Pabst,Hans; Mueller,Tiziano;
 Schade,Robert; Guidon,Manuel; Andermatt,Samuel; Holmberg,Nico;
 Schenter,Gregory K.; Hehn,Anna; Bussy,Augustin; Belleflamme,Fabian;
 Tabacchi,Gloria; Gloess,Andreas; Lass,Michael; Bethune,Iain;
 Mundy,Christopher J.; Plessl,Christian; Watkins,Matt;
 VandeVondele,Joost; Krack,Matthias; Hutter,Juerg. 
 The Journal of Chemical Physics, 152 (19), (2020). 
 CP2K: An electronic structure and molecular dynamics software package -
 Quickstep: Efficient and accurate electronic structure calculations.
 https://doi.org/10.1063/5.0007045

 Schuett, Ole; Messmer, Peter; Hutter, Juerg; VandeVondele, Joost. 
 Electronic Structure Calculations on Graphics Processing Units, John
 Wiley & Sons, Ltd, 173-190 (2016). 
 GPU-Accelerated Sparse Matrix-Matrix Multiplication for
 Linear Scaling Density Functional Theory.
 https://doi.org/10.1002/9781118670712.ch8

 Heinecke, A; Henry, G; Hutchinson, M; Pabst, H. 
 Proceedings of Intl. Supercomputing Conference, 981-991 (2016). 
 LIBXSMM: Accelerating Small Matrix Multiplications
 by Runtime Code Generation.
 https://doi.org/10.1109/SC.2016.83

 Borstnik, U; VandeVondele, J; Weber, V; Hutter, J. 
 PARALLEL COMPUTING, 40 (5-6), 47-58 (2014). 
 Sparse matrix multiplication: The distributed block-compressed sparse
 row library.
 https://doi.org/10.1016/j.parco.2014.03.012

 Hutter, J; Iannuzzi, M; Schiffmann, F; VandeVondele, J. 
 WIREs Comput Mol Sci., 4 (1), 15-25 (2014). 
 CP2K: atomistic simulations of condensed matter systems.
 https://doi.org/10.1002/wcms.1159

 Marek, A; Blum, V; Johanni, R; Havu, V; Lang, B; Auckenthaler, T;
 Heinecke, A; Bungartz, H; Lederer, H. 
 Journal of Physics: Condensed Matter, 26 (21), (2014). 
 The ELPA library: scalable parallel eigenvalue solutions for
 electronic structure
 theory and computational science.
 https://doi.org/10.1088/0953-8984/26/21/213201

 Frigo, M; Johnson, SG. 
 PROCEEDINGS OF THE IEEE, 93 (2), 216-231 (2005). 
 The design and implementation of FFTW3.
 https://doi.org/10.1109/JPROC.2004.840301

 VandeVondele, J; Hutter, J. 
 JOURNAL OF CHEMICAL PHYSICS, 118 (10), 4365-4369 (2003). 
 An efficient orbital transformation method for electronic structure
 calculations.
 https://doi.org/10.1063/1.1543154

 Lippert, G; Hutter, J; Parrinello, M. 
 THEORETICAL CHEMISTRY ACCOUNTS, 103 (2), 124-140 (1999). 
 The Gaussian and augmented-plane-wave density functional method for ab
 initio molecular dynamics simulations.
 https://doi.org/10.1007/s002140050523

 Krack, M; Parrinello, M. 
 PHYSICAL CHEMISTRY CHEMICAL PHYSICS, 2 (10), 2105-2112 (2000). 
 All-electron ab-initio molecular dynamics.
 https://doi.org/10.1039/b001167n

 Perdew, JP; Burke, K; Ernzerhof, M. 
 PHYSICAL REVIEW LETTERS, 77 (18), 3865-3868 (1996). 
 Generalized gradient approximation made simple.
 https://doi.org/10.1103/PhysRevLett.77.3865


 -------------------------------------------------------------------------------
 -                                                                             -
 -                                T I M I N G                                  -
 -                                                                             -
 -------------------------------------------------------------------------------
 SUBROUTINE                       CALLS  ASD         SELF TIME        TOTAL TIME
                                MAXIMUM       AVERAGE  MAXIMUM  AVERAGE  MAXIMUM
 CP2K                                 1  1.0    0.009    0.029   39.313   39.314
 qs_energies                          1  2.0    0.000    0.000   39.031   39.031
 scf_env_do_scf                       1  3.0    0.000    0.000   38.557   38.557
 scf_env_do_scf_inner_loop           24  4.0    0.001    0.002   35.998   35.999
 qs_ks_update_qs_env                 26  5.0    0.000    0.000   29.410   29.412
 rebuild_ks_matrix                   24  6.0    0.000    0.000   29.408   29.410
 qs_ks_build_kohn_sham_matrix        24  7.0    0.005    0.005   29.408   29.410
 pw_transfer                        509 10.1    0.047    0.052   16.179   16.512
 fft_wrap_pw1pw2                    437 11.3    0.005    0.006   16.037   16.370
 fft_wrap_pw1pw2_300                290 12.6    0.774    0.888   15.198   15.425
 qs_vxc_create                       24  8.0    0.001    0.001   14.978   14.978
 xc_vxc_pw_create                    24  9.0    0.102    0.119   14.978   14.978
 fft3d_ps                           437 13.3    6.556    7.328   11.894   12.954
 xc_rho_set_and_dset_create          24 10.0    0.092    0.120    8.754    9.298
 qs_rho_update_rho                   25  5.0    0.000    0.000    8.873    8.873
 xc_pw_derive                       144 11.0    0.001    0.002    8.539    8.808
 calculate_rho_elec                  25  6.0    0.053    0.054    8.498    8.499
 sum_up_and_integrate                24  8.0    0.021    0.026    7.817    7.818
 integrate_v_rspace                  24  9.0    0.001    0.001    7.797    7.803
 xc_pw_divergence                    24 10.0    0.001    0.001    5.910    6.307
 mp_alltoall_z22v                   437 15.3    3.457    5.890    3.457    5.890
 density_rs2pw                       25  7.0    0.001    0.001    4.615    5.256
 grid_integrate_task_list            24 10.0    4.157    5.113    4.157    5.113
 xc_functional_eval                 120 10.4    0.000    0.001    4.573    5.063
 pbe_lda_eval                       120 11.4    4.573    5.062    4.573    5.062
 rs_pw_transfer                     244  9.5    0.004    0.005    4.001    4.732
 grid_collocate_task_list            25  7.0    3.697    4.520    3.697    4.520
 yz_to_x                            220 13.9    0.962    1.350    3.035    4.186
 x_to_yz                            217 14.7    0.907    1.239    2.291    2.945
 rs_pw_transfer_RS2PW_300            49 10.0    0.697    0.880    1.998    2.746
 potential_pw2rs                     24 10.0    0.003    0.004    2.677    2.683
 mp_waitany                        1552 11.5    1.583    2.656    1.583    2.656
 init_scf_loop                        2  4.0    0.000    0.000    2.558    2.558
 prepare_gapw_den                    24  8.0    0.000    0.001    2.393    2.506
 pw_gather_p                        220 12.9    1.717    2.255    1.717    2.255
 put_rho0_on_grid                    24  9.0    0.056    0.063    1.974    2.087
 mp_sum_d                          1136  6.7    1.251    1.997    1.251    1.997
 pw_scatter_p                       217 13.7    1.612    1.838    1.612    1.838
 mp_alltoall_d11v                   535 11.7    0.971    1.785    0.971    1.785
 rs_gather_matrices                  24 10.0    0.001    0.001    0.962    1.774
 rs_pw_transfer_PW2RS_300            48 11.0    0.677    0.799    1.279    1.397
 integrate_vhg0_rspace               24  8.0    0.094    0.119    1.186    1.194
 fft_wrap_pw1pw2_100                 49 11.5    0.027    0.034    0.673    0.845
 calculate_vxc_atom                  24  8.0    0.049    0.147    0.820    0.820
 -------------------------------------------------------------------------------

 The number of warnings for this run is : 1
 
 -------------------------------------------------------------------------------
  **** **** ******  **  PROGRAM ENDED AT                 2022-05-12 11:37:10.497
 ***** ** ***  *** **   PROGRAM RAN ON                                   tcopt10
 **    ****   ******    PROGRAM RAN BY                                    hutter
 ***** **    ** ** **   PROGRAM PROCESS ID                                 55207
  **** **  *******  **  PROGRAM STOPPED IN /data/hutter/GITHUB/BASIS/scMOLOPT/PB
                                           E/Li
