 DBCSR| CPU Multiplication driver                                           XSMM
 DBCSR| Multrec recursion limit                                              512
 DBCSR| Multiplication stack size                                           1000
 DBCSR| Maximum elements for images                                    UNLIMITED
 DBCSR| Multiplicative factor virtual images                                   1
 DBCSR| Use multiplication densification                                       T
 DBCSR| Multiplication size stacks                                             3
 DBCSR| Use memory pool for CPU allocation                                     F
 DBCSR| Number of 3D layers                                               SINGLE
 DBCSR| Use MPI memory allocation                                              F
 DBCSR| Use RMA algorithm                                                      F
 DBCSR| Use Communication thread                                               T
 DBCSR| Communication thread load                                             87
 DBCSR| MPI: My node id                                                        0
 DBCSR| MPI: Number of nodes                                                  12
 DBCSR| OMP: Current number of threads                                         1
 DBCSR| OMP: Max number of threads                                             1
 DBCSR| Split modifier for TAS multiplication algorithm                  1.0E+00


  **** **** ******  **  PROGRAM STARTED AT               2022-05-12 11:39:19.481
 ***** ** ***  *** **   PROGRAM STARTED ON                               tcopt10
 **    ****   ******    PROGRAM STARTED BY                                hutter
 ***** **    ** ** **   PROGRAM PROCESS ID                                 55458
  **** **  *******  **  PROGRAM STARTED IN /data/hutter/GITHUB/BASIS/scMOLOPT/PB
                                           E/Li

 CP2K| version string:                   CP2K version 10.0 (Development Version)
 CP2K| source code revision number:                                  git:13fcfd8
 CP2K| cp2kflags: omp libint fftw3 libxc elpa parallel mpi3 scalapack cosma xsmm
 CP2K|             spglib sirius libvori libbqb
 CP2K| is freely available from                            https://www.cp2k.org/
 CP2K| Program compiled at                      Tue 10 May 2022 02:27:21 PM CEST
 CP2K| Program compiled on                                               tcopt10
 CP2K| Program compiled for                                                local
 CP2K| Data directory path                   /data/hutter/GITHUB/TDLRI/cp2k/data
 CP2K| Input file name                                               Li8-ref.inp

 GLOBAL| Force Environment number                                              1
 GLOBAL| Basis set file name                                        ../def2QZVPP
 GLOBAL| Potential file name                                        ../POTENTIAL
 GLOBAL| MM Potential file name                                     MM_POTENTIAL
 GLOBAL| Coordinate file name                                      __STD_INPUT__
 GLOBAL| Method name                                                        CP2K
 GLOBAL| Project name                                                   refLi8q3
 GLOBAL| Run type                                                         ENERGY
 GLOBAL| FFT library                                                       FFTW3
 GLOBAL| Diagonalization library                                            ELPA
 GLOBAL| Minimum number of eigenvectors for ELPA usage                        16
 GLOBAL| Orthonormality check for eigenvectors                          DISABLED
 GLOBAL| Matrix multiplication library                                     COSMA
 GLOBAL| All-to-all communication in single precision                          F
 GLOBAL| FFTs using library dependent lengths                                  F
 GLOBAL| Grid backend                                                       AUTO
 GLOBAL| Global print level                                                  LOW
 GLOBAL| MPI I/O enabled                                                       T
 GLOBAL| Total number of message passing processes                            12
 GLOBAL| Number of threads for this process                                    1
 GLOBAL| This output is from process                                           0
 GLOBAL| Stack size for threads created by OpenMP (OMP_STACKSIZE)        default
 GLOBAL| CPU model name                          AMD EPYC 7401 24-Core Processor
 GLOBAL| CPUID                                                              1002

 MEMORY| system memory details [Kb]
 MEMORY|                        rank 0           min           max       average
 MEMORY| MemTotal            263969136     263969136     263969136     263969136
 MEMORY| MemFree             230513948     230513948     230513948     230513948
 MEMORY| Buffers                   136           136           136           136
 MEMORY| Cached               18917972      18917972      18917972      18917972
 MEMORY| Slab                  1426600       1426600       1426600       1426600
 MEMORY| SReclaimable           872596        872596        872596        872596
 MEMORY| MemLikelyFree       250304652     250304652     250304652     250304652


 GENERATE|  Preliminary Number of Bonds generated:                             0
 GENERATE|  Achieved consistency in connectivity generation.

 *******************************************************************************
 *******************************************************************************
 **                                                                           **
 **     #####                         ##              ##                      **
 **    ##   ##            ##          ##              ##                      **
 **   ##     ##                       ##            ######                    **
 **   ##     ##  ##   ##  ##   #####  ##  ##   ####   ##    #####    #####    **
 **   ##     ##  ##   ##  ##  ##      ## ##   ##      ##   ##   ##  ##   ##   **
 **   ##  ## ##  ##   ##  ##  ##      ####     ###    ##   ######   ######    **
 **    ##  ###   ##   ##  ##  ##      ## ##      ##   ##   ##       ##        **
 **     #######   #####   ##   #####  ##  ##  ####    ##    #####   ##        **
 **           ##                                                    ##        **
 **                                                                           **
 **                                                ... make the atoms dance   **
 **                                                                           **
 **            Copyright (C) by CP2K developers group (2000-2022)             **
 **                      J. Chem. Phys. 152, 194103 (2020)                    **
 **                                                                           **
 *******************************************************************************


 TOTAL NUMBERS AND MAXIMUM NUMBERS

  Total number of            - Atomic kinds:                                   1
                             - Atoms:                                          8
                             - Shell sets:                                   104
                             - Shells:                                       104
                             - Primitive Cartesian functions:                192
                             - Cartesian basis functions:                    320
                             - Spherical basis functions:                    280

  Maximum angular momentum of the orbital basis functions:                     3


 SCF PARAMETERS         Density guess:                                    ATOMIC
                        --------------------------------------------------------
                        max_scf:                                              30
                        max_scf_history:                                       0
                        max_diis:                                              4
                        --------------------------------------------------------
                        eps_scf:                                        1.00E-06
                        eps_scf_history:                                0.00E+00
                        eps_diis:                                       1.00E-01
                        eps_eigval:                                     1.00E-05
                        --------------------------------------------------------
                        level_shift [a.u.]:                             0.000000
                        --------------------------------------------------------
                        Outer loop SCF in use 
                        No variables optimised in outer loop
                        eps_scf                                         1.00E-06
                        max_scf                                                5
                        No outer loop optimization
                        step_size                                       5.00E-01

 Number of electrons:                                                         24
 Number of occupied orbitals:                                                 12
 Number of molecular orbitals:                                                12

 Number of orbital functions:                                                280
 Number of independent orbital functions:                                    280

 Extrapolation method: initial_guess


 SCF WAVEFUNCTION OPTIMIZATION

  ----------------------------------- OT ---------------------------------------
  Minimizer      : DIIS                : direct inversion
                                         in the iterative subspace
                                         using   7 DIIS vectors
                                         safer DIIS on
  Preconditioner : FULL_ALL            : diagonalization, state selective
  Precond_solver : DEFAULT
  stepsize       :    0.10000000                  energy_gap     :    0.08000000
  eps_taylor     :   0.10000E-15                  max_taylor     :             4
  ----------------------------------- OT ---------------------------------------

  Step     Update method      Time    Convergence         Total energy    Change
  ------------------------------------------------------------------------------
     1 OT DIIS     0.10E+00    1.7     0.15677160       -55.9733413926 -5.60E+01
     2 OT DIIS     0.10E+00    2.3     0.12894055       -58.2565060346 -2.28E+00
     3 OT DIIS     0.10E+00    2.3     0.04001701       -59.5913918442 -1.33E+00
     4 OT DIIS     0.10E+00    2.3     0.01731822       -59.7773022643 -1.86E-01
     5 OT DIIS     0.10E+00    2.3     0.01182225       -59.8296075874 -5.23E-02
     6 OT DIIS     0.10E+00    2.3     0.00573150       -59.8690577219 -3.95E-02
     7 OT DIIS     0.10E+00    2.3     0.00477148       -59.8796497967 -1.06E-02
     8 OT DIIS     0.10E+00    2.3     0.00375429       -59.8890381516 -9.39E-03
     9 OT DIIS     0.10E+00    2.3     0.00354191       -59.8933429155 -4.30E-03
    10 OT DIIS     0.10E+00    2.3     0.00337936       -59.9044143149 -1.11E-02
    11 OT DIIS     0.10E+00    2.3     0.00297819       -59.9124449433 -8.03E-03
    12 OT DIIS     0.10E+00    2.3     0.00268478       -59.9218882505 -9.44E-03
    13 OT DIIS     0.10E+00    2.3     0.00277261       -59.9337011681 -1.18E-02
    14 OT DIIS     0.10E+00    2.3     0.00157629       -59.9367720839 -3.07E-03
    15 OT DIIS     0.10E+00    2.3     0.00384795       -59.9402050079 -3.43E-03
    16 OT DIIS     0.10E+00    2.3     0.00162107       -59.9409686636 -7.64E-04
    17 OT DIIS     0.10E+00    2.3     0.00113097       -59.9424370478 -1.47E-03
    18 OT DIIS     0.10E+00    2.3     0.00135390       -59.9433829791 -9.46E-04
    19 OT DIIS     0.10E+00    2.3     0.00068052       -59.9435954576 -2.12E-04
    20 OT DIIS     0.10E+00    2.3     0.00030814       -59.9439256064 -3.30E-04
    21 OT DIIS     0.10E+00    2.3     0.00031333       -59.9439958919 -7.03E-05
    22 OT DIIS     0.10E+00    2.3     0.00044112       -59.9440045907 -8.70E-06
    23 OT DIIS     0.10E+00    2.3     0.00017937       -59.9440395995 -3.50E-05
    24 OT DIIS     0.10E+00    2.3     0.00010049       -59.9440529331 -1.33E-05
    25 OT DIIS     0.10E+00    2.3     0.00007032       -59.9440621041 -9.17E-06
    26 OT DIIS     0.10E+00    2.3     0.00005496       -59.9440672249 -5.12E-06
    27 OT DIIS     0.10E+00    2.3     0.00004301       -59.9440698619 -2.64E-06
    28 OT DIIS     0.10E+00    2.3     0.00003599       -59.9440710531 -1.19E-06
    29 OT DIIS     0.10E+00    2.3     0.00003063       -59.9440719378 -8.85E-07
    30 OT DIIS     0.10E+00    2.3     0.00002483       -59.9440727700 -8.32E-07

  Leaving inner SCF loop after reaching    30 steps.


  Electronic density on regular grids:        -18.5366197812        5.4633802188
  Core density on regular grids:               24.0000000000        0.0000000000
  Hard and soft densities (Lebedev):          -28.6470990600      -23.1837188589
  Total Rho_soft + Rho1_hard - Rho1_soft      -23.9999999823
  Total charge density (r-space):               0.0000000177
  Total Rho_soft + Rho0_soft (g-space):        -0.0000001704

  Overlap energy of the core charge distribution:               0.00000000000000
  Self energy of the core charge distribution:                -50.77706251929807
  Core Hamiltonian energy:                                      1.88581473553730
  Hartree energy:                                              12.55082274586734
  Exchange-correlation energy:                                 -7.45188043519122

  GAPW| Exc from hard and soft atomic rho1:                    -7.18776824053879
  GAPW| local Eh = 1 center integrals:                         -8.96399905636407

  Total energy:                                               -59.94407276998752

  outer SCF iter =    1 RMS gradient =   0.25E-04 energy =        -59.9440727700

  ----------------------------------- OT ---------------------------------------
  Minimizer      : DIIS                : direct inversion
                                         in the iterative subspace
                                         using   7 DIIS vectors
                                         safer DIIS on
  Preconditioner : FULL_ALL            : diagonalization, state selective
  Precond_solver : DEFAULT
  stepsize       :    0.10000000                  energy_gap     :    0.08000000
  eps_taylor     :   0.10000E-15                  max_taylor     :             4
  ----------------------------------- OT ---------------------------------------

  Step     Update method      Time    Convergence         Total energy    Change
  ------------------------------------------------------------------------------
     1 OT DIIS     0.10E+00    4.7     0.00003692       -59.9440736553 -8.85E-07
     2 OT DIIS     0.10E+00    2.3     0.00002512       -59.9440740334 -3.78E-07
     3 OT DIIS     0.10E+00    2.3     0.00001062       -59.9440743410 -3.08E-07
     4 OT DIIS     0.10E+00    2.3     0.00000418       -59.9440743923 -5.14E-08
     5 OT DIIS     0.10E+00    2.3     0.00000160       -59.9440744010 -8.68E-09
     6 OT DIIS     0.10E+00    2.3     0.00000063       -59.9440744023 -1.24E-09

  *** SCF run converged in     6 steps ***


  Electronic density on regular grids:        -18.5366347230        5.4633652770
  Core density on regular grids:               24.0000000000        0.0000000000
  Hard and soft densities (Lebedev):          -28.6488465573      -23.1854812979
  Total Rho_soft + Rho1_hard - Rho1_soft      -23.9999999823
  Total charge density (r-space):               0.0000000177
  Total Rho_soft + Rho0_soft (g-space):        -0.0000001704

  Overlap energy of the core charge distribution:               0.00000000000000
  Self energy of the core charge distribution:                -50.77706251929807
  Core Hamiltonian energy:                                      1.88582779850582
  Hartree energy:                                              12.55085889457353
  Exchange-correlation energy:                                 -7.45192101347149

  GAPW| Exc from hard and soft atomic rho1:                    -7.18774693962286
  GAPW| local Eh = 1 center integrals:                         -8.96403062295856

  Total energy:                                               -59.94407440227163

  outer SCF iter =    2 RMS gradient =   0.63E-06 energy =        -59.9440744023
  outer SCF loop converged in   2 iterations or   36 steps


 ENERGY| Total FORCE_EVAL ( QS ) energy [a.u.]:              -59.944074402271632

 -------------------------------------------------------------------------------
 -                                                                             -
 -                                DBCSR STATISTICS                             -
 -                                                                             -
 -------------------------------------------------------------------------------
 COUNTER                                    TOTAL       BLAS       SMM       ACC
 flops    12 x    12 x    12              1022976       0.0%    100.0%      0.0%
 flops   105 x    12 x    12              5503680       0.0%    100.0%      0.0%
 flops    12 x    12 x    35              5886720       0.0%    100.0%      0.0%
 flops    12 x    12 x    70              5886720       0.0%    100.0%      0.0%
 flops   175 x    12 x    12              9172800       0.0%    100.0%      0.0%
 flops   105 x    12 x    35             26812800       0.0%    100.0%      0.0%
 flops   105 x    12 x    70             26812800       0.0%    100.0%      0.0%
 flops    35 x    35 x    12             39160800       0.0%    100.0%      0.0%
 flops   175 x    12 x    70             44688000       0.0%    100.0%      0.0%
 flops   175 x    12 x    35             44688000       0.0%    100.0%      0.0%
 flops    35 x    12 x    35            161817600       0.0%    100.0%      0.0%
 flops inhomo. stacks                           0       0.0%      0.0%      0.0%
 flops total                       371.452896E+06       0.0%    100.0%      0.0%
 flops max/rank                    201.860400E+06       0.0%    100.0%      0.0%
 matmuls inhomo. stacks                         0       0.0%      0.0%      0.0%
 matmuls total                               9284       0.0%    100.0%      0.0%
 number of processed stacks                  3924       0.0%    100.0%      0.0%
 average stack size                                     0.0       2.4       0.0
 marketing flops                   402.072576E+06
 -------------------------------------------------------------------------------
 # multiplications                            825
 max memory usage/rank             421.580800E+06
 # max total images/rank                        3
 # max 3D layers                                1
 # MPI messages exchanged                   79200
 MPI messages size (bytes):
  total size                       568.617216E+06
  min size                           0.000000E+00
  max size                          98.000000E+03
  average size                       7.179510E+03
 MPI breakdown and total messages size (bytes):
             size <=      128               58882                        0
       128 < size <=     8192                8408                 31151616
      8192 < size <=    32768                5430                124689600
     32768 < size <=   131072                6480                412776000
    131072 < size <=  4194304                   0                        0
   4194304 < size <= 16777216                   0                        0
  16777216 < size                               0                        0
 -------------------------------------------------------------------------------

 *** WARNING in dbcsr_mm.F:290 :: Using a non-square number of MPI ranks ***
 *** might lead to poor performance. Used ranks: 12 Suggested: 9 25      ***

 -------------------------------------------------------------------------------
 -                                                                             -
 -                      DBCSR MESSAGE PASSING PERFORMANCE                      -
 -                                                                             -
 -------------------------------------------------------------------------------
 ROUTINE             CALLS      AVE VOLUME [Bytes]
 MP_Bcast               12                     12.
 MP_Allreduce         4419                      8.
 MP_Alltoall          2978                   1260.
 MP_ISend            17548                   2786.
 MP_IRecv            16816                   2764.
 -------------------------------------------------------------------------------

 -------------------------------------------------------------------------------
 -                                                                             -
 -                                GRID STATISTICS                              -
 -                                                                             -
 -------------------------------------------------------------------------------
 LP    KERNEL             BACKEND                              COUNT     PERCENT
 1     collocate ortho    REF                                 741184      17.25%
 1     integrate ortho    REF                                 721152      16.79%
 2     collocate ortho    REF                                 579272      13.48%
 2     integrate ortho    REF                                 563616      13.12%
 0     collocate ortho    REF                                 369408       8.60%
 0     integrate ortho    REF                                 359424       8.37%
 3     collocate ortho    REF                                 318496       7.41%
 3     integrate ortho    REF                                 309888       7.21%
 4     collocate ortho    REF                                 134384       3.13%
 4     integrate ortho    REF                                 130752       3.04%
 5     collocate ortho    REF                                  23088       0.54%
 5     integrate ortho    REF                                  22464       0.52%
 6     collocate ortho    REF                                   7992       0.19%
 6     integrate ortho    REF                                   7776       0.18%
 2     collocate general  REF                                   3456       0.08%
 2     integrate general  REF                                   3456       0.08%
 -------------------------------------------------------------------------------

 MEMORY| Estimated peak process memory [MiB]                                 406

 -------------------------------------------------------------------------------
 -                                                                             -
 -                         MESSAGE PASSING PERFORMANCE                         -
 -                                                                             -
 -------------------------------------------------------------------------------

 ROUTINE             CALLS      AVE VOLUME [Bytes]
 MP_Group                4
 MP_Bcast             1258                  69520.
 MP_Allreduce         3220                  34844.
 MP_Sync                76
 MP_Alltoall           738               19106806.
 MP_ISendRecv         2409                 338304.
 MP_Wait              5164
 MP_comm_split          36
 MP_ISend             2320                1093860.
 MP_IRecv             2320                1093860.
 MP_Recv                10                   4480.
 -------------------------------------------------------------------------------


 -------------------------------------------------------------------------------
 -                                                                             -
 -                           R E F E R E N C E S                               -
 -                                                                             -
 -------------------------------------------------------------------------------
 
 CP2K version 10.0 (Development Version), the CP2K developers group (2022).
 CP2K is freely available from https://www.cp2k.org/ .

 Kuehne,Thomas D.; Iannuzzi,Marcella; Del Ben,Mauro;
 Rybkin,Vladimir V.; Seewald,Patrick; Stein,Frederick; Laino,Teodoro;
 Khaliullin,Rustam Z.; Schuett,Ole; Schiffmann,Florian; Golze,Dorothea;
 Wilhelm,Jan; Chulkov,Sergey; Bani-Hashemian,Mohammad Hossein;
 Weber,Valery; Borstnik,Urban; Taillefumier,Mathieu;
 Jakobovits,Alice Shoshana; Lazzaro,Alfio; Pabst,Hans; Mueller,Tiziano;
 Schade,Robert; Guidon,Manuel; Andermatt,Samuel; Holmberg,Nico;
 Schenter,Gregory K.; Hehn,Anna; Bussy,Augustin; Belleflamme,Fabian;
 Tabacchi,Gloria; Gloess,Andreas; Lass,Michael; Bethune,Iain;
 Mundy,Christopher J.; Plessl,Christian; Watkins,Matt;
 VandeVondele,Joost; Krack,Matthias; Hutter,Juerg. 
 The Journal of Chemical Physics, 152 (19), (2020). 
 CP2K: An electronic structure and molecular dynamics software package -
 Quickstep: Efficient and accurate electronic structure calculations.
 https://doi.org/10.1063/5.0007045

 Schuett, Ole; Messmer, Peter; Hutter, Juerg; VandeVondele, Joost. 
 Electronic Structure Calculations on Graphics Processing Units, John
 Wiley & Sons, Ltd, 173-190 (2016). 
 GPU-Accelerated Sparse Matrix-Matrix Multiplication for
 Linear Scaling Density Functional Theory.
 https://doi.org/10.1002/9781118670712.ch8

 Heinecke, A; Henry, G; Hutchinson, M; Pabst, H. 
 Proceedings of Intl. Supercomputing Conference, 981-991 (2016). 
 LIBXSMM: Accelerating Small Matrix Multiplications
 by Runtime Code Generation.
 https://doi.org/10.1109/SC.2016.83

 Borstnik, U; VandeVondele, J; Weber, V; Hutter, J. 
 PARALLEL COMPUTING, 40 (5-6), 47-58 (2014). 
 Sparse matrix multiplication: The distributed block-compressed sparse
 row library.
 https://doi.org/10.1016/j.parco.2014.03.012

 Hutter, J; Iannuzzi, M; Schiffmann, F; VandeVondele, J. 
 WIREs Comput Mol Sci., 4 (1), 15-25 (2014). 
 CP2K: atomistic simulations of condensed matter systems.
 https://doi.org/10.1002/wcms.1159

 Marek, A; Blum, V; Johanni, R; Havu, V; Lang, B; Auckenthaler, T;
 Heinecke, A; Bungartz, H; Lederer, H. 
 Journal of Physics: Condensed Matter, 26 (21), (2014). 
 The ELPA library: scalable parallel eigenvalue solutions for
 electronic structure
 theory and computational science.
 https://doi.org/10.1088/0953-8984/26/21/213201

 Frigo, M; Johnson, SG. 
 PROCEEDINGS OF THE IEEE, 93 (2), 216-231 (2005). 
 The design and implementation of FFTW3.
 https://doi.org/10.1109/JPROC.2004.840301

 VandeVondele, J; Hutter, J. 
 JOURNAL OF CHEMICAL PHYSICS, 118 (10), 4365-4369 (2003). 
 An efficient orbital transformation method for electronic structure
 calculations.
 https://doi.org/10.1063/1.1543154

 Lippert, G; Hutter, J; Parrinello, M. 
 THEORETICAL CHEMISTRY ACCOUNTS, 103 (2), 124-140 (1999). 
 The Gaussian and augmented-plane-wave density functional method for ab
 initio molecular dynamics simulations.
 https://doi.org/10.1007/s002140050523

 Krack, M; Parrinello, M. 
 PHYSICAL CHEMISTRY CHEMICAL PHYSICS, 2 (10), 2105-2112 (2000). 
 All-electron ab-initio molecular dynamics.
 https://doi.org/10.1039/b001167n

 Perdew, JP; Burke, K; Ernzerhof, M. 
 PHYSICAL REVIEW LETTERS, 77 (18), 3865-3868 (1996). 
 Generalized gradient approximation made simple.
 https://doi.org/10.1103/PhysRevLett.77.3865


 -------------------------------------------------------------------------------
 -                                                                             -
 -                                T I M I N G                                  -
 -                                                                             -
 -------------------------------------------------------------------------------
 SUBROUTINE                       CALLS  ASD         SELF TIME        TOTAL TIME
                                MAXIMUM       AVERAGE  MAXIMUM  AVERAGE  MAXIMUM
 CP2K                                 1  1.0    0.009    0.031   84.873   84.875
 qs_energies                          1  2.0    0.000    0.000   84.613   84.614
 scf_env_do_scf                       1  3.0    0.000    0.000   83.700   83.701
 scf_env_do_scf_inner_loop           36  4.0    0.001    0.002   80.354   80.355
 qs_ks_update_qs_env                 38  5.0    0.000    0.001   58.162   58.164
 rebuild_ks_matrix                   36  6.0    0.000    0.000   58.158   58.161
 qs_ks_build_kohn_sham_matrix        36  7.0    0.006    0.008   58.158   58.160
 sum_up_and_integrate                36  8.0    0.029    0.034   25.354   25.355
 integrate_v_rspace                  36  9.0    0.001    0.001   25.324   25.334
 qs_rho_update_rho                   37  5.0    0.001    0.001   25.250   25.252
 pw_transfer                        761 10.1    0.070    0.074   23.970   24.704
 fft_wrap_pw1pw2                    653 11.3    0.008    0.009   23.757   24.482
 calculate_rho_elec                  37  6.0    0.079    0.080   23.651   23.652
 fft_wrap_pw1pw2_300                434 12.7    1.182    1.352   22.639   23.177
 qs_vxc_create                       36  8.0    0.001    0.001   22.303   22.304
 xc_vxc_pw_create                    36  9.0    0.158    0.176   22.303   22.303
 grid_integrate_task_list            36 10.0   18.132   21.342   18.132   21.342
 fft3d_ps                           653 13.3    9.901   10.950   17.281   19.047
 grid_collocate_task_list            37  7.0   15.153   17.796   15.153   17.796
 xc_rho_set_and_dset_create          36 10.0    0.143    0.176   13.256   13.879
 xc_pw_derive                       216 11.0    0.002    0.002   12.618   13.137
 density_rs2pw                       37  7.0    0.002    0.002    8.211   11.492
 rs_pw_transfer                     364  9.5    0.006    0.007    7.361   10.696
 xc_pw_divergence                    36 10.0    0.001    0.001    8.664    9.301
 mp_alltoall_z22v                   653 15.3    4.300    8.878    4.300    8.878
 rs_pw_transfer_RS2PW_300            73 10.0    1.067    1.276    4.340    7.780
 mp_waitany                        2320 11.5    3.692    7.596    3.692    7.596
 xc_functional_eval                 108 10.4    0.001    0.001    6.989    7.489
 pbe_lda_eval                       108 11.4    6.989    7.488    6.989    7.488
 mp_alltoall_d11v                   691 11.9    3.227    7.282    3.227    7.282
 rs_gather_matrices                  36 10.0    0.001    0.002    3.215    7.272
 yz_to_x                            328 13.9    1.575    2.003    4.143    6.313
 x_to_yz                            325 14.7    1.488    1.835    3.220    4.294
 potential_pw2rs                     36 10.0    0.005    0.006    3.976    3.984
 prepare_gapw_den                    36  8.0    0.001    0.001    3.548    3.683
 pw_gather_p                        328 12.9    2.740    3.349    2.740    3.349
 init_scf_loop                        2  4.0    0.000    0.000    3.345    3.345
 put_rho0_on_grid                    36  9.0    0.086    0.097    2.997    3.132
 pw_scatter_p                       325 13.7    2.495    2.763    2.495    2.763
 mp_sum_d                          1531  7.8    1.265    2.684    1.265    2.684
 rs_pw_transfer_PW2RS_300            72 11.0    1.044    1.199    1.958    2.081
 dbcsr_multiply_generic             825 10.1    0.025    0.028    1.439    1.942
 integrate_vhg0_rspace               36  8.0    0.168    0.212    1.846    1.857
 mp_sum_dm                          880  7.7    1.140    1.828    1.140    1.828
 -------------------------------------------------------------------------------

 The number of warnings for this run is : 1
 
 -------------------------------------------------------------------------------
  **** **** ******  **  PROGRAM ENDED AT                 2022-05-12 11:40:44.793
 ***** ** ***  *** **   PROGRAM RAN ON                                   tcopt10
 **    ****   ******    PROGRAM RAN BY                                    hutter
 ***** **    ** ** **   PROGRAM PROCESS ID                                 55458
  **** **  *******  **  PROGRAM STOPPED IN /data/hutter/GITHUB/BASIS/scMOLOPT/PB
                                           E/Li
