 DBCSR| CPU Multiplication driver                                           XSMM
 DBCSR| Multrec recursion limit                                              512
 DBCSR| Multiplication stack size                                           1000
 DBCSR| Maximum elements for images                                    UNLIMITED
 DBCSR| Multiplicative factor virtual images                                   1
 DBCSR| Use multiplication densification                                       T
 DBCSR| Multiplication size stacks                                             3
 DBCSR| Use memory pool for CPU allocation                                     F
 DBCSR| Number of 3D layers                                               SINGLE
 DBCSR| Use MPI memory allocation                                              F
 DBCSR| Use RMA algorithm                                                      F
 DBCSR| Use Communication thread                                               T
 DBCSR| Communication thread load                                             87
 DBCSR| MPI: My node id                                                        0
 DBCSR| MPI: Number of nodes                                                  12
 DBCSR| OMP: Current number of threads                                         1
 DBCSR| OMP: Max number of threads                                             1
 DBCSR| Split modifier for TAS multiplication algorithm                  1.0E+00


  **** **** ******  **  PROGRAM STARTED AT               2022-05-12 11:47:59.834
 ***** ** ***  *** **   PROGRAM STARTED ON                               tcopt10
 **    ****   ******    PROGRAM STARTED BY                                hutter
 ***** **    ** ** **   PROGRAM PROCESS ID                                 56302
  **** **  *******  **  PROGRAM STARTED IN /data/hutter/GITHUB/BASIS/scMOLOPT/PB
                                           E/Li

 CP2K| version string:                   CP2K version 10.0 (Development Version)
 CP2K| source code revision number:                                  git:13fcfd8
 CP2K| cp2kflags: omp libint fftw3 libxc elpa parallel mpi3 scalapack cosma xsmm
 CP2K|             spglib sirius libvori libbqb
 CP2K| is freely available from                            https://www.cp2k.org/
 CP2K| Program compiled at                      Tue 10 May 2022 02:27:21 PM CEST
 CP2K| Program compiled on                                               tcopt10
 CP2K| Program compiled for                                                local
 CP2K| Data directory path                   /data/hutter/GITHUB/TDLRI/cp2k/data
 CP2K| Input file name                                               LiH-ref.inp

 GLOBAL| Force Environment number                                              1
 GLOBAL| Basis set file name                                        ../def2QZVPP
 GLOBAL| Potential file name                                        ../POTENTIAL
 GLOBAL| MM Potential file name                                     MM_POTENTIAL
 GLOBAL| Coordinate file name                                      __STD_INPUT__
 GLOBAL| Method name                                                        CP2K
 GLOBAL| Project name                                                   refLiHq3
 GLOBAL| Run type                                                         ENERGY
 GLOBAL| FFT library                                                       FFTW3
 GLOBAL| Diagonalization library                                            ELPA
 GLOBAL| Minimum number of eigenvectors for ELPA usage                        16
 GLOBAL| Orthonormality check for eigenvectors                          DISABLED
 GLOBAL| Matrix multiplication library                                     COSMA
 GLOBAL| All-to-all communication in single precision                          F
 GLOBAL| FFTs using library dependent lengths                                  F
 GLOBAL| Grid backend                                                       AUTO
 GLOBAL| Global print level                                                  LOW
 GLOBAL| MPI I/O enabled                                                       T
 GLOBAL| Total number of message passing processes                            12
 GLOBAL| Number of threads for this process                                    1
 GLOBAL| This output is from process                                           0
 GLOBAL| Stack size for threads created by OpenMP (OMP_STACKSIZE)        default
 GLOBAL| CPU model name                          AMD EPYC 7401 24-Core Processor
 GLOBAL| CPUID                                                              1002

 MEMORY| system memory details [Kb]
 MEMORY|                        rank 0           min           max       average
 MEMORY| MemTotal            263969136     263969136     263969136     263969136
 MEMORY| MemFree             241047096     241047096     241047096     241047096
 MEMORY| Buffers                   136           136           136           136
 MEMORY| Cached               18905664      18905664      18905664      18905664
 MEMORY| Slab                  1424080       1424080       1424080       1424080
 MEMORY| SReclaimable           872276        872276        872276        872276
 MEMORY| MemLikelyFree       260825172     260825172     260825172     260825172


 GENERATE|  Preliminary Number of Bonds generated:                             0
 GENERATE|  Achieved consistency in connectivity generation.

 *******************************************************************************
 *******************************************************************************
 **                                                                           **
 **     #####                         ##              ##                      **
 **    ##   ##            ##          ##              ##                      **
 **   ##     ##                       ##            ######                    **
 **   ##     ##  ##   ##  ##   #####  ##  ##   ####   ##    #####    #####    **
 **   ##     ##  ##   ##  ##  ##      ## ##   ##      ##   ##   ##  ##   ##   **
 **   ##  ## ##  ##   ##  ##  ##      ####     ###    ##   ######   ######    **
 **    ##  ###   ##   ##  ##  ##      ## ##      ##   ##   ##       ##        **
 **     #######   #####   ##   #####  ##  ##  ####    ##    #####   ##        **
 **           ##                                                    ##        **
 **                                                                           **
 **                                                ... make the atoms dance   **
 **                                                                           **
 **            Copyright (C) by CP2K developers group (2000-2022)             **
 **                      J. Chem. Phys. 152, 194103 (2020)                    **
 **                                                                           **
 *******************************************************************************


 TOTAL NUMBERS AND MAXIMUM NUMBERS

  Total number of            - Atomic kinds:                                   2
                             - Atoms:                                          2
                             - Shell sets:                                    23
                             - Shells:                                        23
                             - Primitive Cartesian functions:                 37
                             - Cartesian basis functions:                     75
                             - Spherical basis functions:                     65

  Maximum angular momentum of the orbital basis functions:                     3


 SCF PARAMETERS         Density guess:                                    ATOMIC
                        --------------------------------------------------------
                        max_scf:                                              20
                        max_scf_history:                                       0
                        max_diis:                                              4
                        --------------------------------------------------------
                        eps_scf:                                        1.00E-07
                        eps_scf_history:                                0.00E+00
                        eps_diis:                                       1.00E-01
                        eps_eigval:                                     1.00E-05
                        --------------------------------------------------------
                        level_shift [a.u.]:                             0.000000
                        --------------------------------------------------------
                        Outer loop SCF in use 
                        No variables optimised in outer loop
                        eps_scf                                         1.00E-07
                        max_scf                                               10
                        No outer loop optimization
                        step_size                                       5.00E-01

 Number of electrons:                                                          4
 Number of occupied orbitals:                                                  2
 Number of molecular orbitals:                                                 2

 Number of orbital functions:                                                 65
 Number of independent orbital functions:                                     65

 Extrapolation method: initial_guess


 SCF WAVEFUNCTION OPTIMIZATION

  ----------------------------------- OT ---------------------------------------
  Minimizer      : DIIS                : direct inversion
                                         in the iterative subspace
                                         using   7 DIIS vectors
                                         safer DIIS on
  Preconditioner : FULL_ALL            : diagonalization, state selective
  Precond_solver : DEFAULT
  stepsize       :    0.10000000                  energy_gap     :    0.08000000
  eps_taylor     :   0.10000E-15                  max_taylor     :             4
  ----------------------------------- OT ---------------------------------------

  Step     Update method      Time    Convergence         Total energy    Change
  ------------------------------------------------------------------------------
     1 OT DIIS     0.10E+00    0.8     0.16556533        -7.9471520725 -7.95E+00
     2 OT DIIS     0.10E+00    1.0     0.08412658        -7.9975529434 -5.04E-02
     3 OT DIIS     0.10E+00    1.0     0.03152520        -8.0423208108 -4.48E-02
     4 OT DIIS     0.10E+00    1.0     0.00952056        -8.0472151939 -4.89E-03
     5 OT DIIS     0.10E+00    1.0     0.00463630        -8.0477575606 -5.42E-04
     6 OT DIIS     0.10E+00    1.0     0.00176077        -8.0478527205 -9.52E-05
     7 OT DIIS     0.10E+00    1.0     0.00063187        -8.0478828407 -3.01E-05
     8 OT DIIS     0.10E+00    1.0     0.00028234        -8.0478860236 -3.18E-06
     9 OT DIIS     0.10E+00    1.0     0.00002078        -8.0478864078 -3.84E-07
    10 OT DIIS     0.10E+00    1.0     0.00000401        -8.0478864150 -7.16E-09
    11 OT DIIS     0.10E+00    1.0     0.00000400        -8.0478864151 -1.31E-10
    12 OT DIIS     0.10E+00    1.0     0.00000038        -8.0478864153 -1.80E-10
    13 OT DIIS     0.10E+00    1.0     0.00000022        -8.0478864153 -1.88E-12
    14 OT DIIS     0.10E+00    1.0     0.00000007        -8.0478864153 -8.10E-13

  *** SCF run converged in    14 steps ***


  Electronic density on regular grids:         -3.2927779913        0.7072220087
  Core density on regular grids:                4.0000000000       -0.0000000000
  Hard and soft densities (Lebedev):           -6.9123968570       -6.2051748479
  Total Rho_soft + Rho1_hard - Rho1_soft       -4.0000000004
  Total charge density (r-space):              -0.0000000004
  Total Rho_soft + Rho0_soft (g-space):        -0.0000000127

  Overlap energy of the core charge distribution:               0.00000000000443
  Self energy of the core charge distribution:                 -7.75760677378165
  Core Hamiltonian energy:                                      0.70931253817265
  Hartree energy:                                               3.14617141429336
  Exchange-correlation energy:                                 -1.27051206995857

  GAPW| Exc from hard and soft atomic rho1:                    -0.91329595212858
  GAPW| local Eh = 1 center integrals:                         -1.96195557191094

  Total energy:                                                -8.04788641530930

  outer SCF iter =    1 RMS gradient =   0.66E-07 energy =         -8.0478864153
  outer SCF loop converged in   1 iterations or   14 steps


 ENERGY| Total FORCE_EVAL ( QS ) energy [a.u.]:               -8.047886415309302

 -------------------------------------------------------------------------------
 -                                                                             -
 -                                DBCSR STATISTICS                             -
 -                                                                             -
 -------------------------------------------------------------------------------
 COUNTER                                    TOTAL       BLAS       SMM       ACC
 flops     2 x     2 x     2                 1920       0.0%    100.0%      0.0%
 flops     2 x     2 x    30                13680       0.0%    100.0%      0.0%
 flops     2 x     2 x    35                15960       0.0%    100.0%      0.0%
 flops    65 x     2 x     2                36920       0.0%    100.0%      0.0%
 flops    30 x    30 x     2                54000       0.0%    100.0%      0.0%
 flops    30 x    35 x     2                63000       0.0%    100.0%      0.0%
 flops    35 x    35 x     2                73500       0.0%    100.0%      0.0%
 flops    30 x     2 x    30               129600       0.0%    100.0%      0.0%
 flops    30 x     2 x    35               151200       0.0%    100.0%      0.0%
 flops    35 x     2 x    30               151200       0.0%    100.0%      0.0%
 flops    35 x     2 x    35               176400       0.0%    100.0%      0.0%
 flops    65 x     2 x    30               234000       0.0%    100.0%      0.0%
 flops    65 x     2 x    35               273000       0.0%    100.0%      0.0%
 flops inhomo. stacks                           0       0.0%      0.0%      0.0%
 flops total                         1.374380E+06       0.0%    100.0%      0.0%
 flops max/rank                      1.320380E+06       0.0%    100.0%      0.0%
 matmuls inhomo. stacks                         0       0.0%      0.0%      0.0%
 matmuls total                                554       0.0%    100.0%      0.0%
 number of processed stacks                   554       0.0%    100.0%      0.0%
 average stack size                                     0.0       1.0       0.0
 marketing flops                     1.437904E+06
 -------------------------------------------------------------------------------
 # multiplications                            330
 max memory usage/rank             399.503360E+06
 # max total images/rank                        3
 # max 3D layers                                1
 # MPI messages exchanged                   31680
 MPI messages size (bytes):
  total size                        12.066432E+06
  min size                           0.000000E+00
  max size                          18.200000E+03
  average size                     380.884857E+00
 MPI breakdown and total messages size (bytes):
             size <=      128               29744                    25312
       128 < size <=     8192                1276                   887120
      8192 < size <=    32768                 660                 11154000
     32768 < size <=   131072                   0                        0
    131072 < size <=  4194304                   0                        0
   4194304 < size <= 16777216                   0                        0
  16777216 < size                               0                        0
 -------------------------------------------------------------------------------

 *** WARNING in dbcsr_mm.F:290 :: Using a non-square number of MPI ranks ***
 *** might lead to poor performance. Used ranks: 12 Suggested: 9 25      ***

 -------------------------------------------------------------------------------
 -                                                                             -
 -                      DBCSR MESSAGE PASSING PERFORMANCE                      -
 -                                                                             -
 -------------------------------------------------------------------------------
 ROUTINE             CALLS      AVE VOLUME [Bytes]
 MP_Bcast               14                     12.
 MP_Allreduce         1784                      8.
 MP_Alltoall          1295                    633.
 MP_ISend             6842                    493.
 MP_IRecv             6626                    234.
 -------------------------------------------------------------------------------

 -------------------------------------------------------------------------------
 -                                                                             -
 -                                GRID STATISTICS                              -
 -                                                                             -
 -------------------------------------------------------------------------------
 LP    KERNEL             BACKEND                              COUNT     PERCENT
 1     collocate ortho    REF                                  10680      16.84%
 1     integrate ortho    REF                                   9968      15.72%
 2     collocate ortho    REF                                   8385      13.22%
 2     integrate ortho    REF                                   7826      12.34%
 0     collocate ortho    REF                                   5790       9.13%
 0     integrate ortho    REF                                   5404       8.52%
 3     collocate ortho    REF                                   5100       8.04%
 3     integrate ortho    REF                                   4760       7.50%
 4     collocate ortho    REF                                   2010       3.17%
 4     integrate ortho    REF                                   1876       2.96%
 5     collocate ortho    REF                                    360       0.57%
 5     integrate ortho    REF                                    336       0.53%
 2     collocate general  REF                                    336       0.53%
 2     integrate general  REF                                    336       0.53%
 6     collocate ortho    REF                                    135       0.21%
 6     integrate ortho    REF                                    126       0.20%
 -------------------------------------------------------------------------------

 MEMORY| Estimated peak process memory [MiB]                                 405

 -------------------------------------------------------------------------------
 -                                                                             -
 -                         MESSAGE PASSING PERFORMANCE                         -
 -                                                                             -
 -------------------------------------------------------------------------------

 ROUTINE             CALLS      AVE VOLUME [Bytes]
 MP_Group                4
 MP_Bcast              191                 796286.
 MP_Allreduce          861                  10653.
 MP_Sync                38
 MP_Alltoall           298               18550760.
 MP_ISendRecv          957                 338304.
 MP_Wait              2040
 MP_comm_split          17
 MP_ISend              912                1093860.
 MP_IRecv              912                1093860.
 MP_Recv                 1                    520.
 -------------------------------------------------------------------------------


 -------------------------------------------------------------------------------
 -                                                                             -
 -                           R E F E R E N C E S                               -
 -                                                                             -
 -------------------------------------------------------------------------------
 
 CP2K version 10.0 (Development Version), the CP2K developers group (2022).
 CP2K is freely available from https://www.cp2k.org/ .

 Kuehne,Thomas D.; Iannuzzi,Marcella; Del Ben,Mauro;
 Rybkin,Vladimir V.; Seewald,Patrick; Stein,Frederick; Laino,Teodoro;
 Khaliullin,Rustam Z.; Schuett,Ole; Schiffmann,Florian; Golze,Dorothea;
 Wilhelm,Jan; Chulkov,Sergey; Bani-Hashemian,Mohammad Hossein;
 Weber,Valery; Borstnik,Urban; Taillefumier,Mathieu;
 Jakobovits,Alice Shoshana; Lazzaro,Alfio; Pabst,Hans; Mueller,Tiziano;
 Schade,Robert; Guidon,Manuel; Andermatt,Samuel; Holmberg,Nico;
 Schenter,Gregory K.; Hehn,Anna; Bussy,Augustin; Belleflamme,Fabian;
 Tabacchi,Gloria; Gloess,Andreas; Lass,Michael; Bethune,Iain;
 Mundy,Christopher J.; Plessl,Christian; Watkins,Matt;
 VandeVondele,Joost; Krack,Matthias; Hutter,Juerg. 
 The Journal of Chemical Physics, 152 (19), (2020). 
 CP2K: An electronic structure and molecular dynamics software package -
 Quickstep: Efficient and accurate electronic structure calculations.
 https://doi.org/10.1063/5.0007045

 Schuett, Ole; Messmer, Peter; Hutter, Juerg; VandeVondele, Joost. 
 Electronic Structure Calculations on Graphics Processing Units, John
 Wiley & Sons, Ltd, 173-190 (2016). 
 GPU-Accelerated Sparse Matrix-Matrix Multiplication for
 Linear Scaling Density Functional Theory.
 https://doi.org/10.1002/9781118670712.ch8

 Heinecke, A; Henry, G; Hutchinson, M; Pabst, H. 
 Proceedings of Intl. Supercomputing Conference, 981-991 (2016). 
 LIBXSMM: Accelerating Small Matrix Multiplications
 by Runtime Code Generation.
 https://doi.org/10.1109/SC.2016.83

 Borstnik, U; VandeVondele, J; Weber, V; Hutter, J. 
 PARALLEL COMPUTING, 40 (5-6), 47-58 (2014). 
 Sparse matrix multiplication: The distributed block-compressed sparse
 row library.
 https://doi.org/10.1016/j.parco.2014.03.012

 Hutter, J; Iannuzzi, M; Schiffmann, F; VandeVondele, J. 
 WIREs Comput Mol Sci., 4 (1), 15-25 (2014). 
 CP2K: atomistic simulations of condensed matter systems.
 https://doi.org/10.1002/wcms.1159

 Marek, A; Blum, V; Johanni, R; Havu, V; Lang, B; Auckenthaler, T;
 Heinecke, A; Bungartz, H; Lederer, H. 
 Journal of Physics: Condensed Matter, 26 (21), (2014). 
 The ELPA library: scalable parallel eigenvalue solutions for
 electronic structure
 theory and computational science.
 https://doi.org/10.1088/0953-8984/26/21/213201

 Frigo, M; Johnson, SG. 
 PROCEEDINGS OF THE IEEE, 93 (2), 216-231 (2005). 
 The design and implementation of FFTW3.
 https://doi.org/10.1109/JPROC.2004.840301

 VandeVondele, J; Hutter, J. 
 JOURNAL OF CHEMICAL PHYSICS, 118 (10), 4365-4369 (2003). 
 An efficient orbital transformation method for electronic structure
 calculations.
 https://doi.org/10.1063/1.1543154

 Lippert, G; Hutter, J; Parrinello, M. 
 THEORETICAL CHEMISTRY ACCOUNTS, 103 (2), 124-140 (1999). 
 The Gaussian and augmented-plane-wave density functional method for ab
 initio molecular dynamics simulations.
 https://doi.org/10.1007/s002140050523

 Krack, M; Parrinello, M. 
 PHYSICAL CHEMISTRY CHEMICAL PHYSICS, 2 (10), 2105-2112 (2000). 
 All-electron ab-initio molecular dynamics.
 https://doi.org/10.1039/b001167n

 Perdew, JP; Burke, K; Ernzerhof, M. 
 PHYSICAL REVIEW LETTERS, 77 (18), 3865-3868 (1996). 
 Generalized gradient approximation made simple.
 https://doi.org/10.1103/PhysRevLett.77.3865


 -------------------------------------------------------------------------------
 -                                                                             -
 -                                T I M I N G                                  -
 -                                                                             -
 -------------------------------------------------------------------------------
 SUBROUTINE                       CALLS  ASD         SELF TIME        TOTAL TIME
                                MAXIMUM       AVERAGE  MAXIMUM  AVERAGE  MAXIMUM
 CP2K                                 1  1.0    0.009    0.033   14.150   14.151
 qs_energies                          1  2.0    0.000    0.000   13.921   13.921
 scf_env_do_scf                       1  3.0    0.000    0.000   13.728   13.728
 scf_env_do_scf_inner_loop           14  4.0    0.000    0.001   12.899   12.899
 qs_ks_update_qs_env                 15  5.0    0.000    0.000   11.284   11.285
 rebuild_ks_matrix                   14  6.0    0.000    0.000   11.283   11.284
 qs_ks_build_kohn_sham_matrix        14  7.0    0.003    0.003   11.283   11.284
 pw_transfer                        299 10.1    0.030    0.033    7.313    7.410
 fft_wrap_pw1pw2                    257 11.2    0.003    0.004    7.232    7.324
 qs_vxc_create                       14  8.0    0.001    0.001    7.050    7.050
 xc_vxc_pw_create                    14  9.0    0.055    0.060    7.049    7.049
 fft_wrap_pw1pw2_300                170 12.6    0.417    0.469    6.879    6.973
 fft3d_ps                           257 13.2    3.425    3.588    5.171    5.293
 xc_rho_set_and_dset_create          14 10.0    0.047    0.051    4.439    4.487
 xc_pw_derive                        84 11.0    0.001    0.001    3.753    3.870
 xc_pw_divergence                    14 10.0    0.000    0.001    2.492    2.616
 xc_functional_eval                  70 10.8    0.000    0.000    2.450    2.524
 pbe_lda_eval                        70 11.8    2.450    2.523    2.450    2.523
 qs_rho_update_rho                   15  5.0    0.000    0.000    2.314    2.314
 calculate_rho_elec                  15  6.0    0.032    0.032    2.283    2.283
 density_rs2pw                       15  7.0    0.001    0.001    1.902    1.933
 rs_pw_transfer                     144  9.5    0.003    0.003    1.574    1.591
 sum_up_and_integrate                14  8.0    0.010    0.012    1.482    1.483
 integrate_v_rspace                  14  9.0    0.000    0.001    1.472    1.474
 mp_alltoall_z22v                   257 15.2    1.036    1.387    1.036    1.387
 potential_pw2rs                     14 10.0    0.002    0.002    1.276    1.280
 yz_to_x                            130 13.8    0.359    0.391    0.942    1.087
 prepare_gapw_den                    14  8.0    0.000    0.000    1.065    1.073
 x_to_yz                            127 14.6    0.342    0.377    0.795    0.957
 put_rho0_on_grid                    14  9.0    0.031    0.033    0.903    0.911
 pw_scatter_p                       127 13.6    0.826    0.843    0.826    0.843
 init_scf_loop                        1  4.0    0.000    0.000    0.828    0.828
 pw_gather_p                        130 12.8    0.796    0.816    0.796    0.816
 rs_pw_transfer_PW2RS_300            28 11.0    0.353    0.382    0.605    0.635
 mp_sum_d                           791  5.0    0.511    0.628    0.511    0.628
 rs_pw_transfer_RS2PW_300            29 10.0    0.368    0.408    0.582    0.617
 integrate_vhg0_rspace               14  8.0    0.014    0.015    0.464    0.466
 mp_waitany                         912 11.5    0.330    0.439    0.330    0.439
 calculate_vxc_atom                  14  8.0    0.009    0.068    0.360    0.360
 grid_collocate_task_list            15  7.0    0.293    0.316    0.293    0.316
 mp_waitall_1                     16968 14.2    0.260    0.310    0.260    0.310
 fft_wrap_pw1pw2_100                 29 11.4    0.015    0.018    0.271    0.304
 -------------------------------------------------------------------------------

 The number of warnings for this run is : 1
 
 -------------------------------------------------------------------------------
  **** **** ******  **  PROGRAM ENDED AT                 2022-05-12 11:48:14.342
 ***** ** ***  *** **   PROGRAM RAN ON                                   tcopt10
 **    ****   ******    PROGRAM RAN BY                                    hutter
 ***** **    ** ** **   PROGRAM PROCESS ID                                 56302
  **** **  *******  **  PROGRAM STOPPED IN /data/hutter/GITHUB/BASIS/scMOLOPT/PB
                                           E/Li
