 DBCSR| CPU Multiplication driver                                           XSMM
 DBCSR| Multrec recursion limit                                              512
 DBCSR| Multiplication stack size                                           1000
 DBCSR| Maximum elements for images                                    UNLIMITED
 DBCSR| Multiplicative factor virtual images                                   1
 DBCSR| Use multiplication densification                                       T
 DBCSR| Multiplication size stacks                                             3
 DBCSR| Use memory pool for CPU allocation                                     F
 DBCSR| Number of 3D layers                                               SINGLE
 DBCSR| Use MPI memory allocation                                              F
 DBCSR| Use RMA algorithm                                                      F
 DBCSR| Use Communication thread                                               T
 DBCSR| Communication thread load                                             87
 DBCSR| Split modifier for TAS multiplication algorithm                  1.0E+00


  **** **** ******  **  PROGRAM STARTED AT               2020-12-04 21:25:16.778
 ***** ** ***  *** **   PROGRAM STARTED ON                               tcopt10
 **    ****   ******    PROGRAM STARTED BY                                hutter
 ***** **    ** ** **   PROGRAM PROCESS ID                                 59430
  **** **  *******  **  PROGRAM STARTED IN /data/hutter/GITHUB/BASIS/MOLOPT/PBE0
                                           /Ca

 CP2K| version string:                    CP2K version 8.0 (Development Version)
 CP2K| source code revision number:                                  git:afc71fa
 CP2K| cp2kflags: omp libint fftw3 libxc elpa parallel mpi3 scalapack xsmm spgli
 CP2K|            b sirius
 CP2K| is freely available from                            https://www.cp2k.org/
 CP2K| Program compiled at                          Tue Nov 17 10:27:14 CET 2020
 CP2K| Program compiled on                                               tcopt10
 CP2K| Program compiled for                                                local
 CP2K| Data directory path                 /data/hutter/GITHUB/CURRENT/cp2k/data
 CP2K| Input file name                                              CaF2-ref.inp

 GLOBAL| Force Environment number                                              1
 GLOBAL| Basis set file name                                  ../PBE0_UCSEGBASIS
 GLOBAL| Potential file name                                        ../POTENTIAL
 GLOBAL| MM Potential file name                                     MM_POTENTIAL
 GLOBAL| Coordinate file name                                      __STD_INPUT__
 GLOBAL| Method name                                                        CP2K
 GLOBAL| Project name                                                  refCaF2q2
 GLOBAL| Preferred FFT library                                             FFTW3
 GLOBAL| Preferred diagonalization lib.                                     ELPA
 GLOBAL| Run type                                                         ENERGY
 GLOBAL| All-to-all communication in single precision                          F
 GLOBAL| FFTs using library dependent lengths                                  F
 GLOBAL| Global print level                                                  LOW
 GLOBAL| MPI I/O enabled                                                       T
 GLOBAL| Total number of message passing processes                            16
 GLOBAL| Number of threads for this process                                    1
 GLOBAL| This output is from process                                           0
 GLOBAL| CPU model name                          AMD EPYC 7401 24-Core Processor
 GLOBAL| CPUID                                                              1002

 MEMORY| system memory details [Kb]
 MEMORY|                        rank 0           min           max       average
 MEMORY| MemTotal            263987256     263987256     263987256     263987256
 MEMORY| MemFree             137209268     137209268     137209268     137209268
 MEMORY| Buffers                    32            32            32            32
 MEMORY| Cached               16348728      16348728      16348728      16348728
 MEMORY| Slab                  1371320       1371320       1371320       1371320
 MEMORY| SReclaimable           705992        705992        705992        705992
 MEMORY| MemLikelyFree       154264020     154264020     154264020     154264020


 GENERATE|  Preliminary Number of Bonds generated:                             0
 GENERATE|  Achieved consistency in connectivity generation.

 *******************************************************************************
 *******************************************************************************
 **                                                                           **
 **     #####                         ##              ##                      **
 **    ##   ##            ##          ##              ##                      **
 **   ##     ##                       ##            ######                    **
 **   ##     ##  ##   ##  ##   #####  ##  ##   ####   ##    #####    #####    **
 **   ##     ##  ##   ##  ##  ##      ## ##   ##      ##   ##   ##  ##   ##   **
 **   ##  ## ##  ##   ##  ##  ##      ####     ###    ##   ######   ######    **
 **    ##  ###   ##   ##  ##  ##      ## ##      ##   ##   ##       ##        **
 **     #######   #####   ##   #####  ##  ##  ####    ##    #####   ##        **
 **           ##                                                    ##        **
 **                                                                           **
 **                                                ... make the atoms dance   **
 **                                                                           **
 **            Copyright (C) by CP2K developers group (2000 - 2020)           **
 **                      J. Chem. Phys. 152, 194103 (2020)                    **
 **                                                                           **
 *******************************************************************************


 TOTAL NUMBERS AND MAXIMUM NUMBERS

  Total number of            - Atomic kinds:                                   2
                             - Atoms:                                          3
                             - Shell sets:                                    26
                             - Shells:                                        55
                             - Primitive Cartesian functions:                 33
                             - Cartesian basis functions:                    175
                             - Spherical basis functions:                    155

  Maximum angular momentum of- Orbital basis functions:                        3
                             - Local part of the GTH pseudopotential:          2
                             - Non-local part of the GTH pseudopotential:      4


 SCF PARAMETERS         Density guess:                                    ATOMIC
                        --------------------------------------------------------
                        max_scf:                                              10
                        max_scf_history:                                       0
                        max_diis:                                              4
                        --------------------------------------------------------
                        eps_scf:                                        1.00E-07
                        eps_scf_history:                                0.00E+00
                        eps_diis:                                       1.00E-01
                        eps_eigval:                                     1.00E-05
                        --------------------------------------------------------
                        level_shift [a.u.]:                                 0.00
                        --------------------------------------------------------
                        Outer loop SCF in use 
                        No variables optimised in outer loop
                        eps_scf                                         1.00E-07
                        max_scf                                               10
                        No outer loop optimization
                        step_size                                       5.00E-01

 Number of electrons:                                                         16
 Number of occupied orbitals:                                                  8
 Number of molecular orbitals:                                                 8

 Number of orbital functions:                                                155
 Number of independent orbital functions:                                    155

 Extrapolation method: initial_guess


 SCF WAVEFUNCTION OPTIMIZATION

  ----------------------------------- OT ---------------------------------------
  Minimizer      : DIIS                : direct inversion
                                         in the iterative subspace
                                         using   7 DIIS vectors
                                         safer DIIS on
  Preconditioner : FULL_ALL            : diagonalization, state selective
  Precond_solver : DEFAULT
  stepsize       :    0.15000000                  energy_gap     :    0.08000000
  eps_taylor     :   0.10000E-15                  max_taylor     :             4
  ----------------------------------- OT ---------------------------------------

  Step     Update method      Time    Convergence         Total energy    Change
  ------------------------------------------------------------------------------
     1 OT DIIS     0.15E+00   10.5     0.09931686       -48.5255172628 -4.85E+01
     2 OT DIIS     0.15E+00    0.9     0.07832232       -48.7442013485 -2.19E-01
     3 OT SD       0.15E+00    0.9     0.04840413       -49.0605770650 -3.16E-01
     4 OT DIIS     0.15E+00    0.9     0.02921388       -49.1847207107 -1.24E-01
     5 OT DIIS     0.15E+00    0.9     0.01672443       -49.2128019131 -2.81E-02
     6 OT DIIS     0.15E+00    0.8     0.00324609       -49.2327308309 -1.99E-02
     7 OT DIIS     0.15E+00    0.9     0.00208705       -49.2334997732 -7.69E-04
     8 OT DIIS     0.15E+00    0.8     0.00151075       -49.2338403982 -3.41E-04
     9 OT DIIS     0.15E+00    0.9     0.00083780       -49.2339620915 -1.22E-04
    10 OT DIIS     0.15E+00    0.9     0.00022491       -49.2340034305 -4.13E-05

  Leaving inner SCF loop after reaching    10 steps.


  Electronic density on regular grids:        -15.9999999734        0.0000000266
  Core density on regular grids:               16.0000000000        0.0000000000
  Total charge density on r-space grids:        0.0000000267
  Total charge density g-space grids:           0.0000000267

  Overlap energy of the core charge distribution:               0.00000062325736
  Self energy of the core charge distribution:               -132.77457773284894
  Core Hamiltonian energy:                                     36.87904189558299
  Hartree energy:                                              56.48265396590180
  Exchange-correlation energy:                                 -7.52680649532849
  Hartree-Fock Exchange energy:                                -2.29431568706107

  Total energy:                                               -49.23400343049636

  outer SCF iter =    1 RMS gradient =   0.22E-03 energy =        -49.2340034305

  ----------------------------------- OT ---------------------------------------
  Minimizer      : DIIS                : direct inversion
                                         in the iterative subspace
                                         using   7 DIIS vectors
                                         safer DIIS on
  Preconditioner : FULL_ALL            : diagonalization, state selective
  Precond_solver : DEFAULT
  stepsize       :    0.15000000                  energy_gap     :    0.08000000
  eps_taylor     :   0.10000E-15                  max_taylor     :             4
  ----------------------------------- OT ---------------------------------------

  Step     Update method      Time    Convergence         Total energy    Change
  ------------------------------------------------------------------------------
     1 OT DIIS     0.15E+00    1.7     0.00011932       -49.2340115217 -8.09E-06
     2 OT DIIS     0.15E+00    0.8     0.00006423       -49.2340127869 -1.27E-06
     3 OT DIIS     0.15E+00    0.9     0.00002711       -49.2340131143 -3.27E-07
     4 OT DIIS     0.15E+00    0.8     0.00000212       -49.2340132353 -1.21E-07
     5 OT DIIS     0.15E+00    0.8     0.00000052       -49.2340132360 -7.54E-10
     6 OT DIIS     0.15E+00    0.8     0.00000022       -49.2340132361 -3.09E-11
     7 OT DIIS     0.15E+00    0.9     0.00000012       -49.2340132361 -4.53E-12
     8 OT DIIS     0.15E+00    0.8     0.00000005       -49.2340132361 -9.95E-14

  *** SCF run converged in     8 steps ***


  Electronic density on regular grids:        -15.9999999733        0.0000000267
  Core density on regular grids:               16.0000000000        0.0000000000
  Total charge density on r-space grids:        0.0000000267
  Total charge density g-space grids:           0.0000000267

  Overlap energy of the core charge distribution:               0.00000062325736
  Self energy of the core charge distribution:               -132.77457773284894
  Core Hamiltonian energy:                                     36.88232171884244
  Hartree energy:                                              56.48003218716040
  Exchange-correlation energy:                                 -7.52730139359229
  Hartree-Fock Exchange energy:                                -2.29448863888219

  Total energy:                                               -49.23401323606322

  outer SCF iter =    2 RMS gradient =   0.49E-07 energy =        -49.2340132361
  outer SCF loop converged in   2 iterations or   18 steps


 ENERGY| Total FORCE_EVAL ( QS ) energy [a.u.]:              -49.234013236063220

 -------------------------------------------------------------------------------
 -                                                                             -
 -                                DBCSR STATISTICS                             -
 -                                                                             -
 -------------------------------------------------------------------------------
 COUNTER                                    TOTAL       BLAS       SMM       ACC
 flops     8 x     8 x     8               131072       0.0%    100.0%      0.0%
 flops     8 x     8 x    51               483072       0.0%    100.0%      0.0%
 flops    51 x     8 x     8               600576       0.0%    100.0%      0.0%
 flops    51 x    51 x     8               790704       0.0%    100.0%      0.0%
 flops    51 x    52 x     8               806208       0.0%    100.0%      0.0%
 flops    52 x    51 x     8               806208       0.0%    100.0%      0.0%
 flops     8 x     8 x    52               985088       0.0%    100.0%      0.0%
 flops    52 x     8 x     8              1224704       0.0%    100.0%      0.0%
 flops    52 x    52 x     8              2466048       0.0%    100.0%      0.0%
 flops    51 x     8 x    51              3745440       0.0%    100.0%      0.0%
 flops    52 x     8 x    51              7637760       0.0%    100.0%      0.0%
 flops    51 x     8 x    52              7637760       0.0%    100.0%      0.0%
 flops    52 x     8 x    52             15575040       0.0%    100.0%      0.0%
 flops inhomo. stacks                           0       0.0%      0.0%      0.0%
 flops total                        42.889680E+06       0.0%    100.0%      0.0%
 flops max/rank                     14.640000E+06       0.0%    100.0%      0.0%
 matmuls inhomo. stacks                         0       0.0%      0.0%      0.0%
 matmuls total                               1550       0.0%    100.0%      0.0%
 number of processed stacks                  1550       0.0%    100.0%      0.0%
 average stack size                                     0.0       1.0       0.0
 marketing flops                    45.363792E+06
 -------------------------------------------------------------------------------
 # multiplications                            405
 max memory usage/rank             549.597184E+06
 # max total images/rank                        1
 # max 3D layers                                1
 # MPI messages exchanged                   38880
 MPI messages size (bytes):
  total size                        63.380208E+06
  min size                           0.000000E+00
  max size                          21.632000E+03
  average size                       1.630149E+03
 MPI breakdown and total messages size (bytes):
             size <=      128               32094                        0
       128 < size <=     8192                4356                 11486208
      8192 < size <=    32768                2430                 51894000
     32768 < size <=   131072                   0                        0
    131072 < size <=  4194304                   0                        0
   4194304 < size <= 16777216                   0                        0
  16777216 < size                               0                        0
 -------------------------------------------------------------------------------
 -                                                                             -
 -                      DBCSR MESSAGE PASSING PERFORMANCE                      -
 -                                                                             -
 -------------------------------------------------------------------------------
 ROUTINE             CALLS      AVE VOLUME [Bytes]
 MP_Bcast               14                     12.
 MP_Allreduce         2179                      8.
 MP_Alltoall          1634                   1167.
 MP_ISend             6472                    994.
 MP_IRecv             6472                    891.
 -------------------------------------------------------------------------------

 -------------------------------------------------------------------------------
 -                                                                             -
 -                                GRID STATISTICS                              -
 -                                                                             -
 -------------------------------------------------------------------------------
 LP    KERNEL    OPERATION                                     COUNT     PERCENT
 0     general   collocate                                         3       0.01%
 0     ortho     integrate                                       648       2.61%
 0     ortho     collocate                                       684       2.75%
 1     ortho     integrate                                      1728       6.96%
 1     ortho     collocate                                      1824       7.35%
 2     ortho     integrate                                      3762      15.15%
 2     ortho     collocate                                      3971      15.99%
 3     ortho     integrate                                      3672      14.79%
 3     ortho     collocate                                      3876      15.61%
 4     ortho     integrate                                      1674       6.74%
 4     ortho     collocate                                      1767       7.12%
 5     ortho     integrate                                       432       1.74%
 5     ortho     collocate                                       456       1.84%
 6     ortho     integrate                                       162       0.65%
 6     ortho     collocate                                       171       0.69%
 -------------------------------------------------------------------------------

 MEMORY| Estimated peak process memory [MiB]                                 532

 -------------------------------------------------------------------------------
 -                                                                             -
 -                         MESSAGE PASSING PERFORMANCE                         -
 -                                                                             -
 -------------------------------------------------------------------------------

 ROUTINE             CALLS      AVE VOLUME [Bytes]
 MP_Group                5
 MP_Bcast              253                 647285.
 MP_Allreduce          737                   1896.
 MP_Sync                97
 MP_Alltoall           313               15761606.
 MP_ISendRecv         2805                 794423.
 MP_Wait              2805
 MP_Recv                 3                   2480.
 -------------------------------------------------------------------------------


 -------------------------------------------------------------------------------
 -                                                                             -
 -                           R E F E R E N C E S                               -
 -                                                                             -
 -------------------------------------------------------------------------------
 
 CP2K version 8.0 (Development Version), the CP2K developers group (2020).
 CP2K is freely available from https://www.cp2k.org/ .

 Kuehne,Thomas D.; Iannuzzi,Marcella; Del Ben,Mauro;
 Rybkin,Vladimir V.; Seewald,Patrick; Stein,Frederick; Laino,Teodoro;
 Khaliullin,Rustam Z.; Schuett,Ole; Schiffmann,Florian; Golze,Dorothea;
 Wilhelm,Jan; Chulkov,Sergey; Bani-Hashemian,Mohammad Hossein;
 Weber,Valery; Borstnik,Urban; Taillefumier,Mathieu;
 Jakobovits,Alice Shoshana; Lazzaro,Alfio; Pabst,Hans; Mueller,Tiziano;
 Schade,Robert; Guidon,Manuel; Andermatt,Samuel; Holmberg,Nico;
 Schenter,Gregory K.; Hehn,Anna; Bussy,Augustin; Belleflamme,Fabian;
 Tabacchi,Gloria; Gloess,Andreas; Lass,Michael; Bethune,Iain;
 Mundy,Christopher J.; Plessl,Christian; Watkins,Matt;
 VandeVondele,Joost; Krack,Matthias; Hutter,Juerg. 
 The Journal of Chemical Physics, 152 (19), (2020). 
 CP2K: An electronic structure and molecular dynamics software package -
 Quickstep: Efficient and accurate electronic structure calculations.
 https://doi.org/10.1063/5.0007045

 Schuett, Ole; Messmer, Peter; Hutter, Juerg; VandeVondele, Joost. 
 Electronic Structure Calculations on Graphics Processing Units, John
 Wiley & Sons, Ltd, 173-190 (2016). 
 GPU-Accelerated Sparse Matrix-Matrix Multiplication for
 Linear Scaling Density Functional Theory.
 https://doi.org/10.1002/9781118670712.ch8

 Borstnik, U; VandeVondele, J; Weber, V; Hutter, J. 
 PARALLEL COMPUTING, 40 (5-6), 47-58 (2014). 
 Sparse matrix multiplication: The distributed block-compressed sparse
 row library.
 https://doi.org/10.1016/j.parco.2014.03.012

 Hutter, J; Iannuzzi, M; Schiffmann, F; VandeVondele, J. 
 WIREs Comput Mol Sci., 4 (1), 15-25 (2014). 
 CP2K: atomistic simulations of condensed matter systems.
 https://doi.org/10.1002/wcms.1159

 Marek, A; Blum, V; Johanni, R; Havu, V; Lang, B; Auckenthaler, T;
 Heinecke, A; Bungartz, H; Lederer, H. 
 Journal of Physics: Condensed Matter, 26 (21), (2014). 
 The ELPA library: scalable parallel eigenvalue solutions for
 electronic structure
 theory and computational science.
 https://doi.org/10.1088/0953-8984/26/21/213201

 Guidon, M; Hutter, J; VandeVondele, J. 
 JOURNAL OF CHEMICAL THEORY AND COMPUTATION, 5 (11), 3010-3021 (2009). 
 Robust Periodic Hartree-Fock Exchange for Large-Scale Simulations Using
 Gaussian Basis Sets.
 https://doi.org/10.1021/ct900494g

 Guidon, M; Schiffmann, F; Hutter, J; VandeVondele, J. 
 JOURNAL OF CHEMICAL PHYSICS, 128 (21), 214104 (2008). 
 Ab initio molecular dynamics using hybrid density functionals.
 https://doi.org/10.1063/1.2931945

 Krack, M. 
 THEORETICAL CHEMISTRY ACCOUNTS, 114 (1-3), 145-152 (2005). 
 Pseudopotentials for H to Kr optimized for gradient-corrected
 exchange-correlation functionals.
 https://doi.org/10.1007/s00214-005-0655-y

 VandeVondele, J; Krack, M; Mohamed, F; Parrinello, M; Chassaing, T;
 Hutter, J. COMPUTER PHYSICS COMMUNICATIONS, 167 (2), 103-128 (2005). 
 QUICKSTEP: Fast and accurate density functional calculations using a
 mixed Gaussian and plane waves approach.
 https://doi.org/10.1016/j.cpc.2004.12.014

 Frigo, M; Johnson, SG. 
 PROCEEDINGS OF THE IEEE, 93 (2), 216-231 (2005). 
 The design and implementation of FFTW3.
 https://doi.org/10.1109/JPROC.2004.840301

 VandeVondele, J; Hutter, J. 
 JOURNAL OF CHEMICAL PHYSICS, 118 (10), 4365-4369 (2003). 
 An efficient orbital transformation method for electronic structure
 calculations.
 https://doi.org/10.1063/1.1543154

 Martyna, GJ; Tuckerman, ME. 
 JOURNAL OF CHEMICAL PHYSICS, 110 (6), 2810-2821 (1999). 
 A reciprocal space based method for treating long range interactions in
 ab initio and force-field-based calculations in clusters.
 https://doi.org/10.1063/1.477923

 Hartwigsen, C; Goedecker, S; Hutter, J. 
 PHYSICAL REVIEW B, 58 (7), 3641-3662 (1998). 
 Relativistic separable dual-space Gaussian pseudopotentials from H to Rn.
 https://doi.org/10.1103/PhysRevB.58.3641

 Lippert, G; Hutter, J; Parrinello, M. 
 MOLECULAR PHYSICS, 92 (3), 477-487 (1997). 
 A hybrid Gaussian and plane wave density functional scheme.
 https://doi.org/10.1080/002689797170220

 Perdew, JP; Burke, K; Ernzerhof, M. 
 PHYSICAL REVIEW LETTERS, 77 (18), 3865-3868 (1996). 
 Generalized gradient approximation made simple.
 https://doi.org/10.1103/PhysRevLett.77.3865

 Goedecker, S; Teter, M; Hutter, J. 
 PHYSICAL REVIEW B, 54 (3), 1703-1710 (1996). 
 Separable dual-space Gaussian pseudopotentials.
 https://doi.org/10.1103/PhysRevB.54.1703


 -------------------------------------------------------------------------------
 -                                                                             -
 -                                T I M I N G                                  -
 -                                                                             -
 -------------------------------------------------------------------------------
 SUBROUTINE                       CALLS  ASD         SELF TIME        TOTAL TIME
                                MAXIMUM       AVERAGE  MAXIMUM  AVERAGE  MAXIMUM
 CP2K                                 1  1.0    0.008    0.011   25.947   25.948
 qs_energies                          1  2.0    0.000    0.000   25.508   25.509
 scf_env_do_scf                       1  3.0    0.000    0.000   25.199   25.199
 qs_ks_update_qs_env                 20  5.0    0.000    0.000   21.603   21.604
 rebuild_ks_matrix                   18  6.0    0.000    0.000   21.602   21.603
 qs_ks_build_kohn_sham_matrix        18  7.0    0.003    0.004   21.602   21.603
 scf_env_do_scf_inner_loop           18  4.0    0.001    0.002   14.062   14.062
 init_scf_loop                        2  4.0    0.000    0.000   11.136   11.136
 hfx_ks_matrix                       18  8.0    0.001    0.001   10.774   10.778
 integrate_four_center               18  9.0    0.132    0.137   10.772   10.776
 pw_transfer                        349  9.6    0.034    0.038    7.294    8.673
 fft_wrap_pw1pw2                    313 10.7    0.004    0.005    7.218    8.595
 fft_wrap_pw1pw2_300                201 11.8    0.325    0.341    6.751    8.124
 integrate_four_center_main          18 10.0    0.003    0.004    2.095    7.666
 integrate_four_center_bin         2286 11.0    2.092    7.664    2.092    7.664
 mp_sync                             97 10.7    6.214    7.592    6.214    7.592
 qs_vxc_create                       18  8.0    0.000    0.000    7.323    7.334
 xc_vxc_pw_create                    18  9.0    0.063    0.068    7.323    7.334
 fft3d_ps                           313 12.7    3.110    3.218    5.610    6.985
 xc_rho_set_and_dset_create          18 10.0    0.024    0.026    4.119    4.997
 qs_rho_update_rho                   19  5.0    0.000    0.000    3.476    3.476
 calculate_rho_elec                  19  6.0    0.031    0.033    3.476    3.476
 mp_alltoall_z22v                   313 14.7    1.878    3.321    1.878    3.321
 xc_functional_eval                  18 11.0    0.000    0.000    2.290    3.164
 pbe_lda_eval                        18 12.0    2.289    3.164    2.289    3.164
 yz_to_x                            150 13.1    0.287    0.333    1.653    3.049
 rs_pw_transfer                     149  9.4    0.003    0.003    2.647    2.755
 sum_up_and_integrate                18  8.0    0.009    0.011    2.337    2.481
 integrate_v_rspace_low              18  9.0    0.070    0.214    2.327    2.472
 density_rs2pw                       19  7.0    0.001    0.001    2.338    2.448
 potential_pw2rs                     18 10.0    0.002    0.002    2.256    2.260
 mp_waitall_1                     22245 13.9    1.586    1.850    1.586    1.850
 calc_screening_functions             1 10.0    1.301    1.307    1.645    1.657
 rs_pw_transfer_PW2RS_300            18 12.0    0.302    0.321    1.174    1.214
 rs_pw_transfer_RS2PW_300            20  8.9    0.427    0.445    0.905    1.009
 x_to_yz                            163 14.2    0.325    0.368    0.836    0.881
 grid_collocate_task_list            19  7.0    0.518    0.684    0.518    0.684
 pw_scatter_p                       163 13.2    0.654    0.670    0.654    0.670
 calc_pair_dist_radii                 1 10.0    0.485    0.488    0.631    0.635
 pw_gather_p                        150 12.1    0.601    0.622    0.601    0.622
 rs_grid_zero                        77  7.0    0.586    0.613    0.586    0.613
 mp_isendrecv_dv                   2775 11.4    0.224    0.569    0.224    0.569
 -------------------------------------------------------------------------------

 The number of warnings for this run is : 0
 
 -------------------------------------------------------------------------------
  **** **** ******  **  PROGRAM ENDED AT                 2020-12-04 21:25:43.378
 ***** ** ***  *** **   PROGRAM RAN ON                                   tcopt10
 **    ****   ******    PROGRAM RAN BY                                    hutter
 ***** **    ** ** **   PROGRAM PROCESS ID                                 59430
  **** **  *******  **  PROGRAM STOPPED IN /data/hutter/GITHUB/BASIS/MOLOPT/PBE0
                                           /Ca
