 DBCSR| CPU Multiplication driver                                           XSMM
 DBCSR| Multrec recursion limit                                              512
 DBCSR| Multiplication stack size                                           1000
 DBCSR| Maximum elements for images                                    UNLIMITED
 DBCSR| Multiplicative factor virtual images                                   1
 DBCSR| Use multiplication densification                                       T
 DBCSR| Multiplication size stacks                                             3
 DBCSR| Use memory pool for CPU allocation                                     F
 DBCSR| Number of 3D layers                                               SINGLE
 DBCSR| Use MPI memory allocation                                              F
 DBCSR| Use RMA algorithm                                                      F
 DBCSR| Use Communication thread                                               T
 DBCSR| Communication thread load                                             87
 DBCSR| Split modifier for TAS multiplication algorithm                  1.0E+00


  **** **** ******  **  PROGRAM STARTED AT               2020-12-04 21:25:43.661
 ***** ** ***  *** **   PROGRAM STARTED ON                               tcopt10
 **    ****   ******    PROGRAM STARTED BY                                hutter
 ***** **    ** ** **   PROGRAM PROCESS ID                                 59529
  **** **  *******  **  PROGRAM STARTED IN /data/hutter/GITHUB/BASIS/MOLOPT/PBE0
                                           /Ca

 CP2K| version string:                    CP2K version 8.0 (Development Version)
 CP2K| source code revision number:                                  git:afc71fa
 CP2K| cp2kflags: omp libint fftw3 libxc elpa parallel mpi3 scalapack xsmm spgli
 CP2K|            b sirius
 CP2K| is freely available from                            https://www.cp2k.org/
 CP2K| Program compiled at                          Tue Nov 17 10:27:14 CET 2020
 CP2K| Program compiled on                                               tcopt10
 CP2K| Program compiled for                                                local
 CP2K| Data directory path                 /data/hutter/GITHUB/CURRENT/cp2k/data
 CP2K| Input file name                                              CaH2-ref.inp

 GLOBAL| Force Environment number                                              1
 GLOBAL| Basis set file name                                  ../PBE0_UCSEGBASIS
 GLOBAL| Potential file name                                        ../POTENTIAL
 GLOBAL| MM Potential file name                                     MM_POTENTIAL
 GLOBAL| Coordinate file name                                      __STD_INPUT__
 GLOBAL| Method name                                                        CP2K
 GLOBAL| Project name                                                  refCaH2q2
 GLOBAL| Preferred FFT library                                             FFTW3
 GLOBAL| Preferred diagonalization lib.                                     ELPA
 GLOBAL| Run type                                                         ENERGY
 GLOBAL| All-to-all communication in single precision                          F
 GLOBAL| FFTs using library dependent lengths                                  F
 GLOBAL| Global print level                                                  LOW
 GLOBAL| MPI I/O enabled                                                       T
 GLOBAL| Total number of message passing processes                            16
 GLOBAL| Number of threads for this process                                    1
 GLOBAL| This output is from process                                           0
 GLOBAL| CPU model name                          AMD EPYC 7401 24-Core Processor
 GLOBAL| CPUID                                                              1002

 MEMORY| system memory details [Kb]
 MEMORY|                        rank 0           min           max       average
 MEMORY| MemTotal            263987256     263987256     263987256     263987256
 MEMORY| MemFree             137220860     137220860     137220860     137220860
 MEMORY| Buffers                    32            32            32            32
 MEMORY| Cached               16349228      16349228      16349228      16349228
 MEMORY| Slab                  1371876       1371876       1371876       1371876
 MEMORY| SReclaimable           706088        706088        706088        706088
 MEMORY| MemLikelyFree       154276208     154276208     154276208     154276208


 GENERATE|  Preliminary Number of Bonds generated:                             0
 GENERATE|  Achieved consistency in connectivity generation.

 *******************************************************************************
 *******************************************************************************
 **                                                                           **
 **     #####                         ##              ##                      **
 **    ##   ##            ##          ##              ##                      **
 **   ##     ##                       ##            ######                    **
 **   ##     ##  ##   ##  ##   #####  ##  ##   ####   ##    #####    #####    **
 **   ##     ##  ##   ##  ##  ##      ## ##   ##      ##   ##   ##  ##   ##   **
 **   ##  ## ##  ##   ##  ##  ##      ####     ###    ##   ######   ######    **
 **    ##  ###   ##   ##  ##  ##      ## ##      ##   ##   ##       ##        **
 **     #######   #####   ##   #####  ##  ##  ####    ##    #####   ##        **
 **           ##                                                    ##        **
 **                                                                           **
 **                                                ... make the atoms dance   **
 **                                                                           **
 **            Copyright (C) by CP2K developers group (2000 - 2020)           **
 **                      J. Chem. Phys. 152, 194103 (2020)                    **
 **                                                                           **
 *******************************************************************************


 TOTAL NUMBERS AND MAXIMUM NUMBERS

  Total number of            - Atomic kinds:                                   2
                             - Atoms:                                          3
                             - Shell sets:                                    26
                             - Shells:                                        55
                             - Primitive Cartesian functions:                 33
                             - Cartesian basis functions:                    231
                             - Spherical basis functions:                    187

  Maximum angular momentum of- Orbital basis functions:                        3
                             - Local part of the GTH pseudopotential:          2
                             - Non-local part of the GTH pseudopotential:      4


 SCF PARAMETERS         Density guess:                                    ATOMIC
                        --------------------------------------------------------
                        max_scf:                                              10
                        max_scf_history:                                       0
                        max_diis:                                              4
                        --------------------------------------------------------
                        eps_scf:                                        1.00E-07
                        eps_scf_history:                                0.00E+00
                        eps_diis:                                       1.00E-01
                        eps_eigval:                                     1.00E-05
                        --------------------------------------------------------
                        level_shift [a.u.]:                                 0.00
                        --------------------------------------------------------
                        Outer loop SCF in use 
                        No variables optimised in outer loop
                        eps_scf                                         1.00E-07
                        max_scf                                               10
                        No outer loop optimization
                        step_size                                       5.00E-01

 Number of electrons:                                                          4
 Number of occupied orbitals:                                                  2
 Number of molecular orbitals:                                                 2

 Number of orbital functions:                                                187
 Number of independent orbital functions:                                    187

 Extrapolation method: initial_guess


 SCF WAVEFUNCTION OPTIMIZATION

  ----------------------------------- OT ---------------------------------------
  Minimizer      : DIIS                : direct inversion
                                         in the iterative subspace
                                         using   7 DIIS vectors
                                         safer DIIS on
  Preconditioner : FULL_ALL            : diagonalization, state selective
  Precond_solver : DEFAULT
  stepsize       :    0.15000000                  energy_gap     :    0.08000000
  eps_taylor     :   0.10000E-15                  max_taylor     :             4
  ----------------------------------- OT ---------------------------------------

  Step     Update method      Time    Convergence         Total energy    Change
  ------------------------------------------------------------------------------
     1 OT DIIS     0.15E+00   11.9     0.08769829        -1.6340102378 -1.63E+00
     2 OT DIIS     0.15E+00    1.1     0.07395214        -1.7070655957 -7.31E-02
     3 OT DIIS     0.15E+00    1.0     0.02071550        -1.7816867416 -7.46E-02
     4 OT DIIS     0.15E+00    1.0     0.00529494        -1.7916142123 -9.93E-03
     5 OT DIIS     0.15E+00    1.0     0.00206844        -1.7927129715 -1.10E-03
     6 OT DIIS     0.15E+00    1.0     0.00072746        -1.7929019017 -1.89E-04
     7 OT DIIS     0.15E+00    1.0     0.00021851        -1.7929173515 -1.54E-05
     8 OT DIIS     0.15E+00    1.0     0.00008817        -1.7929189713 -1.62E-06
     9 OT DIIS     0.15E+00    1.1     0.00001479        -1.7929191299 -1.59E-07
    10 OT DIIS     0.15E+00    1.0     0.00000423        -1.7929191400 -1.01E-08

  Leaving inner SCF loop after reaching    10 steps.


  Electronic density on regular grids:         -4.0000000000        0.0000000000
  Core density on regular grids:                4.0000000000        0.0000000000
  Total charge density on r-space grids:        0.0000000000
  Total charge density g-space grids:           0.0000000000

  Overlap energy of the core charge distribution:               0.00000004521997
  Self energy of the core charge distribution:                 -4.39896317103228
  Core Hamiltonian energy:                                      1.23891701935350
  Hartree energy:                                               2.38729145212346
  Exchange-correlation energy:                                 -0.78324644685240
  Hartree-Fock Exchange energy:                                -0.23691803878779

  Total energy:                                                -1.79291913997554

  outer SCF iter =    1 RMS gradient =   0.42E-05 energy =         -1.7929191400

  ----------------------------------- OT ---------------------------------------
  Minimizer      : DIIS                : direct inversion
                                         in the iterative subspace
                                         using   7 DIIS vectors
                                         safer DIIS on
  Preconditioner : FULL_ALL            : diagonalization, state selective
  Precond_solver : DEFAULT
  stepsize       :    0.15000000                  energy_gap     :    0.08000000
  eps_taylor     :   0.10000E-15                  max_taylor     :             4
  ----------------------------------- OT ---------------------------------------

  Step     Update method      Time    Convergence         Total energy    Change
  ------------------------------------------------------------------------------
     1 OT DIIS     0.15E+00    2.1     0.00000083        -1.7929191410 -9.80E-10
     2 OT DIIS     0.15E+00    1.0     0.00000039        -1.7929191410 -2.85E-11
     3 OT DIIS     0.15E+00    1.0     0.00000004        -1.7929191410 -8.03E-12

  *** SCF run converged in     3 steps ***


  Electronic density on regular grids:         -4.0000000000        0.0000000000
  Core density on regular grids:                4.0000000000        0.0000000000
  Total charge density on r-space grids:        0.0000000000
  Total charge density g-space grids:           0.0000000000

  Overlap energy of the core charge distribution:               0.00000004521997
  Self energy of the core charge distribution:                 -4.39896317103228
  Core Hamiltonian energy:                                      1.23891908901136
  Hartree energy:                                               2.38728930128556
  Exchange-correlation energy:                                 -0.78324650243500
  Hartree-Fock Exchange energy:                                -0.23691790304191

  Total energy:                                                -1.79291914099229

  outer SCF iter =    2 RMS gradient =   0.36E-07 energy =         -1.7929191410
  outer SCF loop converged in   2 iterations or   13 steps


 ENERGY| Total FORCE_EVAL ( QS ) energy [a.u.]:               -1.792919140992290

 -------------------------------------------------------------------------------
 -                                                                             -
 -                                DBCSR STATISTICS                             -
 -                                                                             -
 -------------------------------------------------------------------------------
 COUNTER                                    TOTAL       BLAS       SMM       ACC
 flops     2 x     2 x     2                 1392       0.0%    100.0%      0.0%
 flops     2 x     2 x    51                22032       0.0%    100.0%      0.0%
 flops    51 x     2 x     2                27336       0.0%    100.0%      0.0%
 flops     2 x     2 x    68                58752       0.0%    100.0%      0.0%
 flops    68 x     2 x     2                72896       0.0%    100.0%      0.0%
 flops    51 x    51 x     2               145656       0.0%    100.0%      0.0%
 flops    51 x    68 x     2               194208       0.0%    100.0%      0.0%
 flops    68 x    51 x     2               194208       0.0%    100.0%      0.0%
 flops    51 x     2 x    51               728280       0.0%    100.0%      0.0%
 flops    68 x    68 x     2               776832       0.0%    100.0%      0.0%
 flops    68 x     2 x    51              1942080       0.0%    100.0%      0.0%
 flops    51 x     2 x    68              1942080       0.0%    100.0%      0.0%
 flops    68 x     2 x    68              5178880       0.0%    100.0%      0.0%
 flops inhomo. stacks                           0       0.0%      0.0%      0.0%
 flops total                        11.284632E+06       0.0%    100.0%      0.0%
 flops max/rank                      3.938048E+06       0.0%    100.0%      0.0%
 matmuls inhomo. stacks                         0       0.0%      0.0%      0.0%
 matmuls total                               1164       0.0%    100.0%      0.0%
 number of processed stacks                  1164       0.0%    100.0%      0.0%
 average stack size                                     0.0       1.0       0.0
 marketing flops                    11.934984E+06
 -------------------------------------------------------------------------------
 # multiplications                            294
 max memory usage/rank             653.918208E+06
 # max total images/rank                        1
 # max 3D layers                                1
 # MPI messages exchanged                   28224
 MPI messages size (bytes):
  total size                        61.221504E+06
  min size                           0.000000E+00
  max size                          36.992000E+03
  average size                       2.169129E+03
 MPI breakdown and total messages size (bytes):
             size <=      128               23877                    23136
       128 < size <=     8192                2457                  2450448
      8192 < size <=    32768                1050                 27674640
     32768 < size <=   131072                 840                 31073280
    131072 < size <=  4194304                   0                        0
   4194304 < size <= 16777216                   0                        0
  16777216 < size                               0                        0
 -------------------------------------------------------------------------------
 -                                                                             -
 -                      DBCSR MESSAGE PASSING PERFORMANCE                      -
 -                                                                             -
 -------------------------------------------------------------------------------
 ROUTINE             CALLS      AVE VOLUME [Bytes]
 MP_Bcast               14                     12.
 MP_Allreduce         1580                      8.
 MP_Alltoall          1342                   1405.
 MP_ISend             4696                   1263.
 MP_IRecv             4696                   1090.
 -------------------------------------------------------------------------------

 -------------------------------------------------------------------------------
 -                                                                             -
 -                                GRID STATISTICS                              -
 -                                                                             -
 -------------------------------------------------------------------------------
 LP    KERNEL    OPERATION                                     COUNT     PERCENT
 0     general   collocate                                         3       0.02%
 0     ortho     integrate                                      3952      20.82%
 0     ortho     collocate                                      4256      22.42%
 3     ortho     integrate                                      4134      21.78%
 3     ortho     collocate                                      4452      23.45%
 6     ortho     integrate                                      1053       5.55%
 6     ortho     collocate                                      1134       5.97%
 -------------------------------------------------------------------------------

 MEMORY| Estimated peak process memory [MiB]                                 646

 -------------------------------------------------------------------------------
 -                                                                             -
 -                         MESSAGE PASSING PERFORMANCE                         -
 -                                                                             -
 -------------------------------------------------------------------------------

 ROUTINE             CALLS      AVE VOLUME [Bytes]
 MP_Group                5
 MP_Bcast              137                1195005.
 MP_Allreduce          454                   3044.
 MP_Sync                86
 MP_Alltoall           228               15800818.
 MP_ISendRecv         2055                 800301.
 MP_Wait              2055
 MP_comm_split          14
 MP_Recv                 1                   1496.
 -------------------------------------------------------------------------------


 -------------------------------------------------------------------------------
 -                                                                             -
 -                           R E F E R E N C E S                               -
 -                                                                             -
 -------------------------------------------------------------------------------
 
 CP2K version 8.0 (Development Version), the CP2K developers group (2020).
 CP2K is freely available from https://www.cp2k.org/ .

 Kuehne,Thomas D.; Iannuzzi,Marcella; Del Ben,Mauro;
 Rybkin,Vladimir V.; Seewald,Patrick; Stein,Frederick; Laino,Teodoro;
 Khaliullin,Rustam Z.; Schuett,Ole; Schiffmann,Florian; Golze,Dorothea;
 Wilhelm,Jan; Chulkov,Sergey; Bani-Hashemian,Mohammad Hossein;
 Weber,Valery; Borstnik,Urban; Taillefumier,Mathieu;
 Jakobovits,Alice Shoshana; Lazzaro,Alfio; Pabst,Hans; Mueller,Tiziano;
 Schade,Robert; Guidon,Manuel; Andermatt,Samuel; Holmberg,Nico;
 Schenter,Gregory K.; Hehn,Anna; Bussy,Augustin; Belleflamme,Fabian;
 Tabacchi,Gloria; Gloess,Andreas; Lass,Michael; Bethune,Iain;
 Mundy,Christopher J.; Plessl,Christian; Watkins,Matt;
 VandeVondele,Joost; Krack,Matthias; Hutter,Juerg. 
 The Journal of Chemical Physics, 152 (19), (2020). 
 CP2K: An electronic structure and molecular dynamics software package -
 Quickstep: Efficient and accurate electronic structure calculations.
 https://doi.org/10.1063/5.0007045

 Schuett, Ole; Messmer, Peter; Hutter, Juerg; VandeVondele, Joost. 
 Electronic Structure Calculations on Graphics Processing Units, John
 Wiley & Sons, Ltd, 173-190 (2016). 
 GPU-Accelerated Sparse Matrix-Matrix Multiplication for
 Linear Scaling Density Functional Theory.
 https://doi.org/10.1002/9781118670712.ch8

 Borstnik, U; VandeVondele, J; Weber, V; Hutter, J. 
 PARALLEL COMPUTING, 40 (5-6), 47-58 (2014). 
 Sparse matrix multiplication: The distributed block-compressed sparse
 row library.
 https://doi.org/10.1016/j.parco.2014.03.012

 Hutter, J; Iannuzzi, M; Schiffmann, F; VandeVondele, J. 
 WIREs Comput Mol Sci., 4 (1), 15-25 (2014). 
 CP2K: atomistic simulations of condensed matter systems.
 https://doi.org/10.1002/wcms.1159

 Marek, A; Blum, V; Johanni, R; Havu, V; Lang, B; Auckenthaler, T;
 Heinecke, A; Bungartz, H; Lederer, H. 
 Journal of Physics: Condensed Matter, 26 (21), (2014). 
 The ELPA library: scalable parallel eigenvalue solutions for
 electronic structure
 theory and computational science.
 https://doi.org/10.1088/0953-8984/26/21/213201

 Guidon, M; Hutter, J; VandeVondele, J. 
 JOURNAL OF CHEMICAL THEORY AND COMPUTATION, 5 (11), 3010-3021 (2009). 
 Robust Periodic Hartree-Fock Exchange for Large-Scale Simulations Using
 Gaussian Basis Sets.
 https://doi.org/10.1021/ct900494g

 Guidon, M; Schiffmann, F; Hutter, J; VandeVondele, J. 
 JOURNAL OF CHEMICAL PHYSICS, 128 (21), 214104 (2008). 
 Ab initio molecular dynamics using hybrid density functionals.
 https://doi.org/10.1063/1.2931945

 Krack, M. 
 THEORETICAL CHEMISTRY ACCOUNTS, 114 (1-3), 145-152 (2005). 
 Pseudopotentials for H to Kr optimized for gradient-corrected
 exchange-correlation functionals.
 https://doi.org/10.1007/s00214-005-0655-y

 VandeVondele, J; Krack, M; Mohamed, F; Parrinello, M; Chassaing, T;
 Hutter, J. COMPUTER PHYSICS COMMUNICATIONS, 167 (2), 103-128 (2005). 
 QUICKSTEP: Fast and accurate density functional calculations using a
 mixed Gaussian and plane waves approach.
 https://doi.org/10.1016/j.cpc.2004.12.014

 Frigo, M; Johnson, SG. 
 PROCEEDINGS OF THE IEEE, 93 (2), 216-231 (2005). 
 The design and implementation of FFTW3.
 https://doi.org/10.1109/JPROC.2004.840301

 VandeVondele, J; Hutter, J. 
 JOURNAL OF CHEMICAL PHYSICS, 118 (10), 4365-4369 (2003). 
 An efficient orbital transformation method for electronic structure
 calculations.
 https://doi.org/10.1063/1.1543154

 Martyna, GJ; Tuckerman, ME. 
 JOURNAL OF CHEMICAL PHYSICS, 110 (6), 2810-2821 (1999). 
 A reciprocal space based method for treating long range interactions in
 ab initio and force-field-based calculations in clusters.
 https://doi.org/10.1063/1.477923

 Hartwigsen, C; Goedecker, S; Hutter, J. 
 PHYSICAL REVIEW B, 58 (7), 3641-3662 (1998). 
 Relativistic separable dual-space Gaussian pseudopotentials from H to Rn.
 https://doi.org/10.1103/PhysRevB.58.3641

 Lippert, G; Hutter, J; Parrinello, M. 
 MOLECULAR PHYSICS, 92 (3), 477-487 (1997). 
 A hybrid Gaussian and plane wave density functional scheme.
 https://doi.org/10.1080/002689797170220

 Perdew, JP; Burke, K; Ernzerhof, M. 
 PHYSICAL REVIEW LETTERS, 77 (18), 3865-3868 (1996). 
 Generalized gradient approximation made simple.
 https://doi.org/10.1103/PhysRevLett.77.3865

 Goedecker, S; Teter, M; Hutter, J. 
 PHYSICAL REVIEW B, 54 (3), 1703-1710 (1996). 
 Separable dual-space Gaussian pseudopotentials.
 https://doi.org/10.1103/PhysRevB.54.1703


 -------------------------------------------------------------------------------
 -                                                                             -
 -                                T I M I N G                                  -
 -                                                                             -
 -------------------------------------------------------------------------------
 SUBROUTINE                       CALLS  ASD         SELF TIME        TOTAL TIME
                                MAXIMUM       AVERAGE  MAXIMUM  AVERAGE  MAXIMUM
 CP2K                                 1  1.0    0.011    0.016   25.393   25.394
 qs_energies                          1  2.0    0.000    0.000   24.944   24.944
 scf_env_do_scf                       1  3.0    0.000    0.000   24.620   24.621
 qs_ks_update_qs_env                 15  5.0    0.000    0.000   21.877   21.878
 rebuild_ks_matrix                   13  6.0    0.000    0.000   21.876   21.877
 qs_ks_build_kohn_sham_matrix        13  7.0    0.002    0.003   21.875   21.877
 hfx_ks_matrix                       13  8.0    0.000    0.001   13.526   13.528
 integrate_four_center               13  9.0    0.097    0.100   13.525   13.527
 init_scf_loop                        2  4.0    0.000    0.000   12.759   12.759
 scf_env_do_scf_inner_loop           13  4.0    0.000    0.001   11.861   11.861
 integrate_four_center_main          13 10.0    0.002    0.003    3.668    6.925
 integrate_four_center_bin         1651 11.0    3.666    6.924    3.666    6.924
 mp_sync                             86 10.8    5.382    6.802    5.382    6.802
 pw_transfer                        254  9.6    0.024    0.027    5.242    5.971
 fft_wrap_pw1pw2                    228 10.7    0.003    0.004    5.188    5.914
 qs_vxc_create                       13  8.0    0.000    0.000    5.627    5.639
 xc_vxc_pw_create                    13  9.0    0.046    0.050    5.626    5.638
 fft_wrap_pw1pw2_300                146 11.8    0.244    0.253    4.779    5.500
 fft3d_ps                           228 12.7    2.293    2.386    3.968    4.698
 xc_rho_set_and_dset_create          13 10.0    0.017    0.018    3.531    3.907
 calc_screening_functions             1 10.0    3.332    3.344    3.599    3.630
 qs_rho_update_rho                   14  5.0    0.000    0.000    2.700    2.701
 calculate_rho_elec                  14  6.0    0.022    0.024    2.700    2.701
 xc_functional_eval                  13 11.0    0.000    0.000    2.181    2.557
 pbe_lda_eval                        13 12.0    2.181    2.557    2.181    2.557
 rs_pw_transfer                     109  9.4    0.002    0.002    2.016    2.138
 mp_alltoall_z22v                   228 14.7    1.163    2.022    1.163    2.022
 density_rs2pw                       14  7.0    0.001    0.001    1.836    1.963
 sum_up_and_integrate                13  8.0    0.008    0.009    1.737    1.886
 integrate_v_rspace_low              13  9.0    0.068    0.218    1.729    1.877
 yz_to_x                            110 13.1    0.241    0.305    1.003    1.765
 potential_pw2rs                     13 10.0    0.001    0.001    1.660    1.663
 mp_waitall_1                     16167 13.8    1.220    1.497    1.220    1.497
 rs_pw_transfer_PW2RS_300            13 12.0    0.222    0.241    0.842    0.877
 rs_pw_transfer_RS2PW_300            15  8.9    0.334    0.382    0.749    0.876
 calc_pair_dist_radii                 1 10.0    0.575    0.577    0.709    0.712
 x_to_yz                            118 14.2    0.263    0.331    0.664    0.709
 grid_collocate_task_list            14  7.0    0.407    0.585    0.407    0.585
 pw_scatter_p                       118 13.2    0.492    0.520    0.492    0.520
 -------------------------------------------------------------------------------

 The number of warnings for this run is : 0
 
 -------------------------------------------------------------------------------
  **** **** ******  **  PROGRAM ENDED AT                 2020-12-04 21:26:09.709
 ***** ** ***  *** **   PROGRAM RAN ON                                   tcopt10
 **    ****   ******    PROGRAM RAN BY                                    hutter
 ***** **    ** ** **   PROGRAM PROCESS ID                                 59529
  **** **  *******  **  PROGRAM STOPPED IN /data/hutter/GITHUB/BASIS/MOLOPT/PBE0
                                           /Ca
