 DBCSR| CPU Multiplication driver                                           XSMM
 DBCSR| Multrec recursion limit                                              512
 DBCSR| Multiplication stack size                                           1000
 DBCSR| Maximum elements for images                                    UNLIMITED
 DBCSR| Multiplicative factor virtual images                                   1
 DBCSR| Use multiplication densification                                       T
 DBCSR| Multiplication size stacks                                             3
 DBCSR| Use memory pool for CPU allocation                                     F
 DBCSR| Number of 3D layers                                               SINGLE
 DBCSR| Use MPI memory allocation                                              F
 DBCSR| Use RMA algorithm                                                      F
 DBCSR| Use Communication thread                                               T
 DBCSR| Communication thread load                                             87
 DBCSR| MPI: My node id                                                        0
 DBCSR| MPI: Number of nodes                                                  48
 DBCSR| OMP: Current number of threads                                         1
 DBCSR| OMP: Max number of threads                                             1
 DBCSR| Split modifier for TAS multiplication algorithm                  1.0E+00


  **** **** ******  **  PROGRAM STARTED AT               2022-05-13 12:14:34.557
 ***** ** ***  *** **   PROGRAM STARTED ON                               tcopt10
 **    ****   ******    PROGRAM STARTED BY                                hutter
 ***** **    ** ** **   PROGRAM PROCESS ID                                 80621
  **** **  *******  **  PROGRAM STARTED IN /data/hutter/GITHUB/BASIS/scMOLOPT/PB
                                           E/V

 CP2K| version string:                   CP2K version 10.0 (Development Version)
 CP2K| source code revision number:                                  git:13fcfd8
 CP2K| cp2kflags: omp libint fftw3 libxc elpa parallel mpi3 scalapack cosma xsmm
 CP2K|             spglib sirius libvori libbqb
 CP2K| is freely available from                            https://www.cp2k.org/
 CP2K| Program compiled at                      Tue 10 May 2022 02:27:21 PM CEST
 CP2K| Program compiled on                                               tcopt10
 CP2K| Program compiled for                                                local
 CP2K| Data directory path                   /data/hutter/GITHUB/TDLRI/cp2k/data
 CP2K| Input file name                                                VO-ref.inp

 GLOBAL| Force Environment number                                              1
 GLOBAL| Basis set file name                                        ../def2QZVPP
 GLOBAL| Potential file name                                        ../POTENTIAL
 GLOBAL| MM Potential file name                                     MM_POTENTIAL
 GLOBAL| Coordinate file name                                      __STD_INPUT__
 GLOBAL| Method name                                                        CP2K
 GLOBAL| Project name                                                      refVO
 GLOBAL| Run type                                                         ENERGY
 GLOBAL| FFT library                                                       FFTW3
 GLOBAL| Diagonalization library                                       ScaLAPACK
 GLOBAL| Orthonormality check for eigenvectors                          DISABLED
 GLOBAL| Matrix multiplication library                                     COSMA
 GLOBAL| All-to-all communication in single precision                          F
 GLOBAL| FFTs using library dependent lengths                                  F
 GLOBAL| Grid backend                                                       AUTO
 GLOBAL| Global print level                                                  LOW
 GLOBAL| MPI I/O enabled                                                       T
 GLOBAL| Total number of message passing processes                            48
 GLOBAL| Number of threads for this process                                    1
 GLOBAL| This output is from process                                           0
 GLOBAL| Stack size for threads created by OpenMP (OMP_STACKSIZE)        default
 GLOBAL| CPU model name                          AMD EPYC 7401 24-Core Processor
 GLOBAL| CPUID                                                              1002

 MEMORY| system memory details [Kb]
 MEMORY|                        rank 0           min           max       average
 MEMORY| MemTotal            263969136     263969136     263969136     263969136
 MEMORY| MemFree             237784068     237784068     237784068     237784068
 MEMORY| Buffers                   136           136           136           136
 MEMORY| Cached               18972752      18972752      18972752      18972752
 MEMORY| Slab                  1429016       1429016       1429016       1429016
 MEMORY| SReclaimable           873312        873312        873312        873312
 MEMORY| MemLikelyFree       257630268     257630268     257630268     257630268


 GENERATE|  Preliminary Number of Bonds generated:                             0
 GENERATE|  Achieved consistency in connectivity generation.

 *******************************************************************************
 *******************************************************************************
 **                                                                           **
 **     #####                         ##              ##                      **
 **    ##   ##            ##          ##              ##                      **
 **   ##     ##                       ##            ######                    **
 **   ##     ##  ##   ##  ##   #####  ##  ##   ####   ##    #####    #####    **
 **   ##     ##  ##   ##  ##  ##      ## ##   ##      ##   ##   ##  ##   ##   **
 **   ##  ## ##  ##   ##  ##  ##      ####     ###    ##   ######   ######    **
 **    ##  ###   ##   ##  ##  ##      ## ##      ##   ##   ##       ##        **
 **     #######   #####   ##   #####  ##  ##  ####    ##    #####   ##        **
 **           ##                                                    ##        **
 **                                                                           **
 **                                                ... make the atoms dance   **
 **                                                                           **
 **            Copyright (C) by CP2K developers group (2000-2022)             **
 **                      J. Chem. Phys. 152, 194103 (2020)                    **
 **                                                                           **
 *******************************************************************************


 TOTAL NUMBERS AND MAXIMUM NUMBERS

  Total number of            - Atomic kinds:                                   2
                             - Atoms:                                          2
                             - Shell sets:                                    44
                             - Shells:                                        44
                             - Primitive Cartesian functions:                 85
                             - Cartesian basis functions:                    191
                             - Spherical basis functions:                    150

  Maximum angular momentum of the orbital basis functions:                     4


 SCF PARAMETERS         Density guess:                                   RESTART
                        --------------------------------------------------------
                        max_scf:                                              24
                        max_scf_history:                                       0
                        max_diis:                                              4
                        --------------------------------------------------------
                        eps_scf:                                        1.00E-06
                        eps_scf_history:                                0.00E+00
                        eps_diis:                                       1.00E-01
                        eps_eigval:                                     1.00E-05
                        --------------------------------------------------------
                        level_shift [a.u.]:                             0.000000
                        --------------------------------------------------------
                        Outer loop SCF in use 
                        No variables optimised in outer loop
                        eps_scf                                         1.00E-06
                        max_scf                                                5
                        No outer loop optimization
                        step_size                                       5.00E-01

 Number of electrons:                                                         30
 Number of occupied orbitals:                                                 15
 Number of molecular orbitals:                                                15

 Number of orbital functions:                                                150
 Number of independent orbital functions:                                    150

 Extrapolation method: initial_guess


 SCF WAVEFUNCTION OPTIMIZATION

  ----------------------------------- OT ---------------------------------------
  Minimizer      : DIIS                : direct inversion
                                         in the iterative subspace
                                         using   7 DIIS vectors
                                         safer DIIS on
  Preconditioner : FULL_ALL            : diagonalization, state selective
  Precond_solver : DEFAULT
  stepsize       :    0.10000000                  energy_gap     :    0.08000000
  eps_taylor     :   0.10000E-15                  max_taylor     :             4
  ----------------------------------- OT ---------------------------------------

  Step     Update method      Time    Convergence         Total energy    Change
  ------------------------------------------------------------------------------
     1 OT DIIS     0.10E+00    1.1     0.04060052     -1018.6832661876 -1.02E+03
     2 OT DIIS     0.10E+00    1.3     0.34261342     -1017.4439356527  1.24E+00
     3 OT DIIS     0.10E+00    1.3     0.00957387     -1018.7096235728 -1.27E+00
     4 OT DIIS     0.10E+00    1.3     0.00449790     -1018.7111465144 -1.52E-03
     5 OT DIIS     0.10E+00    1.3     0.00251172     -1018.7115233879 -3.77E-04
     6 OT DIIS     0.10E+00    1.3     0.00090340     -1018.7116997791 -1.76E-04
     7 OT DIIS     0.10E+00    1.3     0.00016772     -1018.7117272917 -2.75E-05
     8 OT DIIS     0.10E+00    1.3     0.00003556     -1018.7117281925 -9.01E-07
     9 OT DIIS     0.10E+00    1.3     0.00000353     -1018.7117282477 -5.53E-08
    10 OT DIIS     0.10E+00    1.3     0.00000305     -1018.7117282530 -5.25E-09
    11 OT DIIS     0.10E+00    1.3     0.00000296     -1018.7117282545 -1.53E-09
    12 OT DIIS     0.10E+00    1.3     0.00000296     -1018.7117282566 -2.10E-09
    13 OT SD       0.10E+00    1.3     0.00000296     -1018.7117282577 -1.07E-09
    14 OT SD       0.10E+00    1.3     0.00000296     -1018.7117282592 -1.55E-09
    15 OT SD       0.10E+00    1.3     0.00000297     -1018.7117282611 -1.91E-09
    16 OT SD       0.10E+00    1.3     0.00000318     -1018.7117282620 -9.10E-10
    17 OT SD       0.10E+00    1.3     0.00000788     -1018.7117282627 -6.32E-10
    18 OT SD       0.10E+00    1.3     0.00004719     -1018.7117282316  3.11E-08
    19 OT DIIS     0.10E+00    1.3     0.00030365     -1018.7117268734  1.36E-06
    20 OT SD       0.10E+00    1.3     0.00000130     -1018.7117276221 -7.49E-07
    21 OT SD       0.10E+00    1.3     0.00000365     -1018.7117276221  6.37E-12
    22 OT SD       0.10E+00    1.3     0.00002281     -1018.7117276139  8.10E-09
    23 OT DIIS     0.10E+00    1.3     0.00014705     -1018.7117272951  3.19E-07
    24 OT DIIS     0.10E+00    1.3     0.00000023     -1018.7117275922 -2.97E-07

  *** SCF run converged in    24 steps ***


  Electronic density on regular grids:        -18.6142809797       11.3857190203
  Core density on regular grids:               31.0000000000        0.0000000000
  Hard and soft densities (Lebedev):          -46.9551195696      -35.5694012200
  Total Rho_soft + Rho1_hard - Rho1_soft      -29.9999993294
  Total charge density (r-space):               1.0000006706
  Total Rho_soft + Rho0_soft (g-space):         0.9999997572

  Overlap energy of the core charge distribution:               0.00000000170291
  Self energy of the core charge distribution:               -470.85183982355267
  Core Hamiltonian energy:                                   -573.45059395966075
  Hartree energy:                                              80.27726682098722
  Exchange-correlation energy:                                -12.64589970946910

  GAPW| Exc from hard and soft atomic rho1:                   -40.67074918933984
  GAPW| local Eh = 1 center integrals:                         -1.36991173284109

  Total energy:                                             -1018.71172759217313

  outer SCF iter =    1 RMS gradient =   0.23E-06 energy =      -1018.7117275922
  outer SCF loop converged in   1 iterations or   24 steps


 ENERGY| Total FORCE_EVAL ( QS ) energy [a.u.]:            -1018.711727592173133

 -------------------------------------------------------------------------------
 -                                                                             -
 -                                DBCSR STATISTICS                             -
 -                                                                             -
 -------------------------------------------------------------------------------
 COUNTER                                    TOTAL       BLAS       SMM       ACC
 flops    15 x    15 x    15              2085750       0.0%    100.0%      0.0%
 flops    57 x    57 x    15              2436750       0.0%    100.0%      0.0%
 flops    15 x    15 x    57              2488050       0.0%    100.0%      0.0%
 flops    57 x    93 x    15              3975750       0.0%    100.0%      0.0%
 flops    15 x    15 x    93              4059450       0.0%    100.0%      0.0%
 flops    57 x    15 x    57              5263380       0.0%    100.0%      0.0%
 flops    93 x    93 x    15              6486750       0.0%    100.0%      0.0%
 flops   150 x    15 x    15              8167500       0.0%    100.0%      0.0%
 flops    57 x    15 x    93              8587620       0.0%    100.0%      0.0%
 flops    93 x    15 x    57              8587620       0.0%    100.0%      0.0%
 flops   150 x    15 x    57             12825000       0.0%    100.0%      0.0%
 flops    93 x    15 x    93             14011380       0.0%    100.0%      0.0%
 flops   150 x    15 x    93             20925000       0.0%    100.0%      0.0%
 flops inhomo. stacks                           0       0.0%      0.0%      0.0%
 flops total                        99.900000E+06       0.0%    100.0%      0.0%
 flops max/rank                     97.463250E+06       0.0%    100.0%      0.0%
 matmuls inhomo. stacks                         0       0.0%      0.0%      0.0%
 matmuls total                               1015       0.0%    100.0%      0.0%
 number of processed stacks                  1015       0.0%    100.0%      0.0%
 average stack size                                     0.0       1.0       0.0
 marketing flops                   103.943208E+06
 -------------------------------------------------------------------------------
 # multiplications                            657
 max memory usage/rank             477.605888E+06
 # max total images/rank                        3
 # max 3D layers                                1
 # MPI messages exchanged                  630720
 MPI messages size (bytes):
  total size                       274.678208E+06
  min size                           0.000000E+00
  max size                         111.600000E+03
  average size                     435.499451E+00
 MPI breakdown and total messages size (bytes):
             size <=      128              618647                        0
       128 < size <=     8192                6434                 20376000
      8192 < size <=    32768                3351                 48382200
     32768 < size <=   131072                2288                205920000
    131072 < size <=  4194304                   0                        0
   4194304 < size <= 16777216                   0                        0
  16777216 < size                               0                        0
 -------------------------------------------------------------------------------

 *** WARNING in dbcsr_mm.F:290 :: Using a non-square number of MPI ranks ***
 *** might lead to poor performance. Used ranks: 48 Suggested: 49 100    ***

 -------------------------------------------------------------------------------
 -                                                                             -
 -                      DBCSR MESSAGE PASSING PERFORMANCE                      -
 -                                                                             -
 -------------------------------------------------------------------------------
 ROUTINE             CALLS      AVE VOLUME [Bytes]
 MP_Bcast               14                     12.
 MP_Allreduce         3512                      8.
 MP_Alltoall          1900                   4174.
 MP_ISend            29306                   1168.
 MP_IRecv            28954                    364.
 -------------------------------------------------------------------------------

 -------------------------------------------------------------------------------
 -                                                                             -
 -                                GRID STATISTICS                              -
 -                                                                             -
 -------------------------------------------------------------------------------
 LP    KERNEL             BACKEND                              COUNT     PERCENT
 2     collocate ortho    REF                                  11025      12.63%
 2     integrate ortho    REF                                  10584      12.12%
 3     collocate ortho    REF                                   8875      10.16%
 3     integrate ortho    REF                                   8520       9.76%
 1     collocate ortho    REF                                   7850       8.99%
 1     integrate ortho    REF                                   7536       8.63%
 4     collocate ortho    REF                                   6100       6.99%
 4     integrate ortho    REF                                   5856       6.71%
 5     collocate ortho    REF                                   3250       3.72%
 5     integrate ortho    REF                                   3120       3.57%
 0     collocate ortho    REF                                   2950       3.38%
 0     integrate ortho    REF                                   2832       3.24%
 2     collocate general  REF                                   2304       2.64%
 2     integrate general  REF                                   2304       2.64%
 6     collocate ortho    REF                                   1400       1.60%
 6     integrate ortho    REF                                   1344       1.54%
 7     collocate ortho    REF                                    575       0.66%
 7     integrate ortho    REF                                    552       0.63%
 8     collocate ortho    REF                                    175       0.20%
 8     integrate ortho    REF                                    168       0.19%
 -------------------------------------------------------------------------------

 MEMORY| Estimated peak process memory [MiB]                                 478

 -------------------------------------------------------------------------------
 -                                                                             -
 -                         MESSAGE PASSING PERFORMANCE                         -
 -                                                                             -
 -------------------------------------------------------------------------------

 ROUTINE             CALLS      AVE VOLUME [Bytes]
 MP_Group                4
 MP_Bcast              291                 668165.
 MP_Allreduce         1009                 328947.
 MP_Sync                12
 MP_Alltoall           550                8799465.
 MP_ISendRecv         4606                  53640.
 MP_Wait              8402
 MP_comm_split           4
 MP_ISend             3212                 553530.
 MP_IRecv             3212                 553590.
 MP_Recv                14                   2400.
 -------------------------------------------------------------------------------


 -------------------------------------------------------------------------------
 -                                                                             -
 -                           R E F E R E N C E S                               -
 -                                                                             -
 -------------------------------------------------------------------------------
 
 CP2K version 10.0 (Development Version), the CP2K developers group (2022).
 CP2K is freely available from https://www.cp2k.org/ .

 Kuehne,Thomas D.; Iannuzzi,Marcella; Del Ben,Mauro;
 Rybkin,Vladimir V.; Seewald,Patrick; Stein,Frederick; Laino,Teodoro;
 Khaliullin,Rustam Z.; Schuett,Ole; Schiffmann,Florian; Golze,Dorothea;
 Wilhelm,Jan; Chulkov,Sergey; Bani-Hashemian,Mohammad Hossein;
 Weber,Valery; Borstnik,Urban; Taillefumier,Mathieu;
 Jakobovits,Alice Shoshana; Lazzaro,Alfio; Pabst,Hans; Mueller,Tiziano;
 Schade,Robert; Guidon,Manuel; Andermatt,Samuel; Holmberg,Nico;
 Schenter,Gregory K.; Hehn,Anna; Bussy,Augustin; Belleflamme,Fabian;
 Tabacchi,Gloria; Gloess,Andreas; Lass,Michael; Bethune,Iain;
 Mundy,Christopher J.; Plessl,Christian; Watkins,Matt;
 VandeVondele,Joost; Krack,Matthias; Hutter,Juerg. 
 The Journal of Chemical Physics, 152 (19), (2020). 
 CP2K: An electronic structure and molecular dynamics software package -
 Quickstep: Efficient and accurate electronic structure calculations.
 https://doi.org/10.1063/5.0007045

 Schuett, Ole; Messmer, Peter; Hutter, Juerg; VandeVondele, Joost. 
 Electronic Structure Calculations on Graphics Processing Units, John
 Wiley & Sons, Ltd, 173-190 (2016). 
 GPU-Accelerated Sparse Matrix-Matrix Multiplication for
 Linear Scaling Density Functional Theory.
 https://doi.org/10.1002/9781118670712.ch8

 Heinecke, A; Henry, G; Hutchinson, M; Pabst, H. 
 Proceedings of Intl. Supercomputing Conference, 981-991 (2016). 
 LIBXSMM: Accelerating Small Matrix Multiplications
 by Runtime Code Generation.
 https://doi.org/10.1109/SC.2016.83

 Borstnik, U; VandeVondele, J; Weber, V; Hutter, J. 
 PARALLEL COMPUTING, 40 (5-6), 47-58 (2014). 
 Sparse matrix multiplication: The distributed block-compressed sparse
 row library.
 https://doi.org/10.1016/j.parco.2014.03.012

 Hutter, J; Iannuzzi, M; Schiffmann, F; VandeVondele, J. 
 WIREs Comput Mol Sci., 4 (1), 15-25 (2014). 
 CP2K: atomistic simulations of condensed matter systems.
 https://doi.org/10.1002/wcms.1159

 Frigo, M; Johnson, SG. 
 PROCEEDINGS OF THE IEEE, 93 (2), 216-231 (2005). 
 The design and implementation of FFTW3.
 https://doi.org/10.1109/JPROC.2004.840301

 VandeVondele, J; Hutter, J. 
 JOURNAL OF CHEMICAL PHYSICS, 118 (10), 4365-4369 (2003). 
 An efficient orbital transformation method for electronic structure
 calculations.
 https://doi.org/10.1063/1.1543154

 Lippert, G; Hutter, J; Parrinello, M. 
 THEORETICAL CHEMISTRY ACCOUNTS, 103 (2), 124-140 (1999). 
 The Gaussian and augmented-plane-wave density functional method for ab
 initio molecular dynamics simulations.
 https://doi.org/10.1007/s002140050523

 Krack, M; Parrinello, M. 
 PHYSICAL CHEMISTRY CHEMICAL PHYSICS, 2 (10), 2105-2112 (2000). 
 All-electron ab-initio molecular dynamics.
 https://doi.org/10.1039/b001167n

 Perdew, JP; Burke, K; Ernzerhof, M. 
 PHYSICAL REVIEW LETTERS, 77 (18), 3865-3868 (1996). 
 Generalized gradient approximation made simple.
 https://doi.org/10.1103/PhysRevLett.77.3865


 -------------------------------------------------------------------------------
 -                                                                             -
 -                                T I M I N G                                  -
 -                                                                             -
 -------------------------------------------------------------------------------
 SUBROUTINE                       CALLS  ASD         SELF TIME        TOTAL TIME
                                MAXIMUM       AVERAGE  MAXIMUM  AVERAGE  MAXIMUM
 CP2K                                 1  1.0    0.011    0.034   31.631   31.632
 qs_energies                          1  2.0    0.000    0.000   31.322   31.322
 scf_env_do_scf                       1  3.0    0.000    0.000   30.876   30.877
 scf_env_do_scf_inner_loop           24  4.0    0.000    0.002   29.786   29.787
 qs_ks_update_qs_env                 25  5.0    0.000    0.000   25.647   25.654
 rebuild_ks_matrix                   24  6.0    0.000    0.000   25.643   25.649
 qs_ks_build_kohn_sham_matrix        24  7.0    0.005    0.007   25.643   25.649
 pw_transfer                        509 10.1    0.066    0.075   10.263   11.248
 fft_wrap_pw1pw2                    437 11.3    0.007    0.009   10.076   11.073
 fft_wrap_pw1pw2_300                290 12.6    0.726    0.821    9.713   10.692
 fft3d_ps                           437 13.3    3.932    5.266    7.409    8.377
 qs_vxc_create                       24  8.0    0.001    0.001    7.781    7.782
 xc_vxc_pw_create                    24  9.0    0.050    0.057    7.781    7.781
 xc_pw_derive                       144 11.0    0.002    0.003    5.704    6.590
 rs_pw_transfer                     244  9.5    0.008    0.009    6.097    6.294
 prepare_gapw_den                    24  8.0    0.001    0.001    6.187    6.246
 xc_pw_divergence                    24 10.0    0.001    0.002    3.879    4.707
 mp_sum_d                          1034  6.2    4.376    4.702    4.376    4.702
 qs_rho_update_rho                   25  5.0    0.001    0.001    4.668    4.670
 calculate_rho_elec                  25  6.0    0.026    0.029    4.507    4.507
 xc_rho_set_and_dset_create          24 10.0    0.053    0.071    3.697    4.324
 mp_alltoall_z22v                   437 15.3    2.388    3.970    2.388    3.970
 density_rs2pw                       25  7.0    0.002    0.002    3.679    3.943
 sum_up_and_integrate                24  8.0    0.023    0.027    3.539    3.573
 integrate_v_rspace                  24  9.0    0.001    0.001    3.515    3.549
 calculate_vxc_atom                  24  8.0    0.012    0.188    3.401    3.404
 calculate_rho_atom                  48  9.0    1.038    3.389    1.038    3.389
 yz_to_x                            195 14.1    0.512    0.649    2.068    3.335
 gaVxcgb_GC                          48  9.0    0.065    3.123    0.065    3.123
 potential_pw2rs                     24 10.0    0.003    0.003    3.018    3.023
 integrate_vhg0_rspace               24  8.0    0.234    0.431    2.710    2.741
 calculate_rho0_atom                 48  9.0    2.264    2.416    2.264    2.416
 rs_pw_transfer_RS2PW_300            49 10.0    1.571    1.678    2.228    2.395
 rs_pw_transfer_PW2RS_300            48 11.0    1.531    1.573    2.312    2.384
 put_rho0_on_grid                    24  9.0    0.028    0.033    2.121    2.180
 mp_waitany                        3212 11.5    1.431    1.651    1.431    1.651
 x_to_yz                            193 14.6    0.539    0.599    1.365    1.530
 xc_functional_eval                 120 10.9    0.000    0.001    0.875    1.514
 pbe_lda_eval                       120 11.9    0.875    1.513    0.875    1.513
 mp_sum_dv                          155 12.0    0.763    1.377    0.763    1.377
 mp_sum_dm                          148  7.6    1.214    1.248    1.214    1.248
 grid_collocate_task_list            25  7.0    0.637    1.128    0.637    1.128
 init_scf_loop                        1  4.0    0.000    0.000    1.089    1.089
 pw_scatter_p                       217 13.7    0.948    1.052    0.948    1.052
 pw_gather_p                        220 12.9    0.961    1.039    0.961    1.039
 dbcsr_multiply_generic             657 10.3    0.019    0.020    0.764    0.773
 Vh_1c_gg_integrals                  24  8.0    0.031    0.638    0.694    0.768
 qs_scf_new_mos                      24  5.0    0.000    0.000    0.703    0.705
 qs_scf_loop_do_ot                   24  6.0    0.000    0.000    0.703    0.705
 ot_scf_mini                         24  7.0    0.000    0.000    0.675    0.677
 rs_pw_transfer_PW2RS_100            24 12.0    0.318    0.330    0.590    0.644
 -------------------------------------------------------------------------------

 The number of warnings for this run is : 1
 
 -------------------------------------------------------------------------------
  **** **** ******  **  PROGRAM ENDED AT                 2022-05-13 12:15:06.653
 ***** ** ***  *** **   PROGRAM RAN ON                                   tcopt10
 **    ****   ******    PROGRAM RAN BY                                    hutter
 ***** **    ** ** **   PROGRAM PROCESS ID                                 80621
  **** **  *******  **  PROGRAM STOPPED IN /data/hutter/GITHUB/BASIS/scMOLOPT/PB
                                           E/V
