 DBCSR| CPU Multiplication driver                                           XSMM
 DBCSR| Multrec recursion limit                                              512
 DBCSR| Multiplication stack size                                           1000
 DBCSR| Maximum elements for images                                    UNLIMITED
 DBCSR| Multiplicative factor virtual images                                   1
 DBCSR| Use multiplication densification                                       T
 DBCSR| Multiplication size stacks                                             3
 DBCSR| Use memory pool for CPU allocation                                     F
 DBCSR| Number of 3D layers                                               SINGLE
 DBCSR| Use MPI memory allocation                                              F
 DBCSR| Use RMA algorithm                                                      F
 DBCSR| Use Communication thread                                               T
 DBCSR| Communication thread load                                             87
 DBCSR| MPI: My node id                                                        0
 DBCSR| MPI: Number of nodes                                                  48
 DBCSR| OMP: Current number of threads                                         1
 DBCSR| OMP: Max number of threads                                             1
 DBCSR| Split modifier for TAS multiplication algorithm                  1.0E+00


  **** **** ******  **  PROGRAM STARTED AT               2022-05-11 21:54:57.559
 ***** ** ***  *** **   PROGRAM STARTED ON                               tcopt10
 **    ****   ******    PROGRAM STARTED BY                                hutter
 ***** **    ** ** **   PROGRAM PROCESS ID                                 41863
  **** **  *******  **  PROGRAM STARTED IN /data/hutter/GITHUB/BASIS/scMOLOPT/PB
                                           E/alsipscl

 CP2K| version string:                   CP2K version 10.0 (Development Version)
 CP2K| source code revision number:                                  git:13fcfd8
 CP2K| cp2kflags: omp libint fftw3 libxc elpa parallel mpi3 scalapack cosma xsmm
 CP2K|             spglib sirius libvori libbqb
 CP2K| is freely available from                            https://www.cp2k.org/
 CP2K| Program compiled at                      Tue 10 May 2022 02:27:21 PM CEST
 CP2K| Program compiled on                                               tcopt10
 CP2K| Program compiled for                                                local
 CP2K| Data directory path                   /data/hutter/GITHUB/TDLRI/cp2k/data
 CP2K| Input file name                                              AlF3-ref.inp

 GLOBAL| Force Environment number                                              1
 GLOBAL| Basis set file name                                        ../def2QZVPP
 GLOBAL| Potential file name                                        ../POTENTIAL
 GLOBAL| MM Potential file name                                     MM_POTENTIAL
 GLOBAL| Coordinate file name                                      __STD_INPUT__
 GLOBAL| Method name                                                        CP2K
 GLOBAL| Project name                                                    refAlF3
 GLOBAL| Run type                                                         ENERGY
 GLOBAL| FFT library                                                       FFTW3
 GLOBAL| Diagonalization library                                       ScaLAPACK
 GLOBAL| Orthonormality check for eigenvectors                          DISABLED
 GLOBAL| Matrix multiplication library                                     COSMA
 GLOBAL| All-to-all communication in single precision                          F
 GLOBAL| FFTs using library dependent lengths                                  F
 GLOBAL| Grid backend                                                       AUTO
 GLOBAL| Global print level                                                  LOW
 GLOBAL| MPI I/O enabled                                                       T
 GLOBAL| Total number of message passing processes                            48
 GLOBAL| Number of threads for this process                                    1
 GLOBAL| This output is from process                                           0
 GLOBAL| Stack size for threads created by OpenMP (OMP_STACKSIZE)        default
 GLOBAL| CPU model name                          AMD EPYC 7401 24-Core Processor
 GLOBAL| CPUID                                                              1002

 MEMORY| system memory details [Kb]
 MEMORY|                        rank 0           min           max       average
 MEMORY| MemTotal            263969136     263969136     263969136     263969136
 MEMORY| MemFree             237908144     237908144     237908144     237908144
 MEMORY| Buffers                   136           136           136           136
 MEMORY| Cached               18900924      18900924      18900924      18900924
 MEMORY| Slab                  1433380       1433380       1433380       1433380
 MEMORY| SReclaimable           877644        877644        877644        877644
 MEMORY| MemLikelyFree       257686848     257686848     257686848     257686848


 GENERATE|  Preliminary Number of Bonds generated:                             0
 GENERATE|  Achieved consistency in connectivity generation.

 *******************************************************************************
 *******************************************************************************
 **                                                                           **
 **     #####                         ##              ##                      **
 **    ##   ##            ##          ##              ##                      **
 **   ##     ##                       ##            ######                    **
 **   ##     ##  ##   ##  ##   #####  ##  ##   ####   ##    #####    #####    **
 **   ##     ##  ##   ##  ##  ##      ## ##   ##      ##   ##   ##  ##   ##   **
 **   ##  ## ##  ##   ##  ##  ##      ####     ###    ##   ######   ######    **
 **    ##  ###   ##   ##  ##  ##      ## ##      ##   ##   ##       ##        **
 **     #######   #####   ##   #####  ##  ##  ####    ##    #####   ##        **
 **           ##                                                    ##        **
 **                                                                           **
 **                                                ... make the atoms dance   **
 **                                                                           **
 **            Copyright (C) by CP2K developers group (2000-2022)             **
 **                      J. Chem. Phys. 152, 194103 (2020)                    **
 **                                                                           **
 *******************************************************************************


 TOTAL NUMBERS AND MAXIMUM NUMBERS

  Total number of            - Atomic kinds:                                   2
                             - Atoms:                                          4
                             - Shell sets:                                    73
                             - Shells:                                        73
                             - Primitive Cartesian functions:                128
                             - Cartesian basis functions:                    302
                             - Spherical basis functions:                    241

  Maximum angular momentum of the orbital basis functions:                     4


 SCF PARAMETERS         Density guess:                                    ATOMIC
                        --------------------------------------------------------
                        max_scf:                                              10
                        max_scf_history:                                       0
                        max_diis:                                              4
                        --------------------------------------------------------
                        eps_scf:                                        1.00E-07
                        eps_scf_history:                                0.00E+00
                        eps_diis:                                       1.00E-01
                        eps_eigval:                                     1.00E-05
                        --------------------------------------------------------
                        level_shift [a.u.]:                             0.000000
                        --------------------------------------------------------
                        Outer loop SCF in use 
                        No variables optimised in outer loop
                        eps_scf                                         1.00E-07
                        max_scf                                               10
                        No outer loop optimization
                        step_size                                       5.00E-01

 Number of electrons:                                                         40
 Number of occupied orbitals:                                                 20
 Number of molecular orbitals:                                                20

 Number of orbital functions:                                                241
 Number of independent orbital functions:                                    241

 Extrapolation method: initial_guess


 SCF WAVEFUNCTION OPTIMIZATION

  ----------------------------------- OT ---------------------------------------
  Minimizer      : DIIS                : direct inversion
                                         in the iterative subspace
                                         using   7 DIIS vectors
                                         safer DIIS on
  Preconditioner : FULL_ALL            : diagonalization, state selective
  Precond_solver : DEFAULT
  stepsize       :    0.15000000                  energy_gap     :    0.08000000
  eps_taylor     :   0.10000E-15                  max_taylor     :             4
  ----------------------------------- OT ---------------------------------------

  Step     Update method      Time    Convergence         Total energy    Change
  ------------------------------------------------------------------------------
     1 OT DIIS     0.15E+00    0.6     0.14743651      -528.8622769655 -5.29E+02
     2 OT DIIS     0.15E+00    0.7     0.05221465      -539.3489904764 -1.05E+01
     3 OT DIIS     0.15E+00    0.7     0.01895988      -540.8754298450 -1.53E+00
     4 OT DIIS     0.15E+00    0.7     0.01480674      -541.1046385218 -2.29E-01
     5 OT DIIS     0.15E+00    0.7     0.01090325      -541.3808414292 -2.76E-01
     6 OT DIIS     0.15E+00    0.7     0.00769987      -541.6216345818 -2.41E-01
     7 OT DIIS     0.15E+00    0.7     0.00543631      -541.7806775360 -1.59E-01
     8 OT DIIS     0.15E+00    0.7     0.00478318      -541.8547525001 -7.41E-02
     9 OT DIIS     0.15E+00    0.7     0.00360181      -541.8758233013 -2.11E-02
    10 OT DIIS     0.15E+00    0.7     0.00224396      -541.9189087254 -4.31E-02

  Leaving inner SCF loop after reaching    10 steps.


  Electronic density on regular grids:        -27.6121051081       12.3878948919
  Core density on regular grids:               40.0000000000        0.0000000000
  Hard and soft densities (Lebedev):          -68.6122194238      -56.2243233733
  Total Rho_soft + Rho1_hard - Rho1_soft      -40.0000011587
  Total charge density (r-space):              -0.0000011587
  Total Rho_soft + Rho0_soft (g-space):        -0.0000014340

  Overlap energy of the core charge distribution:               0.00000004242967
  Self energy of the core charge distribution:               -419.63243529836217
  Core Hamiltonian energy:                                   -146.91691069501491
  Hartree energy:                                              58.64529480279045
  Exchange-correlation energy:                                -17.47097729578988

  GAPW| Exc from hard and soft atomic rho1:                   -32.26630274901452
  GAPW| local Eh = 1 center integrals:                         15.72242246753277

  Total energy:                                              -541.91890872542842

  outer SCF iter =    1 RMS gradient =   0.22E-02 energy =       -541.9189087254

  ----------------------------------- OT ---------------------------------------
  Minimizer      : DIIS                : direct inversion
                                         in the iterative subspace
                                         using   7 DIIS vectors
                                         safer DIIS on
  Preconditioner : FULL_ALL            : diagonalization, state selective
  Precond_solver : DEFAULT
  stepsize       :    0.15000000                  energy_gap     :    0.08000000
  eps_taylor     :   0.10000E-15                  max_taylor     :             4
  ----------------------------------- OT ---------------------------------------

  Step     Update method      Time    Convergence         Total energy    Change
  ------------------------------------------------------------------------------
     1 OT DIIS     0.15E+00    1.4     0.00437903      -541.9306782022 -1.18E-02
     2 OT DIIS     0.15E+00    0.7     0.00179236      -541.9400480277 -9.37E-03
     3 OT DIIS     0.15E+00    0.7     0.00113831      -541.9415017100 -1.45E-03
     4 OT DIIS     0.15E+00    0.7     0.00007728      -541.9417723344 -2.71E-04
     5 OT DIIS     0.15E+00    0.7     0.00004767      -541.9417740855 -1.75E-06
     6 OT DIIS     0.15E+00    0.7     0.00000987      -541.9417745308 -4.45E-07
     7 OT DIIS     0.15E+00    0.7     0.00000153      -541.9417745572 -2.64E-08
     8 OT DIIS     0.15E+00    0.7     0.00000031      -541.9417745582 -9.41E-10
     9 OT DIIS     0.15E+00    0.7     0.00000019      -541.9417745582  6.03E-12
    10 OT DIIS     0.15E+00    0.7     0.00000003      -541.9417745581  1.14E-10

  *** SCF run converged in    10 steps ***


  Electronic density on regular grids:        -27.6012734418       12.3987265582
  Core density on regular grids:               40.0000000000        0.0000000000
  Hard and soft densities (Lebedev):          -68.7240220942      -56.3252943841
  Total Rho_soft + Rho1_hard - Rho1_soft      -40.0000011518
  Total charge density (r-space):              -0.0000011518
  Total Rho_soft + Rho0_soft (g-space):        -0.0000014271

  Overlap energy of the core charge distribution:               0.00000004242967
  Self energy of the core charge distribution:               -419.63243529836217
  Core Hamiltonian energy:                                   -146.87459694614449
  Hartree energy:                                              58.61455942611911
  Exchange-correlation energy:                                -17.48375350042842

  GAPW| Exc from hard and soft atomic rho1:                   -32.27871416889057
  GAPW| local Eh = 1 center integrals:                         15.71316588721309

  Total energy:                                              -541.94177455806368

  outer SCF iter =    2 RMS gradient =   0.27E-07 energy =       -541.9417745581
  outer SCF loop converged in   2 iterations or   20 steps


 ENERGY| Total FORCE_EVAL ( QS ) energy [a.u.]:             -541.941774558063685

 -------------------------------------------------------------------------------
 -                                                                             -
 -                                DBCSR STATISTICS                             -
 -                                                                             -
 -------------------------------------------------------------------------------
 COUNTER                                    TOTAL       BLAS       SMM       ACC
 flops    20 x    20 x    20              2832000       0.0%    100.0%      0.0%
 flops    70 x    57 x    20              3351600       0.0%    100.0%      0.0%
 flops    70 x    70 x    20              4116000       0.0%    100.0%      0.0%
 flops    20 x    20 x    70              4592000       0.0%    100.0%      0.0%
 flops    57 x    70 x    20              6703200       0.0%    100.0%      0.0%
 flops    57 x    20 x    20              9302400       0.0%    100.0%      0.0%
 flops   127 x    20 x    20             10363200       0.0%    100.0%      0.0%
 flops    70 x    20 x    70             10584000       0.0%    100.0%      0.0%
 flops    20 x    20 x    57             11217600       0.0%    100.0%      0.0%
 flops   127 x    20 x    70             15646400       0.0%    100.0%      0.0%
 flops    57 x    57 x    20             16374960       0.0%    100.0%      0.0%
 flops    70 x    20 x    57             25855200       0.0%    100.0%      0.0%
 flops   127 x    20 x    57             38221920       0.0%    100.0%      0.0%
 flops    57 x    20 x    70             39900000       0.0%    100.0%      0.0%
 flops    57 x    20 x    57             97470000       0.0%    100.0%      0.0%
 flops inhomo. stacks                           0       0.0%      0.0%      0.0%
 flops total                       296.530480E+06       0.0%    100.0%      0.0%
 flops max/rank                    156.451840E+06       0.0%    100.0%      0.0%
 matmuls inhomo. stacks                         0       0.0%      0.0%      0.0%
 matmuls total                               2413       0.0%    100.0%      0.0%
 number of processed stacks                  2413       0.0%    100.0%      0.0%
 average stack size                                     0.0       1.0       0.0
 marketing flops                   315.158656E+06
 -------------------------------------------------------------------------------
 # multiplications                            482
 max memory usage/rank             341.463040E+06
 # max total images/rank                        3
 # max 3D layers                                1
 # MPI messages exchanged                  462720
 MPI messages size (bytes):
  total size                       620.003840E+06
  min size                           0.000000E+00
  max size                          71.120000E+03
  average size                       1.339911E+03
 MPI breakdown and total messages size (bytes):
             size <=      128              436921                        0
       128 < size <=     8192                2784                  8908800
      8192 < size <=    32768               18703                347140256
     32768 < size <=   131072                4312                263954768
    131072 < size <=  4194304                   0                        0
   4194304 < size <= 16777216                   0                        0
  16777216 < size                               0                        0
 -------------------------------------------------------------------------------

 *** WARNING in dbcsr_mm.F:290 :: Using a non-square number of MPI ranks ***
 *** might lead to poor performance. Used ranks: 48 Suggested: 49 100    ***

 -------------------------------------------------------------------------------
 -                                                                             -
 -                      DBCSR MESSAGE PASSING PERFORMANCE                      -
 -                                                                             -
 -------------------------------------------------------------------------------
 ROUTINE             CALLS      AVE VOLUME [Bytes]
 MP_Bcast               16                     12.
 MP_Allreduce         2568                      8.
 MP_Alltoall          1919                   5998.
 MP_ISend            21558                   1992.
 MP_IRecv            21244                   1154.
 -------------------------------------------------------------------------------

 -------------------------------------------------------------------------------
 -                                                                             -
 -                                GRID STATISTICS                              -
 -                                                                             -
 -------------------------------------------------------------------------------
 LP    KERNEL             BACKEND                              COUNT     PERCENT
 2     collocate ortho    REF                                  14616      11.76%
 2     integrate ortho    REF                                  13920      11.20%
 3     collocate ortho    REF                                  12243       9.85%
 3     integrate ortho    REF                                  11660       9.38%
 1     collocate ortho    REF                                  11529       9.28%
 1     integrate ortho    REF                                  10980       8.84%
 4     collocate ortho    REF                                   9387       7.56%
 4     integrate ortho    REF                                   8940       7.20%
 5     collocate ortho    REF                                   4872       3.92%
 5     integrate ortho    REF                                   4640       3.73%
 0     collocate ortho    REF                                   3927       3.16%
 2     collocate general  REF                                   3840       3.09%
 2     integrate general  REF                                   3840       3.09%
 0     integrate ortho    REF                                   3740       3.01%
 6     collocate ortho    REF                                   2205       1.77%
 6     integrate ortho    REF                                   2100       1.69%
 7     collocate ortho    REF                                    714       0.57%
 7     integrate ortho    REF                                    680       0.55%
 8     collocate ortho    REF                                    210       0.17%
 8     integrate ortho    REF                                    200       0.16%
 -------------------------------------------------------------------------------

 MEMORY| Estimated peak process memory [MiB]                                 326

 -------------------------------------------------------------------------------
 -                                                                             -
 -                         MESSAGE PASSING PERFORMANCE                         -
 -                                                                             -
 -------------------------------------------------------------------------------

 ROUTINE             CALLS      AVE VOLUME [Bytes]
 MP_Group                4
 MP_Bcast              514                 312440.
 MP_Allreduce         1629                 108175.
 MP_Sync                52
 MP_Alltoall           460                7475564.
 MP_ISendRecv         5781                  66752.
 MP_Wait             10722
 MP_comm_split          24
 MP_ISend             4536                 159463.
 MP_IRecv             4536                 159423.
 MP_Recv                 9                   3856.
 -------------------------------------------------------------------------------


 -------------------------------------------------------------------------------
 -                                                                             -
 -                           R E F E R E N C E S                               -
 -                                                                             -
 -------------------------------------------------------------------------------
 
 CP2K version 10.0 (Development Version), the CP2K developers group (2022).
 CP2K is freely available from https://www.cp2k.org/ .

 Kuehne,Thomas D.; Iannuzzi,Marcella; Del Ben,Mauro;
 Rybkin,Vladimir V.; Seewald,Patrick; Stein,Frederick; Laino,Teodoro;
 Khaliullin,Rustam Z.; Schuett,Ole; Schiffmann,Florian; Golze,Dorothea;
 Wilhelm,Jan; Chulkov,Sergey; Bani-Hashemian,Mohammad Hossein;
 Weber,Valery; Borstnik,Urban; Taillefumier,Mathieu;
 Jakobovits,Alice Shoshana; Lazzaro,Alfio; Pabst,Hans; Mueller,Tiziano;
 Schade,Robert; Guidon,Manuel; Andermatt,Samuel; Holmberg,Nico;
 Schenter,Gregory K.; Hehn,Anna; Bussy,Augustin; Belleflamme,Fabian;
 Tabacchi,Gloria; Gloess,Andreas; Lass,Michael; Bethune,Iain;
 Mundy,Christopher J.; Plessl,Christian; Watkins,Matt;
 VandeVondele,Joost; Krack,Matthias; Hutter,Juerg. 
 The Journal of Chemical Physics, 152 (19), (2020). 
 CP2K: An electronic structure and molecular dynamics software package -
 Quickstep: Efficient and accurate electronic structure calculations.
 https://doi.org/10.1063/5.0007045

 Schuett, Ole; Messmer, Peter; Hutter, Juerg; VandeVondele, Joost. 
 Electronic Structure Calculations on Graphics Processing Units, John
 Wiley & Sons, Ltd, 173-190 (2016). 
 GPU-Accelerated Sparse Matrix-Matrix Multiplication for
 Linear Scaling Density Functional Theory.
 https://doi.org/10.1002/9781118670712.ch8

 Heinecke, A; Henry, G; Hutchinson, M; Pabst, H. 
 Proceedings of Intl. Supercomputing Conference, 981-991 (2016). 
 LIBXSMM: Accelerating Small Matrix Multiplications
 by Runtime Code Generation.
 https://doi.org/10.1109/SC.2016.83

 Borstnik, U; VandeVondele, J; Weber, V; Hutter, J. 
 PARALLEL COMPUTING, 40 (5-6), 47-58 (2014). 
 Sparse matrix multiplication: The distributed block-compressed sparse
 row library.
 https://doi.org/10.1016/j.parco.2014.03.012

 Hutter, J; Iannuzzi, M; Schiffmann, F; VandeVondele, J. 
 WIREs Comput Mol Sci., 4 (1), 15-25 (2014). 
 CP2K: atomistic simulations of condensed matter systems.
 https://doi.org/10.1002/wcms.1159

 Frigo, M; Johnson, SG. 
 PROCEEDINGS OF THE IEEE, 93 (2), 216-231 (2005). 
 The design and implementation of FFTW3.
 https://doi.org/10.1109/JPROC.2004.840301

 VandeVondele, J; Hutter, J. 
 JOURNAL OF CHEMICAL PHYSICS, 118 (10), 4365-4369 (2003). 
 An efficient orbital transformation method for electronic structure
 calculations.
 https://doi.org/10.1063/1.1543154

 Lippert, G; Hutter, J; Parrinello, M. 
 THEORETICAL CHEMISTRY ACCOUNTS, 103 (2), 124-140 (1999). 
 The Gaussian and augmented-plane-wave density functional method for ab
 initio molecular dynamics simulations.
 https://doi.org/10.1007/s002140050523

 Krack, M; Parrinello, M. 
 PHYSICAL CHEMISTRY CHEMICAL PHYSICS, 2 (10), 2105-2112 (2000). 
 All-electron ab-initio molecular dynamics.
 https://doi.org/10.1039/b001167n

 Perdew, JP; Burke, K; Ernzerhof, M. 
 PHYSICAL REVIEW LETTERS, 77 (18), 3865-3868 (1996). 
 Generalized gradient approximation made simple.
 https://doi.org/10.1103/PhysRevLett.77.3865


 -------------------------------------------------------------------------------
 -                                                                             -
 -                                T I M I N G                                  -
 -                                                                             -
 -------------------------------------------------------------------------------
 SUBROUTINE                       CALLS  ASD         SELF TIME        TOTAL TIME
                                MAXIMUM       AVERAGE  MAXIMUM  AVERAGE  MAXIMUM
 CP2K                                 1  1.0    0.007    0.030   14.707   14.708
 qs_energies                          1  2.0    0.000    0.000   14.504   14.504
 scf_env_do_scf                       1  3.0    0.000    0.000   14.206   14.206
 scf_env_do_scf_inner_loop           20  4.0    0.000    0.002   12.990   12.990
 qs_ks_update_qs_env                 22  5.0    0.000    0.000   11.321   11.326
 rebuild_ks_matrix                   20  6.0    0.000    0.000   11.318   11.322
 qs_ks_build_kohn_sham_matrix        20  7.0    0.004    0.005   11.318   11.322
 pw_transfer                        425 10.1    0.041    0.045    3.368    3.614
 fft_wrap_pw1pw2                    365 11.2    0.005    0.006    3.301    3.548
 fft_wrap_pw1pw2_250                242 12.6    0.192    0.229    3.121    3.375
 rs_pw_transfer                     204  9.5    0.005    0.006    3.028    3.186
 fft3d_ps                           365 13.2    1.188    1.379    2.702    2.968
 prepare_gapw_den                    20  8.0    0.001    0.001    2.784    2.794
 qs_vxc_create                       20  8.0    0.001    0.001    2.726    2.726
 xc_vxc_pw_create                    20  9.0    0.017    0.022    2.725    2.725
 qs_rho_update_rho                   21  5.0    0.000    0.001    2.303    2.305
 mp_sum_d                          1013  6.3    2.157    2.276    2.157    2.276
 calculate_rho_elec                  21  6.0    0.008    0.010    2.182    2.183
 xc_pw_derive                       120 11.0    0.001    0.001    1.767    2.037
 sum_up_and_integrate                20  8.0    0.007    0.009    2.015    2.021
 integrate_v_rspace                  20  9.0    0.000    0.001    2.008    2.015
 density_rs2pw                       21  7.0    0.001    0.001    1.673    1.812
 calculate_vxc_atom                  20  8.0    0.012    0.156    1.748    1.749
 mp_alltoall_z22v                   365 15.2    1.275    1.718    1.275    1.718
 xc_rho_set_and_dset_create          20 10.0    0.020    0.026    1.426    1.636
 gaVxcgb_GC                          40  9.0    0.055    1.518    0.055    1.518
 xc_pw_divergence                    20 10.0    0.001    0.001    1.227    1.497
 calculate_rho_atom                  40  9.0    0.552    1.480    0.552    1.480
 rs_pw_transfer_RS2PW_250            41 10.0    0.597    0.686    1.188    1.345
 potential_pw2rs                     20 10.0    0.001    0.001    1.274    1.277
 integrate_vhg0_rspace               20  8.0    0.169    0.228    1.258    1.271
 init_scf_loop                        2  4.0    0.000    0.000    1.215    1.215
 calculate_rho0_atom                 40  9.0    1.064    1.157    1.064    1.157
 yz_to_x                            163 14.1    0.090    0.139    0.806    1.148
 rs_pw_transfer_PW2RS_250            40 11.0    0.635    0.679    1.079    1.110
 mp_waitany                        4536 11.5    0.826    1.037    0.826    1.037
 grid_collocate_task_list            21  7.0    0.378    0.866    0.378    0.866
 put_rho0_on_grid                    20  9.0    0.011    0.019    0.856    0.866
 mp_alltoall_d11v                   488 11.6    0.665    0.753    0.665    0.753
 xc_functional_eval                 100 10.9    0.000    0.001    0.566    0.750
 pbe_lda_eval                       100 11.9    0.566    0.750    0.566    0.750
 rs_gather_matrices                  20 10.0    0.000    0.005    0.646    0.734
 grid_integrate_task_list            20 10.0    0.087    0.731    0.087    0.731
 x_to_yz                            161 14.6    0.118    0.157    0.674    0.726
 mp_sum_dv                          514 12.9    0.314    0.689    0.314    0.689
 mp_waitall_1                     44746 13.9    0.571    0.648    0.571    0.648
 mp_sum_dm                          248  7.6    0.576    0.601    0.576    0.601
 dbcsr_multiply_generic             482 10.1    0.014    0.015    0.576    0.589
 qs_scf_new_mos                      20  5.0    0.000    0.000    0.574    0.577
 qs_scf_loop_do_ot                   20  6.0    0.000    0.000    0.574    0.577
 ot_scf_mini                         20  7.0    0.000    0.000    0.552    0.555
 ot_mini                             20  8.0    0.000    0.000    0.353    0.357
 rs_pw_transfer_PW2RS_90             20 12.0    0.073    0.085    0.280    0.299
 -------------------------------------------------------------------------------

 The number of warnings for this run is : 1
 
 -------------------------------------------------------------------------------
  **** **** ******  **  PROGRAM ENDED AT                 2022-05-11 21:55:12.691
 ***** ** ***  *** **   PROGRAM RAN ON                                   tcopt10
 **    ****   ******    PROGRAM RAN BY                                    hutter
 ***** **    ** ** **   PROGRAM PROCESS ID                                 41863
  **** **  *******  **  PROGRAM STOPPED IN /data/hutter/GITHUB/BASIS/scMOLOPT/PB
                                           E/alsipscl
