 DBCSR| CPU Multiplication driver                                           XSMM
 DBCSR| Multrec recursion limit                                              512
 DBCSR| Multiplication stack size                                           1000
 DBCSR| Maximum elements for images                                    UNLIMITED
 DBCSR| Multiplicative factor virtual images                                   1
 DBCSR| Use multiplication densification                                       T
 DBCSR| Multiplication size stacks                                             3
 DBCSR| Use memory pool for CPU allocation                                     F
 DBCSR| Number of 3D layers                                               SINGLE
 DBCSR| Use MPI memory allocation                                              F
 DBCSR| Use RMA algorithm                                                      F
 DBCSR| Use Communication thread                                               T
 DBCSR| Communication thread load                                             87
 DBCSR| MPI: My node id                                                        0
 DBCSR| MPI: Number of nodes                                                  48
 DBCSR| OMP: Current number of threads                                         1
 DBCSR| OMP: Max number of threads                                             1
 DBCSR| Split modifier for TAS multiplication algorithm                  1.0E+00


  **** **** ******  **  PROGRAM STARTED AT               2022-05-11 21:55:12.968
 ***** ** ***  *** **   PROGRAM STARTED ON                               tcopt10
 **    ****   ******    PROGRAM STARTED BY                                hutter
 ***** **    ** ** **   PROGRAM PROCESS ID                                 42031
  **** **  *******  **  PROGRAM STARTED IN /data/hutter/GITHUB/BASIS/scMOLOPT/PB
                                           E/alsipscl

 CP2K| version string:                   CP2K version 10.0 (Development Version)
 CP2K| source code revision number:                                  git:13fcfd8
 CP2K| cp2kflags: omp libint fftw3 libxc elpa parallel mpi3 scalapack cosma xsmm
 CP2K|             spglib sirius libvori libbqb
 CP2K| is freely available from                            https://www.cp2k.org/
 CP2K| Program compiled at                      Tue 10 May 2022 02:27:21 PM CEST
 CP2K| Program compiled on                                               tcopt10
 CP2K| Program compiled for                                                local
 CP2K| Data directory path                   /data/hutter/GITHUB/TDLRI/cp2k/data
 CP2K| Input file name                                              AlH3-ref.inp

 GLOBAL| Force Environment number                                              1
 GLOBAL| Basis set file name                                        ../def2QZVPP
 GLOBAL| Potential file name                                        ../POTENTIAL
 GLOBAL| MM Potential file name                                     MM_POTENTIAL
 GLOBAL| Coordinate file name                                      __STD_INPUT__
 GLOBAL| Method name                                                        CP2K
 GLOBAL| Project name                                                    refAlH3
 GLOBAL| Run type                                                         ENERGY
 GLOBAL| FFT library                                                       FFTW3
 GLOBAL| Diagonalization library                                       ScaLAPACK
 GLOBAL| Orthonormality check for eigenvectors                          DISABLED
 GLOBAL| Matrix multiplication library                                     COSMA
 GLOBAL| All-to-all communication in single precision                          F
 GLOBAL| FFTs using library dependent lengths                                  F
 GLOBAL| Grid backend                                                       AUTO
 GLOBAL| Global print level                                                  LOW
 GLOBAL| MPI I/O enabled                                                       T
 GLOBAL| Total number of message passing processes                            48
 GLOBAL| Number of threads for this process                                    1
 GLOBAL| This output is from process                                           0
 GLOBAL| Stack size for threads created by OpenMP (OMP_STACKSIZE)        default
 GLOBAL| CPU model name                          AMD EPYC 7401 24-Core Processor
 GLOBAL| CPUID                                                              1002

 MEMORY| system memory details [Kb]
 MEMORY|                        rank 0           min           max       average
 MEMORY| MemTotal            263969136     263969136     263969136     263969136
 MEMORY| MemFree             237881320     237881320     237881320     237881320
 MEMORY| Buffers                   136           136           136           136
 MEMORY| Cached               18902376      18902376      18902376      18902376
 MEMORY| Slab                  1430368       1430368       1430368       1430368
 MEMORY| SReclaimable           876444        876444        876444        876444
 MEMORY| MemLikelyFree       257660276     257660276     257660276     257660276


 GENERATE|  Preliminary Number of Bonds generated:                             2
 GENERATE|  Achieved consistency in connectivity generation.
 GENERATE|  Number of Bonds generated:                                         2
 GENERATE|  Preliminary Number of Bends generated:                             1
 GENERATE|  Number of Bends generated:                                         1
 GENERATE|  Number of UB generated:                                            1
 GENERATE|  Preliminary Number of Torsions generated:                          0

 *******************************************************************************
 *******************************************************************************
 **                                                                           **
 **     #####                         ##              ##                      **
 **    ##   ##            ##          ##              ##                      **
 **   ##     ##                       ##            ######                    **
 **   ##     ##  ##   ##  ##   #####  ##  ##   ####   ##    #####    #####    **
 **   ##     ##  ##   ##  ##  ##      ## ##   ##      ##   ##   ##  ##   ##   **
 **   ##  ## ##  ##   ##  ##  ##      ####     ###    ##   ######   ######    **
 **    ##  ###   ##   ##  ##  ##      ## ##      ##   ##   ##       ##        **
 **     #######   #####   ##   #####  ##  ##  ####    ##    #####   ##        **
 **           ##                                                    ##        **
 **                                                                           **
 **                                                ... make the atoms dance   **
 **                                                                           **
 **            Copyright (C) by CP2K developers group (2000-2022)             **
 **                      J. Chem. Phys. 152, 194103 (2020)                    **
 **                                                                           **
 *******************************************************************************


 TOTAL NUMBERS AND MAXIMUM NUMBERS

  Total number of            - Atomic kinds:                                   2
                             - Atoms:                                          4
                             - Shell sets:                                    52
                             - Shells:                                        52
                             - Primitive Cartesian functions:                 80
                             - Cartesian basis functions:                    191
                             - Spherical basis functions:                    160

  Maximum angular momentum of the orbital basis functions:                     4


 SCF PARAMETERS         Density guess:                                    ATOMIC
                        --------------------------------------------------------
                        max_scf:                                              10
                        max_scf_history:                                       0
                        max_diis:                                              4
                        --------------------------------------------------------
                        eps_scf:                                        1.00E-07
                        eps_scf_history:                                0.00E+00
                        eps_diis:                                       1.00E-01
                        eps_eigval:                                     1.00E-05
                        --------------------------------------------------------
                        level_shift [a.u.]:                             0.000000
                        --------------------------------------------------------
                        Outer loop SCF in use 
                        No variables optimised in outer loop
                        eps_scf                                         1.00E-07
                        max_scf                                               10
                        No outer loop optimization
                        step_size                                       5.00E-01

 Number of electrons:                                                         16
 Number of occupied orbitals:                                                  8
 Number of molecular orbitals:                                                 8

 Number of orbital functions:                                                160
 Number of independent orbital functions:                                    160

 Extrapolation method: initial_guess


 SCF WAVEFUNCTION OPTIMIZATION

  ----------------------------------- OT ---------------------------------------
  Minimizer      : DIIS                : direct inversion
                                         in the iterative subspace
                                         using   7 DIIS vectors
                                         safer DIIS on
  Preconditioner : FULL_ALL            : diagonalization, state selective
  Precond_solver : DEFAULT
  stepsize       :    0.15000000                  energy_gap     :    0.08000000
  eps_taylor     :   0.10000E-15                  max_taylor     :             4
  ----------------------------------- OT ---------------------------------------

  Step     Update method      Time    Convergence         Total energy    Change
  ------------------------------------------------------------------------------
     1 OT DIIS     0.15E+00    0.5     0.07048343      -243.3002747322 -2.43E+02
     2 OT DIIS     0.15E+00    0.6     0.02640330      -243.9390679356 -6.39E-01
     3 OT DIIS     0.15E+00    0.6     0.00596022      -244.0496312245 -1.11E-01
     4 OT DIIS     0.15E+00    0.6     0.00326384      -244.0555976602 -5.97E-03
     5 OT DIIS     0.15E+00    0.6     0.00143468      -244.0586137861 -3.02E-03
     6 OT DIIS     0.15E+00    0.6     0.00050745      -244.0592999136 -6.86E-04
     7 OT DIIS     0.15E+00    0.6     0.00030319      -244.0593634816 -6.36E-05
     8 OT DIIS     0.15E+00    0.6     0.00014338      -244.0594010070 -3.75E-05
     9 OT DIIS     0.15E+00    0.6     0.00008525      -244.0594082257 -7.22E-06
    10 OT DIIS     0.15E+00    0.6     0.00003273      -244.0594115337 -3.31E-06

  Leaving inner SCF loop after reaching    10 steps.


  Electronic density on regular grids:        -10.8892782245        5.1107217755
  Core density on regular grids:               16.0000000000       -0.0000000000
  Hard and soft densities (Lebedev):          -26.2959667235      -21.1852449343
  Total Rho_soft + Rho1_hard - Rho1_soft      -16.0000000137
  Total charge density (r-space):              -0.0000000137
  Total Rho_soft + Rho0_soft (g-space):        -0.0000000348

  Overlap energy of the core charge distribution:               0.00000001083824
  Self energy of the core charge distribution:               -110.17368812057575
  Core Hamiltonian energy:                                   -131.63602085773559
  Hartree energy:                                              31.81128339318356
  Exchange-correlation energy:                                 -5.95658488779168

  GAPW| Exc from hard and soft atomic rho1:                   -13.60132881539122
  GAPW| local Eh = 1 center integrals:                        -14.50307225626458

  Total energy:                                              -244.05941153373703

  outer SCF iter =    1 RMS gradient =   0.33E-04 energy =       -244.0594115337

  ----------------------------------- OT ---------------------------------------
  Minimizer      : DIIS                : direct inversion
                                         in the iterative subspace
                                         using   7 DIIS vectors
                                         safer DIIS on
  Preconditioner : FULL_ALL            : diagonalization, state selective
  Precond_solver : DEFAULT
  stepsize       :    0.15000000                  energy_gap     :    0.08000000
  eps_taylor     :   0.10000E-15                  max_taylor     :             4
  ----------------------------------- OT ---------------------------------------

  Step     Update method      Time    Convergence         Total energy    Change
  ------------------------------------------------------------------------------
     1 OT DIIS     0.15E+00    1.2     0.00001936      -244.0594119279 -3.94E-07
     2 OT DIIS     0.15E+00    0.6     0.00000755      -244.0594119776 -4.97E-08
     3 OT DIIS     0.15E+00    0.6     0.00000061      -244.0594119869 -9.22E-09
     4 OT DIIS     0.15E+00    0.6     0.00000011      -244.0594119871 -2.24E-10
     5 OT DIIS     0.15E+00    0.6     0.00000003      -244.0594119872 -1.01E-10

  *** SCF run converged in     5 steps ***


  Electronic density on regular grids:        -10.8892568910        5.1107431090
  Core density on regular grids:               16.0000000000       -0.0000000000
  Hard and soft densities (Lebedev):          -26.2935368114      -21.1827936887
  Total Rho_soft + Rho1_hard - Rho1_soft      -16.0000000137
  Total charge density (r-space):              -0.0000000137
  Total Rho_soft + Rho0_soft (g-space):        -0.0000000348

  Overlap energy of the core charge distribution:               0.00000001083824
  Self energy of the core charge distribution:               -110.17368812057575
  Core Hamiltonian energy:                                   -131.63593803222443
  Hartree energy:                                              31.81114559749637
  Exchange-correlation energy:                                 -5.95663093260623

  GAPW| Exc from hard and soft atomic rho1:                   -13.60136473648227
  GAPW| local Eh = 1 center integrals:                        -14.50293577363102

  Total energy:                                              -244.05941198718509

  outer SCF iter =    2 RMS gradient =   0.31E-07 energy =       -244.0594119872
  outer SCF loop converged in   2 iterations or   15 steps


 ENERGY| Total FORCE_EVAL ( QS ) energy [a.u.]:             -244.059411987185086

 -------------------------------------------------------------------------------
 -                                                                             -
 -                                DBCSR STATISTICS                             -
 -                                                                             -
 -------------------------------------------------------------------------------
 COUNTER                                    TOTAL       BLAS       SMM       ACC
 flops     8 x     8 x     8                91136       0.0%    100.0%      0.0%
 flops    70 x    30 x     8               537600       0.0%    100.0%      0.0%
 flops     8 x     8 x    70               555520       0.0%    100.0%      0.0%
 flops    30 x     8 x     8               591360       0.0%    100.0%      0.0%
 flops     8 x     8 x    30               714240       0.0%    100.0%      0.0%
 flops   100 x     8 x     8               985600       0.0%    100.0%      0.0%
 flops    30 x    70 x     8              1075200       0.0%    100.0%      0.0%
 flops    70 x    70 x     8              1254400       0.0%    100.0%      0.0%
 flops    30 x    30 x     8              1382400       0.0%    100.0%      0.0%
 flops    70 x     8 x    70              3449600       0.0%    100.0%      0.0%
 flops   100 x     8 x    70              3808000       0.0%    100.0%      0.0%
 flops    70 x     8 x    30              4435200       0.0%    100.0%      0.0%
 flops   100 x     8 x    30              4896000       0.0%    100.0%      0.0%
 flops    30 x     8 x    70              6720000       0.0%    100.0%      0.0%
 flops    30 x     8 x    30              8640000       0.0%    100.0%      0.0%
 flops inhomo. stacks                           0       0.0%      0.0%      0.0%
 flops total                        39.136256E+06       0.0%    100.0%      0.0%
 flops max/rank                     24.106496E+06       0.0%    100.0%      0.0%
 matmuls inhomo. stacks                         0       0.0%      0.0%      0.0%
 matmuls total                               1840       0.0%    100.0%      0.0%
 number of processed stacks                  1840       0.0%    100.0%      0.0%
 average stack size                                     0.0       1.0       0.0
 marketing flops                    41.481232E+06
 -------------------------------------------------------------------------------
 # multiplications                            324
 max memory usage/rank             324.882432E+06
 # max total images/rank                        3
 # max 3D layers                                1
 # MPI messages exchanged                  311040
 MPI messages size (bytes):
  total size                       198.726144E+06
  min size                           0.000000E+00
  max size                          56.000000E+03
  average size                     638.908630E+00
 MPI breakdown and total messages size (bytes):
             size <=      128              291598                        0
       128 < size <=     8192               14294                 60073344
      8192 < size <=    32768                4290                 90604800
     32768 < size <=   131072                 858                 48048000
    131072 < size <=  4194304                   0                        0
   4194304 < size <= 16777216                   0                        0
  16777216 < size                               0                        0
 -------------------------------------------------------------------------------

 *** WARNING in dbcsr_mm.F:290 :: Using a non-square number of MPI ranks ***
 *** might lead to poor performance. Used ranks: 48 Suggested: 49 100    ***

 -------------------------------------------------------------------------------
 -                                                                             -
 -                      DBCSR MESSAGE PASSING PERFORMANCE                      -
 -                                                                             -
 -------------------------------------------------------------------------------
 ROUTINE             CALLS      AVE VOLUME [Bytes]
 MP_Bcast               16                     12.
 MP_Allreduce         1734                      8.
 MP_Alltoall          1430                   5337.
 MP_ISend            14526                   1025.
 MP_IRecv            14282                    536.
 -------------------------------------------------------------------------------

 -------------------------------------------------------------------------------
 -                                                                             -
 -                                GRID STATISTICS                              -
 -                                                                             -
 -------------------------------------------------------------------------------
 LP    KERNEL             BACKEND                              COUNT     PERCENT
 2     collocate ortho    REF                                  10832      12.54%
 2     integrate ortho    REF                                  10155      11.75%
 1     collocate ortho    REF                                   9808      11.35%
 1     integrate ortho    REF                                   9195      10.64%
 3     collocate ortho    REF                                   8256       9.56%
 3     integrate ortho    REF                                   7740       8.96%
 0     collocate ortho    REF                                   5216       6.04%
 0     integrate ortho    REF                                   4890       5.66%
 4     collocate ortho    REF                                   4832       5.59%
 4     integrate ortho    REF                                   4530       5.24%
 2     collocate general  REF                                   2880       3.33%
 2     integrate general  REF                                   2880       3.33%
 5     collocate ortho    REF                                   1776       2.06%
 5     integrate ortho    REF                                   1665       1.93%
 6     collocate ortho    REF                                    768       0.89%
 6     integrate ortho    REF                                    720       0.83%
 7     collocate ortho    REF                                    112       0.13%
 7     integrate ortho    REF                                    105       0.12%
 8     collocate ortho    REF                                     16       0.02%
 8     integrate ortho    REF                                     15       0.02%
 -------------------------------------------------------------------------------

 MEMORY| Estimated peak process memory [MiB]                                 310

 -------------------------------------------------------------------------------
 -                                                                             -
 -                         MESSAGE PASSING PERFORMANCE                         -
 -                                                                             -
 -------------------------------------------------------------------------------

 ROUTINE             CALLS      AVE VOLUME [Bytes]
 MP_Group                4
 MP_Bcast              352                 439609.
 MP_Allreduce         1219                  59761.
 MP_Sync                36
 MP_Alltoall           350                3544465.
 MP_ISendRecv         4371                  66752.
 MP_Wait              8092
 MP_comm_split          16
 MP_ISend             3416                 159469.
 MP_IRecv             3416                 159416.
 MP_Recv                 7                   1280.
 -------------------------------------------------------------------------------


 -------------------------------------------------------------------------------
 -                                                                             -
 -                           R E F E R E N C E S                               -
 -                                                                             -
 -------------------------------------------------------------------------------
 
 CP2K version 10.0 (Development Version), the CP2K developers group (2022).
 CP2K is freely available from https://www.cp2k.org/ .

 Kuehne,Thomas D.; Iannuzzi,Marcella; Del Ben,Mauro;
 Rybkin,Vladimir V.; Seewald,Patrick; Stein,Frederick; Laino,Teodoro;
 Khaliullin,Rustam Z.; Schuett,Ole; Schiffmann,Florian; Golze,Dorothea;
 Wilhelm,Jan; Chulkov,Sergey; Bani-Hashemian,Mohammad Hossein;
 Weber,Valery; Borstnik,Urban; Taillefumier,Mathieu;
 Jakobovits,Alice Shoshana; Lazzaro,Alfio; Pabst,Hans; Mueller,Tiziano;
 Schade,Robert; Guidon,Manuel; Andermatt,Samuel; Holmberg,Nico;
 Schenter,Gregory K.; Hehn,Anna; Bussy,Augustin; Belleflamme,Fabian;
 Tabacchi,Gloria; Gloess,Andreas; Lass,Michael; Bethune,Iain;
 Mundy,Christopher J.; Plessl,Christian; Watkins,Matt;
 VandeVondele,Joost; Krack,Matthias; Hutter,Juerg. 
 The Journal of Chemical Physics, 152 (19), (2020). 
 CP2K: An electronic structure and molecular dynamics software package -
 Quickstep: Efficient and accurate electronic structure calculations.
 https://doi.org/10.1063/5.0007045

 Schuett, Ole; Messmer, Peter; Hutter, Juerg; VandeVondele, Joost. 
 Electronic Structure Calculations on Graphics Processing Units, John
 Wiley & Sons, Ltd, 173-190 (2016). 
 GPU-Accelerated Sparse Matrix-Matrix Multiplication for
 Linear Scaling Density Functional Theory.
 https://doi.org/10.1002/9781118670712.ch8

 Heinecke, A; Henry, G; Hutchinson, M; Pabst, H. 
 Proceedings of Intl. Supercomputing Conference, 981-991 (2016). 
 LIBXSMM: Accelerating Small Matrix Multiplications
 by Runtime Code Generation.
 https://doi.org/10.1109/SC.2016.83

 Borstnik, U; VandeVondele, J; Weber, V; Hutter, J. 
 PARALLEL COMPUTING, 40 (5-6), 47-58 (2014). 
 Sparse matrix multiplication: The distributed block-compressed sparse
 row library.
 https://doi.org/10.1016/j.parco.2014.03.012

 Hutter, J; Iannuzzi, M; Schiffmann, F; VandeVondele, J. 
 WIREs Comput Mol Sci., 4 (1), 15-25 (2014). 
 CP2K: atomistic simulations of condensed matter systems.
 https://doi.org/10.1002/wcms.1159

 Frigo, M; Johnson, SG. 
 PROCEEDINGS OF THE IEEE, 93 (2), 216-231 (2005). 
 The design and implementation of FFTW3.
 https://doi.org/10.1109/JPROC.2004.840301

 VandeVondele, J; Hutter, J. 
 JOURNAL OF CHEMICAL PHYSICS, 118 (10), 4365-4369 (2003). 
 An efficient orbital transformation method for electronic structure
 calculations.
 https://doi.org/10.1063/1.1543154

 Lippert, G; Hutter, J; Parrinello, M. 
 THEORETICAL CHEMISTRY ACCOUNTS, 103 (2), 124-140 (1999). 
 The Gaussian and augmented-plane-wave density functional method for ab
 initio molecular dynamics simulations.
 https://doi.org/10.1007/s002140050523

 Krack, M; Parrinello, M. 
 PHYSICAL CHEMISTRY CHEMICAL PHYSICS, 2 (10), 2105-2112 (2000). 
 All-electron ab-initio molecular dynamics.
 https://doi.org/10.1039/b001167n

 Perdew, JP; Burke, K; Ernzerhof, M. 
 PHYSICAL REVIEW LETTERS, 77 (18), 3865-3868 (1996). 
 Generalized gradient approximation made simple.
 https://doi.org/10.1103/PhysRevLett.77.3865


 -------------------------------------------------------------------------------
 -                                                                             -
 -                                T I M I N G                                  -
 -                                                                             -
 -------------------------------------------------------------------------------
 SUBROUTINE                       CALLS  ASD         SELF TIME        TOTAL TIME
                                MAXIMUM       AVERAGE  MAXIMUM  AVERAGE  MAXIMUM
 CP2K                                 1  1.0    0.007    0.031    9.447    9.448
 qs_energies                          1  2.0    0.000    0.000    9.271    9.272
 scf_env_do_scf                       1  3.0    0.000    0.000    8.990    8.990
 scf_env_do_scf_inner_loop           15  4.0    0.000    0.001    8.003    8.004
 qs_ks_update_qs_env                 17  5.0    0.000    0.000    7.061    7.062
 rebuild_ks_matrix                   15  6.0    0.000    0.000    7.060    7.060
 qs_ks_build_kohn_sham_matrix        15  7.0    0.003    0.004    7.060    7.060
 pw_transfer                        320 10.1    0.031    0.037    2.620    2.794
 fft_wrap_pw1pw2                    275 11.2    0.003    0.004    2.570    2.746
 fft_wrap_pw1pw2_250                182 12.6    0.145    0.179    2.429    2.614
 fft3d_ps                           275 13.2    0.907    1.189    2.120    2.303
 rs_pw_transfer                     154  9.5    0.004    0.004    2.167    2.261
 qs_vxc_create                       15  8.0    0.000    0.000    2.113    2.113
 xc_vxc_pw_create                    15  9.0    0.013    0.016    2.113    2.113
 qs_rho_update_rho                   16  5.0    0.000    0.000    1.601    1.601
 xc_pw_derive                        90 11.0    0.001    0.001    1.392    1.600
 calculate_rho_elec                  16  6.0    0.006    0.008    1.550    1.550
 prepare_gapw_den                    15  8.0    0.000    0.001    1.544    1.550
 mp_alltoall_z22v                   275 15.2    1.035    1.391    1.035    1.391
 mp_sum_d                           849  5.4    1.243    1.312    1.243    1.312
 xc_rho_set_and_dset_create          15 10.0    0.015    0.020    1.113    1.271
 density_rs2pw                       16  7.0    0.001    0.001    1.166    1.249
 sum_up_and_integrate                15  8.0    0.005    0.007    1.165    1.169
 integrate_v_rspace                  15  9.0    0.000    0.000    1.160    1.165
 xc_pw_divergence                    15 10.0    0.000    0.001    0.943    1.152
 init_scf_loop                        2  4.0    0.000    0.000    0.986    0.986
 calculate_vxc_atom                  15  8.0    0.008    0.095    0.964    0.964
 potential_pw2rs                     15 10.0    0.001    0.001    0.960    0.961
 yz_to_x                            123 14.1    0.067    0.107    0.633    0.916
 rs_pw_transfer_RS2PW_250            31 10.0    0.484    0.542    0.775    0.880
 rs_pw_transfer_PW2RS_250            30 11.0    0.478    0.518    0.806    0.831
 gaVxcgb_GC                          30  9.0    0.020    0.810    0.020    0.810
 calculate_rho_atom                  30  9.0    0.290    0.774    0.290    0.774
 integrate_vhg0_rspace               15  8.0    0.071    0.103    0.771    0.772
 put_rho0_on_grid                    15  9.0    0.008    0.012    0.648    0.655
 x_to_yz                            121 14.6    0.088    0.117    0.555    0.599
 mp_waitany                        3416 11.5    0.465    0.580    0.465    0.580
 xc_functional_eval                  75 10.9    0.000    0.000    0.422    0.559
 pbe_lda_eval                        75 11.9    0.422    0.559    0.422    0.559
 calculate_rho0_atom                 30  9.0    0.465    0.490    0.465    0.490
 mp_waitall_1                     30596 13.7    0.420    0.479    0.420    0.479
 grid_collocate_task_list            16  7.0    0.280    0.450    0.280    0.450
 dbcsr_multiply_generic             324 10.0    0.010    0.010    0.347    0.352
 qs_scf_new_mos                      15  5.0    0.000    0.000    0.340    0.341
 qs_scf_loop_do_ot                   15  6.0    0.000    0.000    0.340    0.340
 ot_scf_mini                         15  7.0    0.000    0.000    0.323    0.324
 mp_sum_dm                          188  7.6    0.286    0.299    0.286    0.299
 mp_sum_dv                          306 12.8    0.140    0.262    0.140    0.262
 rs_pw_transfer_PW2RS_90             15 12.0    0.057    0.069    0.212    0.223
 mp_alltoall_d11v                   397 11.4    0.164    0.215    0.164    0.215
 ot_mini                             15  8.0    0.000    0.000    0.210    0.211
 rs_grid_zero                        60 10.8    0.192    0.203    0.192    0.203
 rs_gather_matrices                  15 10.0    0.000    0.004    0.148    0.200
 rs_pw_transfer_RS2PW_90             16  9.0    0.047    0.053    0.192    0.199
 grid_integrate_task_list            15 10.0    0.051    0.199    0.051    0.199
 -------------------------------------------------------------------------------

 The number of warnings for this run is : 1
 
 -------------------------------------------------------------------------------
  **** **** ******  **  PROGRAM ENDED AT                 2022-05-11 21:55:22.840
 ***** ** ***  *** **   PROGRAM RAN ON                                   tcopt10
 **    ****   ******    PROGRAM RAN BY                                    hutter
 ***** **    ** ** **   PROGRAM PROCESS ID                                 42031
  **** **  *******  **  PROGRAM STOPPED IN /data/hutter/GITHUB/BASIS/scMOLOPT/PB
                                           E/alsipscl
