 DBCSR| CPU Multiplication driver                                           XSMM
 DBCSR| Multrec recursion limit                                              512
 DBCSR| Multiplication stack size                                           1000
 DBCSR| Maximum elements for images                                    UNLIMITED
 DBCSR| Multiplicative factor virtual images                                   1
 DBCSR| Use multiplication densification                                       T
 DBCSR| Multiplication size stacks                                             3
 DBCSR| Use memory pool for CPU allocation                                     F
 DBCSR| Number of 3D layers                                               SINGLE
 DBCSR| Use MPI memory allocation                                              F
 DBCSR| Use RMA algorithm                                                      F
 DBCSR| Use Communication thread                                               T
 DBCSR| Communication thread load                                             87
 DBCSR| MPI: My node id                                                        0
 DBCSR| MPI: Number of nodes                                                  48
 DBCSR| OMP: Current number of threads                                         1
 DBCSR| OMP: Max number of threads                                             1
 DBCSR| Split modifier for TAS multiplication algorithm                  1.0E+00


  **** **** ******  **  PROGRAM STARTED AT               2022-05-11 21:57:07.729
 ***** ** ***  *** **   PROGRAM STARTED ON                               tcopt10
 **    ****   ******    PROGRAM STARTED BY                                hutter
 ***** **    ** ** **   PROGRAM PROCESS ID                                 42784
  **** **  *******  **  PROGRAM STARTED IN /data/hutter/GITHUB/BASIS/scMOLOPT/PB
                                           E/alsipscl

 CP2K| version string:                   CP2K version 10.0 (Development Version)
 CP2K| source code revision number:                                  git:13fcfd8
 CP2K| cp2kflags: omp libint fftw3 libxc elpa parallel mpi3 scalapack cosma xsmm
 CP2K|             spglib sirius libvori libbqb
 CP2K| is freely available from                            https://www.cp2k.org/
 CP2K| Program compiled at                      Tue 10 May 2022 02:27:21 PM CEST
 CP2K| Program compiled on                                               tcopt10
 CP2K| Program compiled for                                                local
 CP2K| Data directory path                   /data/hutter/GITHUB/TDLRI/cp2k/data
 CP2K| Input file name                                               ClF-ref.inp

 GLOBAL| Force Environment number                                              1
 GLOBAL| Basis set file name                                        ../def2QZVPP
 GLOBAL| Potential file name                                        ../POTENTIAL
 GLOBAL| MM Potential file name                                     MM_POTENTIAL
 GLOBAL| Coordinate file name                                      __STD_INPUT__
 GLOBAL| Method name                                                        CP2K
 GLOBAL| Project name                                                     refClF
 GLOBAL| Run type                                                         ENERGY
 GLOBAL| FFT library                                                       FFTW3
 GLOBAL| Diagonalization library                                       ScaLAPACK
 GLOBAL| Orthonormality check for eigenvectors                          DISABLED
 GLOBAL| Matrix multiplication library                                     COSMA
 GLOBAL| All-to-all communication in single precision                          F
 GLOBAL| FFTs using library dependent lengths                                  F
 GLOBAL| Grid backend                                                       AUTO
 GLOBAL| Global print level                                                  LOW
 GLOBAL| MPI I/O enabled                                                       T
 GLOBAL| Total number of message passing processes                            48
 GLOBAL| Number of threads for this process                                    1
 GLOBAL| This output is from process                                           0
 GLOBAL| Stack size for threads created by OpenMP (OMP_STACKSIZE)        default
 GLOBAL| CPU model name                          AMD EPYC 7401 24-Core Processor
 GLOBAL| CPUID                                                              1002

 MEMORY| system memory details [Kb]
 MEMORY|                        rank 0           min           max       average
 MEMORY| MemTotal            263969136     263969136     263969136     263969136
 MEMORY| MemFree             237890488     237890488     237890488     237890488
 MEMORY| Buffers                   136           136           136           136
 MEMORY| Cached               18901720      18901720      18901720      18901720
 MEMORY| Slab                  1433308       1433308       1433308       1433308
 MEMORY| SReclaimable           876508        876508        876508        876508
 MEMORY| MemLikelyFree       257668852     257668852     257668852     257668852


 GENERATE|  Preliminary Number of Bonds generated:                             0
 GENERATE|  Achieved consistency in connectivity generation.

 *******************************************************************************
 *******************************************************************************
 **                                                                           **
 **     #####                         ##              ##                      **
 **    ##   ##            ##          ##              ##                      **
 **   ##     ##                       ##            ######                    **
 **   ##     ##  ##   ##  ##   #####  ##  ##   ####   ##    #####    #####    **
 **   ##     ##  ##   ##  ##  ##      ## ##   ##      ##   ##   ##  ##   ##   **
 **   ##  ## ##  ##   ##  ##  ##      ####     ###    ##   ######   ######    **
 **    ##  ###   ##   ##  ##  ##      ## ##      ##   ##   ##       ##        **
 **     #######   #####   ##   #####  ##  ##  ####    ##    #####   ##        **
 **           ##                                                    ##        **
 **                                                                           **
 **                                                ... make the atoms dance   **
 **                                                                           **
 **            Copyright (C) by CP2K developers group (2000-2022)             **
 **                      J. Chem. Phys. 152, 194103 (2020)                    **
 **                                                                           **
 *******************************************************************************


 TOTAL NUMBERS AND MAXIMUM NUMBERS

  Total number of            - Atomic kinds:                                   2
                             - Atoms:                                          2
                             - Shell sets:                                    39
                             - Shells:                                        39
                             - Primitive Cartesian functions:                 70
                             - Cartesian basis functions:                    158
                             - Spherical basis functions:                    127

  Maximum angular momentum of the orbital basis functions:                     4


 SCF PARAMETERS         Density guess:                                    ATOMIC
                        --------------------------------------------------------
                        max_scf:                                              10
                        max_scf_history:                                       0
                        max_diis:                                              4
                        --------------------------------------------------------
                        eps_scf:                                        1.00E-07
                        eps_scf_history:                                0.00E+00
                        eps_diis:                                       1.00E-01
                        eps_eigval:                                     1.00E-05
                        --------------------------------------------------------
                        level_shift [a.u.]:                             0.000000
                        --------------------------------------------------------
                        Outer loop SCF in use 
                        No variables optimised in outer loop
                        eps_scf                                         1.00E-07
                        max_scf                                               10
                        No outer loop optimization
                        step_size                                       5.00E-01

 Number of electrons:                                                         26
 Number of occupied orbitals:                                                 13
 Number of molecular orbitals:                                                13

 Number of orbital functions:                                                127
 Number of independent orbital functions:                                    127

 Extrapolation method: initial_guess


 SCF WAVEFUNCTION OPTIMIZATION

  ----------------------------------- OT ---------------------------------------
  Minimizer      : DIIS                : direct inversion
                                         in the iterative subspace
                                         using   7 DIIS vectors
                                         safer DIIS on
  Preconditioner : FULL_ALL            : diagonalization, state selective
  Precond_solver : DEFAULT
  stepsize       :    0.15000000                  energy_gap     :    0.08000000
  eps_taylor     :   0.10000E-15                  max_taylor     :             4
  ----------------------------------- OT ---------------------------------------

  Step     Update method      Time    Convergence         Total energy    Change
  ------------------------------------------------------------------------------
     1 OT DIIS     0.15E+00    0.6     0.33629738      -536.7134432309 -5.37E+02
     2 OT DIIS     0.15E+00    0.7     0.12831207      -556.4133668359 -1.97E+01
     3 OT DIIS     0.15E+00    0.6     0.03759514      -558.8150631035 -2.40E+00
     4 OT DIIS     0.15E+00    0.6     0.02380254      -558.9709920516 -1.56E-01
     5 OT DIIS     0.15E+00    0.6     0.01664776      -559.0392745335 -6.83E-02
     6 OT DIIS     0.15E+00    0.6     0.00908666      -559.1229072222 -8.36E-02
     7 OT DIIS     0.15E+00    0.6     0.00799497      -559.1693605558 -4.65E-02
     8 OT DIIS     0.15E+00    0.6     0.00739864      -559.2366007166 -6.72E-02
     9 OT SD       0.15E+00    0.6     0.00664895      -559.3416290459 -1.05E-01
    10 OT DIIS     0.15E+00    0.6     0.00652101      -559.3524463503 -1.08E-02

  Leaving inner SCF loop after reaching    10 steps.


  Electronic density on regular grids:        -14.7011640055       11.2988359945
  Core density on regular grids:               26.0000000000        0.0000000000
  Hard and soft densities (Lebedev):          -27.6288940235      -16.3300568190
  Total Rho_soft + Rho1_hard - Rho1_soft      -26.0000012100
  Total charge density (r-space):              -0.0000012100
  Total Rho_soft + Rho0_soft (g-space):        -0.0000015083

  Overlap energy of the core charge distribution:               0.00000000042883
  Self energy of the core charge distribution:               -303.40581608150745
  Core Hamiltonian energy:                                   -270.03628721974218
  Hartree energy:                                              46.59458177052527
  Exchange-correlation energy:                                 -7.77898500281432

  GAPW| Exc from hard and soft atomic rho1:                   -30.54139064190176
  GAPW| local Eh = 1 center integrals:                          5.81545082475695

  Total energy:                                              -559.35244635025481

  outer SCF iter =    1 RMS gradient =   0.65E-02 energy =       -559.3524463503

  ----------------------------------- OT ---------------------------------------
  Minimizer      : DIIS                : direct inversion
                                         in the iterative subspace
                                         using   7 DIIS vectors
                                         safer DIIS on
  Preconditioner : FULL_ALL            : diagonalization, state selective
  Precond_solver : DEFAULT
  stepsize       :    0.15000000                  energy_gap     :    0.08000000
  eps_taylor     :   0.10000E-15                  max_taylor     :             4
  ----------------------------------- OT ---------------------------------------

  Step     Update method      Time    Convergence         Total energy    Change
  ------------------------------------------------------------------------------
     1 OT DIIS     0.15E+00    1.3     0.05697917      -559.3527494373 -3.03E-04
     2 OT DIIS     0.15E+00    0.6     0.06232066      -559.4492076817 -9.65E-02
     3 OT DIIS     0.15E+00    0.6     0.01725310      -559.7312366327 -2.82E-01
     4 OT DIIS     0.15E+00    0.6     0.02071675      -559.7435947457 -1.24E-02
     5 OT DIIS     0.15E+00    0.6     0.00541893      -559.7598781520 -1.63E-02
     6 OT DIIS     0.15E+00    0.6     0.00479416      -559.7620314186 -2.15E-03
     7 OT DIIS     0.15E+00    0.6     0.00298656      -559.7625944267 -5.63E-04
     8 OT DIIS     0.15E+00    0.6     0.00067356      -559.7632566753 -6.62E-04
     9 OT DIIS     0.15E+00    0.6     0.00017390      -559.7632909164 -3.42E-05
    10 OT DIIS     0.15E+00    0.6     0.00004453      -559.7632954536 -4.54E-06

  Leaving inner SCF loop after reaching    10 steps.


  Electronic density on regular grids:        -14.6715953910       11.3284046090
  Core density on regular grids:               26.0000000000        0.0000000000
  Hard and soft densities (Lebedev):          -27.6865302186      -16.3581244177
  Total Rho_soft + Rho1_hard - Rho1_soft      -26.0000011919
  Total charge density (r-space):              -0.0000011919
  Total Rho_soft + Rho0_soft (g-space):        -0.0000014904

  Overlap energy of the core charge distribution:               0.00000000042883
  Self energy of the core charge distribution:               -303.40581608150745
  Core Hamiltonian energy:                                   -270.44653258075704
  Hartree energy:                                              46.66643285781140
  Exchange-correlation energy:                                 -7.77721451027635

  GAPW| Exc from hard and soft atomic rho1:                   -30.55457403555764
  GAPW| local Eh = 1 center integrals:                          5.75440889624941

  Total energy:                                              -559.76329545360886

  outer SCF iter =    2 RMS gradient =   0.45E-04 energy =       -559.7632954536

  ----------------------------------- OT ---------------------------------------
  Minimizer      : DIIS                : direct inversion
                                         in the iterative subspace
                                         using   7 DIIS vectors
                                         safer DIIS on
  Preconditioner : FULL_ALL            : diagonalization, state selective
  Precond_solver : DEFAULT
  stepsize       :    0.15000000                  energy_gap     :    0.08000000
  eps_taylor     :   0.10000E-15                  max_taylor     :             4
  ----------------------------------- OT ---------------------------------------

  Step     Update method      Time    Convergence         Total energy    Change
  ------------------------------------------------------------------------------
     1 OT DIIS     0.15E+00    1.3     0.00001359      -559.7632959018 -4.48E-07
     2 OT DIIS     0.15E+00    0.6     0.00000530      -559.7632959317 -2.99E-08
     3 OT DIIS     0.15E+00    0.6     0.00000141      -559.7632959370 -5.29E-09
     4 OT DIIS     0.15E+00    0.6     0.00000012      -559.7632959373 -2.94E-10
     5 OT DIIS     0.15E+00    0.6     0.00000012      -559.7632959373 -6.06E-11
     6 OT DIIS     0.15E+00    0.6     0.00000002      -559.7632959373  2.96E-12

  *** SCF run converged in     6 steps ***


  Electronic density on regular grids:        -14.6715829624       11.3284170376
  Core density on regular grids:               26.0000000000        0.0000000000
  Hard and soft densities (Lebedev):          -27.6864429187      -16.3580246895
  Total Rho_soft + Rho1_hard - Rho1_soft      -26.0000011917
  Total charge density (r-space):              -0.0000011917
  Total Rho_soft + Rho0_soft (g-space):        -0.0000014902

  Overlap energy of the core charge distribution:               0.00000000042883
  Self energy of the core charge distribution:               -303.40581608150745
  Core Hamiltonian energy:                                   -270.44644402090876
  Hartree energy:                                              46.66639893123264
  Exchange-correlation energy:                                 -7.77721278598352

  GAPW| Exc from hard and soft atomic rho1:                   -30.55459036953668
  GAPW| local Eh = 1 center integrals:                          5.75436838894595

  Total energy:                                              -559.76329593732896

  outer SCF iter =    3 RMS gradient =   0.20E-07 energy =       -559.7632959373
  outer SCF loop converged in   3 iterations or   26 steps


 ENERGY| Total FORCE_EVAL ( QS ) energy [a.u.]:             -559.763295937328962

 -------------------------------------------------------------------------------
 -                                                                             -
 -                                DBCSR STATISTICS                             -
 -                                                                             -
 -------------------------------------------------------------------------------
 COUNTER                                    TOTAL       BLAS       SMM       ACC
 flops    13 x    13 x    13               764556       0.0%    100.0%      0.0%
 flops    13 x    13 x    57              2061462       0.0%    100.0%      0.0%
 flops    57 x    57 x    13              2280798       0.0%    100.0%      0.0%
 flops    13 x    13 x    70              2531620       0.0%    100.0%      0.0%
 flops    57 x    70 x    13              2800980       0.0%    100.0%      0.0%
 flops    70 x    70 x    13              3439800       0.0%    100.0%      0.0%
 flops   127 x    13 x    13              5709158       0.0%    100.0%      0.0%
 flops    57 x    13 x    57              6082128       0.0%    100.0%      0.0%
 flops    57 x    13 x    70              7469280       0.0%    100.0%      0.0%
 flops    70 x    13 x    57              7469280       0.0%    100.0%      0.0%
 flops    70 x    13 x    70              9172800       0.0%    100.0%      0.0%
 flops   127 x    13 x    57             10916412       0.0%    100.0%      0.0%
 flops   127 x    13 x    70             13406120       0.0%    100.0%      0.0%
 flops inhomo. stacks                           0       0.0%      0.0%      0.0%
 flops total                        74.104394E+06       0.0%    100.0%      0.0%
 flops max/rank                     71.823596E+06       0.0%    100.0%      0.0%
 matmuls inhomo. stacks                         0       0.0%      0.0%      0.0%
 matmuls total                               1006       0.0%    100.0%      0.0%
 number of processed stacks                  1006       0.0%    100.0%      0.0%
 average stack size                                     0.0       1.0       0.0
 marketing flops                    77.033960E+06
 -------------------------------------------------------------------------------
 # multiplications                            574
 max memory usage/rank             338.886656E+06
 # max total images/rank                        3
 # max 3D layers                                1
 # MPI messages exchanged                  551040
 MPI messages size (bytes):
  total size                       237.601312E+06
  min size                           0.000000E+00
  max size                          71.120000E+03
  average size                     431.187042E+00
 MPI breakdown and total messages size (bytes):
             size <=      128              539647                        0
       128 < size <=     8192                6773                 29839472
      8192 < size <=    32768                1760                 23246080
     32768 < size <=   131072                2860                184515760
    131072 < size <=  4194304                   0                        0
   4194304 < size <= 16777216                   0                        0
  16777216 < size                               0                        0
 -------------------------------------------------------------------------------

 *** WARNING in dbcsr_mm.F:290 :: Using a non-square number of MPI ranks ***
 *** might lead to poor performance. Used ranks: 48 Suggested: 49 100    ***

 -------------------------------------------------------------------------------
 -                                                                             -
 -                      DBCSR MESSAGE PASSING PERFORMANCE                      -
 -                                                                             -
 -------------------------------------------------------------------------------
 ROUTINE             CALLS      AVE VOLUME [Bytes]
 MP_Bcast               14                     12.
 MP_Allreduce         3044                      8.
 MP_Alltoall          2404                   5739.
 MP_ISend            25714                   1160.
 MP_IRecv            25302                    418.
 -------------------------------------------------------------------------------

 -------------------------------------------------------------------------------
 -                                                                             -
 -                                GRID STATISTICS                              -
 -                                                                             -
 -------------------------------------------------------------------------------
 LP    KERNEL             BACKEND                              COUNT     PERCENT
 2     collocate ortho    REF                                   3402       9.59%
 2     integrate ortho    REF                                   3276       9.24%
 3     collocate ortho    REF                                   2970       8.37%
 1     collocate ortho    REF                                   2943       8.30%
 3     integrate ortho    REF                                   2860       8.06%
 1     integrate ortho    REF                                   2834       7.99%
 4     collocate ortho    REF                                   2538       7.16%
 2     collocate general  REF                                   2496       7.04%
 2     integrate general  REF                                   2496       7.04%
 4     integrate ortho    REF                                   2444       6.89%
 5     collocate ortho    REF                                   1539       4.34%
 5     integrate ortho    REF                                   1482       4.18%
 0     collocate ortho    REF                                    999       2.82%
 0     integrate ortho    REF                                    962       2.71%
 6     collocate ortho    REF                                    729       2.06%
 6     integrate ortho    REF                                    702       1.98%
 7     collocate ortho    REF                                    324       0.91%
 7     integrate ortho    REF                                    312       0.88%
 8     collocate ortho    REF                                     81       0.23%
 8     integrate ortho    REF                                     78       0.22%
 -------------------------------------------------------------------------------

 MEMORY| Estimated peak process memory [MiB]                                 324

 -------------------------------------------------------------------------------
 -                                                                             -
 -                         MESSAGE PASSING PERFORMANCE                         -
 -                                                                             -
 -------------------------------------------------------------------------------

 ROUTINE             CALLS      AVE VOLUME [Bytes]
 MP_Group                4
 MP_Bcast              376                 421469.
 MP_Allreduce         1388                 106981.
 MP_Sync                62
 MP_Alltoall           592                1173982.
 MP_ISendRecv         7473                  66752.
 MP_Wait             13878
 MP_comm_split          29
 MP_ISend             5880                 159458.
 MP_IRecv             5880                 159427.
 MP_Recv                12                   2032.
 -------------------------------------------------------------------------------


 -------------------------------------------------------------------------------
 -                                                                             -
 -                           R E F E R E N C E S                               -
 -                                                                             -
 -------------------------------------------------------------------------------
 
 CP2K version 10.0 (Development Version), the CP2K developers group (2022).
 CP2K is freely available from https://www.cp2k.org/ .

 Kuehne,Thomas D.; Iannuzzi,Marcella; Del Ben,Mauro;
 Rybkin,Vladimir V.; Seewald,Patrick; Stein,Frederick; Laino,Teodoro;
 Khaliullin,Rustam Z.; Schuett,Ole; Schiffmann,Florian; Golze,Dorothea;
 Wilhelm,Jan; Chulkov,Sergey; Bani-Hashemian,Mohammad Hossein;
 Weber,Valery; Borstnik,Urban; Taillefumier,Mathieu;
 Jakobovits,Alice Shoshana; Lazzaro,Alfio; Pabst,Hans; Mueller,Tiziano;
 Schade,Robert; Guidon,Manuel; Andermatt,Samuel; Holmberg,Nico;
 Schenter,Gregory K.; Hehn,Anna; Bussy,Augustin; Belleflamme,Fabian;
 Tabacchi,Gloria; Gloess,Andreas; Lass,Michael; Bethune,Iain;
 Mundy,Christopher J.; Plessl,Christian; Watkins,Matt;
 VandeVondele,Joost; Krack,Matthias; Hutter,Juerg. 
 The Journal of Chemical Physics, 152 (19), (2020). 
 CP2K: An electronic structure and molecular dynamics software package -
 Quickstep: Efficient and accurate electronic structure calculations.
 https://doi.org/10.1063/5.0007045

 Schuett, Ole; Messmer, Peter; Hutter, Juerg; VandeVondele, Joost. 
 Electronic Structure Calculations on Graphics Processing Units, John
 Wiley & Sons, Ltd, 173-190 (2016). 
 GPU-Accelerated Sparse Matrix-Matrix Multiplication for
 Linear Scaling Density Functional Theory.
 https://doi.org/10.1002/9781118670712.ch8

 Heinecke, A; Henry, G; Hutchinson, M; Pabst, H. 
 Proceedings of Intl. Supercomputing Conference, 981-991 (2016). 
 LIBXSMM: Accelerating Small Matrix Multiplications
 by Runtime Code Generation.
 https://doi.org/10.1109/SC.2016.83

 Borstnik, U; VandeVondele, J; Weber, V; Hutter, J. 
 PARALLEL COMPUTING, 40 (5-6), 47-58 (2014). 
 Sparse matrix multiplication: The distributed block-compressed sparse
 row library.
 https://doi.org/10.1016/j.parco.2014.03.012

 Hutter, J; Iannuzzi, M; Schiffmann, F; VandeVondele, J. 
 WIREs Comput Mol Sci., 4 (1), 15-25 (2014). 
 CP2K: atomistic simulations of condensed matter systems.
 https://doi.org/10.1002/wcms.1159

 Frigo, M; Johnson, SG. 
 PROCEEDINGS OF THE IEEE, 93 (2), 216-231 (2005). 
 The design and implementation of FFTW3.
 https://doi.org/10.1109/JPROC.2004.840301

 VandeVondele, J; Hutter, J. 
 JOURNAL OF CHEMICAL PHYSICS, 118 (10), 4365-4369 (2003). 
 An efficient orbital transformation method for electronic structure
 calculations.
 https://doi.org/10.1063/1.1543154

 Lippert, G; Hutter, J; Parrinello, M. 
 THEORETICAL CHEMISTRY ACCOUNTS, 103 (2), 124-140 (1999). 
 The Gaussian and augmented-plane-wave density functional method for ab
 initio molecular dynamics simulations.
 https://doi.org/10.1007/s002140050523

 Krack, M; Parrinello, M. 
 PHYSICAL CHEMISTRY CHEMICAL PHYSICS, 2 (10), 2105-2112 (2000). 
 All-electron ab-initio molecular dynamics.
 https://doi.org/10.1039/b001167n

 Perdew, JP; Burke, K; Ernzerhof, M. 
 PHYSICAL REVIEW LETTERS, 77 (18), 3865-3868 (1996). 
 Generalized gradient approximation made simple.
 https://doi.org/10.1103/PhysRevLett.77.3865


 -------------------------------------------------------------------------------
 -                                                                             -
 -                                T I M I N G                                  -
 -                                                                             -
 -------------------------------------------------------------------------------
 SUBROUTINE                       CALLS  ASD         SELF TIME        TOTAL TIME
                                MAXIMUM       AVERAGE  MAXIMUM  AVERAGE  MAXIMUM
 CP2K                                 1  1.0    0.007    0.029   16.971   16.972
 qs_energies                          1  2.0    0.000    0.000   16.772   16.772
 scf_env_do_scf                       1  3.0    0.000    0.000   16.599   16.600
 scf_env_do_scf_inner_loop           26  4.0    0.000    0.002   15.003   15.003
 qs_ks_update_qs_env                 29  5.0    0.000    0.000   13.295   13.299
 rebuild_ks_matrix                   26  6.0    0.000    0.000   13.291   13.293
 qs_ks_build_kohn_sham_matrix        26  7.0    0.005    0.006   13.291   13.293
 pw_transfer                        551 10.1    0.053    0.060    4.396    4.739
 fft_wrap_pw1pw2                    473 11.3    0.006    0.006    4.310    4.645
 fft_wrap_pw1pw2_250                314 12.6    0.246    0.290    4.072    4.407
 rs_pw_transfer                     264  9.5    0.006    0.008    3.732    3.875
 fft3d_ps                           473 13.3    1.553    1.818    3.540    3.869
 prepare_gapw_den                    26  8.0    0.001    0.001    3.448    3.461
 qs_vxc_create                       26  8.0    0.001    0.001    3.175    3.175
 xc_vxc_pw_create                    26  9.0    0.021    0.025    3.174    3.174
 mp_sum_d                          1083  6.4    2.891    3.006    2.891    3.006
 qs_rho_update_rho                   27  5.0    0.001    0.001    2.673    2.675
 xc_pw_derive                       156 11.0    0.001    0.002    2.306    2.644
 calculate_rho_elec                  27  6.0    0.011    0.013    2.578    2.578
 calculate_vxc_atom                  26  8.0    0.012    0.204    2.310    2.311
 mp_alltoall_z22v                   473 15.3    1.685    2.222    1.685    2.222
 density_rs2pw                       27  7.0    0.002    0.002    1.956    2.071
 sum_up_and_integrate                26  8.0    0.009    0.012    2.017    2.024
 integrate_v_rspace                  26  9.0    0.001    0.001    2.008    2.016
 gaVxcgb_GC                          52  9.0    0.042    2.013    0.042    2.013
 xc_pw_divergence                    26 10.0    0.001    0.001    1.595    1.926
 calculate_rho_atom                  52  9.0    0.699    1.921    0.699    1.921
 xc_rho_set_and_dset_create          26 10.0    0.025    0.031    1.465    1.823
 potential_pw2rs                     26 10.0    0.002    0.002    1.663    1.666
 init_scf_loop                        3  4.0    0.000    0.000    1.596    1.596
 yz_to_x                            211 14.1    0.112    0.179    1.081    1.511
 rs_pw_transfer_RS2PW_250            53 10.0    0.860    0.952    1.342    1.471
 rs_pw_transfer_PW2RS_250            52 11.0    0.832    0.890    1.404    1.453
 integrate_vhg0_rspace               26  8.0    0.133    0.230    1.369    1.390
 put_rho0_on_grid                    26  9.0    0.013    0.017    1.135    1.148
 calculate_rho0_atom                 52  9.0    0.961    1.023    0.961    1.023
 mp_sum_dv                          313 12.5    0.653    0.933    0.653    0.933
 x_to_yz                            209 14.6    0.154    0.202    0.866    0.926
 mp_waitany                        5880 11.5    0.791    0.918    0.791    0.918
 mp_waitall_1                     53918 13.8    0.701    0.782    0.701    0.782
 grid_collocate_task_list            27  7.0    0.445    0.757    0.445    0.757
 xc_functional_eval                 130 10.9    0.000    0.001    0.349    0.671
 pbe_lda_eval                       130 11.9    0.349    0.670    0.349    0.670
 dbcsr_multiply_generic             574 10.0    0.017    0.017    0.606    0.612
 qs_scf_new_mos                      26  5.0    0.000    0.000    0.608    0.609
 qs_scf_loop_do_ot                   26  6.0    0.000    0.000    0.608    0.609
 ot_scf_mini                         26  7.0    0.000    0.000    0.580    0.581
 mp_sum_dm                          160  7.7    0.522    0.549    0.522    0.549
 rs_pw_transfer_PW2RS_90             26 12.0    0.095    0.108    0.363    0.388
 ot_mini                             26  8.0    0.000    0.000    0.373    0.373
 mp_alltoall_d11v                   641 11.5    0.335    0.368    0.335    0.368
 rs_grid_zero                       104 10.8    0.332    0.353    0.332    0.353
 rs_gather_matrices                  26 10.0    0.000    0.007    0.309    0.344
 grid_integrate_task_list            26 10.0    0.035    0.343    0.035    0.343
 -------------------------------------------------------------------------------

 The number of warnings for this run is : 1
 
 -------------------------------------------------------------------------------
  **** **** ******  **  PROGRAM ENDED AT                 2022-05-11 21:57:25.120
 ***** ** ***  *** **   PROGRAM RAN ON                                   tcopt10
 **    ****   ******    PROGRAM RAN BY                                    hutter
 ***** **    ** ** **   PROGRAM PROCESS ID                                 42784
  **** **  *******  **  PROGRAM STOPPED IN /data/hutter/GITHUB/BASIS/scMOLOPT/PB
                                           E/alsipscl
