 DBCSR| CPU Multiplication driver                                           XSMM
 DBCSR| Multrec recursion limit                                              512
 DBCSR| Multiplication stack size                                           1000
 DBCSR| Maximum elements for images                                    UNLIMITED
 DBCSR| Multiplicative factor virtual images                                   1
 DBCSR| Use multiplication densification                                       T
 DBCSR| Multiplication size stacks                                             3
 DBCSR| Use memory pool for CPU allocation                                     F
 DBCSR| Number of 3D layers                                               SINGLE
 DBCSR| Use MPI memory allocation                                              F
 DBCSR| Use RMA algorithm                                                      F
 DBCSR| Use Communication thread                                               T
 DBCSR| Communication thread load                                             87
 DBCSR| MPI: My node id                                                        0
 DBCSR| MPI: Number of nodes                                                  48
 DBCSR| OMP: Current number of threads                                         1
 DBCSR| OMP: Max number of threads                                             1
 DBCSR| Split modifier for TAS multiplication algorithm                  1.0E+00


  **** **** ******  **  PROGRAM STARTED AT               2022-05-11 21:56:47.116
 ***** ** ***  *** **   PROGRAM STARTED ON                               tcopt10
 **    ****   ******    PROGRAM STARTED BY                                hutter
 ***** **    ** ** **   PROGRAM PROCESS ID                                 42607
  **** **  *******  **  PROGRAM STARTED IN /data/hutter/GITHUB/BASIS/scMOLOPT/PB
                                           E/alsipscl

 CP2K| version string:                   CP2K version 10.0 (Development Version)
 CP2K| source code revision number:                                  git:13fcfd8
 CP2K| cp2kflags: omp libint fftw3 libxc elpa parallel mpi3 scalapack cosma xsmm
 CP2K|             spglib sirius libvori libbqb
 CP2K| is freely available from                            https://www.cp2k.org/
 CP2K| Program compiled at                      Tue 10 May 2022 02:27:21 PM CEST
 CP2K| Program compiled on                                               tcopt10
 CP2K| Program compiled for                                                local
 CP2K| Data directory path                   /data/hutter/GITHUB/TDLRI/cp2k/data
 CP2K| Input file name                                              ClF3-ref.inp

 GLOBAL| Force Environment number                                              1
 GLOBAL| Basis set file name                                        ../def2QZVPP
 GLOBAL| Potential file name                                        ../POTENTIAL
 GLOBAL| MM Potential file name                                     MM_POTENTIAL
 GLOBAL| Coordinate file name                                      __STD_INPUT__
 GLOBAL| Method name                                                        CP2K
 GLOBAL| Project name                                                    refClF3
 GLOBAL| Run type                                                         ENERGY
 GLOBAL| FFT library                                                       FFTW3
 GLOBAL| Diagonalization library                                       ScaLAPACK
 GLOBAL| Orthonormality check for eigenvectors                          DISABLED
 GLOBAL| Matrix multiplication library                                     COSMA
 GLOBAL| All-to-all communication in single precision                          F
 GLOBAL| FFTs using library dependent lengths                                  F
 GLOBAL| Grid backend                                                       AUTO
 GLOBAL| Global print level                                                  LOW
 GLOBAL| MPI I/O enabled                                                       T
 GLOBAL| Total number of message passing processes                            48
 GLOBAL| Number of threads for this process                                    1
 GLOBAL| This output is from process                                           0
 GLOBAL| Stack size for threads created by OpenMP (OMP_STACKSIZE)        default
 GLOBAL| CPU model name                          AMD EPYC 7401 24-Core Processor
 GLOBAL| CPUID                                                              1002

 MEMORY| system memory details [Kb]
 MEMORY|                        rank 0           min           max       average
 MEMORY| MemTotal            263969136     263969136     263969136     263969136
 MEMORY| MemFree             237886352     237886352     237886352     237886352
 MEMORY| Buffers                   136           136           136           136
 MEMORY| Cached               18902236      18902236      18902236      18902236
 MEMORY| Slab                  1431040       1431040       1431040       1431040
 MEMORY| SReclaimable           875828        875828        875828        875828
 MEMORY| MemLikelyFree       257664552     257664552     257664552     257664552


 GENERATE|  Preliminary Number of Bonds generated:                             0
 GENERATE|  Achieved consistency in connectivity generation.

 *******************************************************************************
 *******************************************************************************
 **                                                                           **
 **     #####                         ##              ##                      **
 **    ##   ##            ##          ##              ##                      **
 **   ##     ##                       ##            ######                    **
 **   ##     ##  ##   ##  ##   #####  ##  ##   ####   ##    #####    #####    **
 **   ##     ##  ##   ##  ##  ##      ## ##   ##      ##   ##   ##  ##   ##   **
 **   ##  ## ##  ##   ##  ##  ##      ####     ###    ##   ######   ######    **
 **    ##  ###   ##   ##  ##  ##      ## ##      ##   ##   ##       ##        **
 **     #######   #####   ##   #####  ##  ##  ####    ##    #####   ##        **
 **           ##                                                    ##        **
 **                                                                           **
 **                                                ... make the atoms dance   **
 **                                                                           **
 **            Copyright (C) by CP2K developers group (2000-2022)             **
 **                      J. Chem. Phys. 152, 194103 (2020)                    **
 **                                                                           **
 *******************************************************************************


 TOTAL NUMBERS AND MAXIMUM NUMBERS

  Total number of            - Atomic kinds:                                   2
                             - Atoms:                                          4
                             - Shell sets:                                    73
                             - Shells:                                        73
                             - Primitive Cartesian functions:                128
                             - Cartesian basis functions:                    302
                             - Spherical basis functions:                    241

  Maximum angular momentum of the orbital basis functions:                     4


 SCF PARAMETERS         Density guess:                                    ATOMIC
                        --------------------------------------------------------
                        max_scf:                                              10
                        max_scf_history:                                       0
                        max_diis:                                              4
                        --------------------------------------------------------
                        eps_scf:                                        1.00E-07
                        eps_scf_history:                                0.00E+00
                        eps_diis:                                       1.00E-01
                        eps_eigval:                                     1.00E-05
                        --------------------------------------------------------
                        level_shift [a.u.]:                             0.000000
                        --------------------------------------------------------
                        Outer loop SCF in use 
                        No variables optimised in outer loop
                        eps_scf                                         1.00E-07
                        max_scf                                               10
                        No outer loop optimization
                        step_size                                       5.00E-01

 Number of electrons:                                                         44
 Number of occupied orbitals:                                                 22
 Number of molecular orbitals:                                                22

 Number of orbital functions:                                                241
 Number of independent orbital functions:                                    241

 Extrapolation method: initial_guess


 SCF WAVEFUNCTION OPTIMIZATION

  ----------------------------------- OT ---------------------------------------
  Minimizer      : DIIS                : direct inversion
                                         in the iterative subspace
                                         using   7 DIIS vectors
                                         safer DIIS on
  Preconditioner : FULL_ALL            : diagonalization, state selective
  Precond_solver : DEFAULT
  stepsize       :    0.15000000                  energy_gap     :    0.08000000
  eps_taylor     :   0.10000E-15                  max_taylor     :             4
  ----------------------------------- OT ---------------------------------------

  Step     Update method      Time    Convergence         Total energy    Change
  ------------------------------------------------------------------------------
     1 OT DIIS     0.15E+00    0.6     0.29304786      -715.0111877803 -7.15E+02
     2 OT DIIS     0.15E+00    0.7     0.06563636      -755.2010372974 -4.02E+01
     3 OT DIIS     0.15E+00    0.7     0.02885885      -757.4162287953 -2.22E+00
     4 OT DIIS     0.15E+00    0.7     0.01722253      -757.9284541512 -5.12E-01
     5 OT DIIS     0.15E+00    0.7     0.01188085      -758.1593978493 -2.31E-01
     6 OT DIIS     0.15E+00    0.7     0.00677710      -758.3136468297 -1.54E-01
     7 OT DIIS     0.15E+00    0.7     0.00623186      -758.3935473438 -7.99E-02
     8 OT DIIS     0.15E+00    0.7     0.00570191      -758.4456576760 -5.21E-02
     9 OT DIIS     0.15E+00    0.7     0.00496439      -758.5877647780 -1.42E-01
    10 OT DIIS     0.15E+00    0.7     0.00450040      -758.6922766977 -1.05E-01

  Leaving inner SCF loop after reaching    10 steps.


  Electronic density on regular grids:        -27.8290314078       16.1709685922
  Core density on regular grids:               44.0000000000        0.0000000000
  Hard and soft densities (Lebedev):          -47.5672501333      -31.3962790307
  Total Rho_soft + Rho1_hard - Rho1_soft      -44.0000025103
  Total charge density (r-space):              -0.0000025103
  Total Rho_soft + Rho0_soft (g-space):        -0.0000029514

  Overlap energy of the core charge distribution:               0.00000000038972
  Self energy of the core charge distribution:               -512.53259545110382
  Core Hamiltonian energy:                                   -279.28517729421822
  Hartree energy:                                              74.05420887715417
  Exchange-correlation energy:                                -16.00516439269526

  GAPW| Exc from hard and soft atomic rho1:                   -42.99723095081153
  GAPW| local Eh = 1 center integrals:                         18.07368251358818

  Total energy:                                              -758.69227669769680

  outer SCF iter =    1 RMS gradient =   0.45E-02 energy =       -758.6922766977

  ----------------------------------- OT ---------------------------------------
  Minimizer      : DIIS                : direct inversion
                                         in the iterative subspace
                                         using   7 DIIS vectors
                                         safer DIIS on
  Preconditioner : FULL_ALL            : diagonalization, state selective
  Precond_solver : DEFAULT
  stepsize       :    0.15000000                  energy_gap     :    0.08000000
  eps_taylor     :   0.10000E-15                  max_taylor     :             4
  ----------------------------------- OT ---------------------------------------

  Step     Update method      Time    Convergence         Total energy    Change
  ------------------------------------------------------------------------------
     1 OT DIIS     0.15E+00    1.4     0.04153101      -758.7677559773 -7.55E-02
     2 OT DIIS     0.15E+00    0.7     0.04728667      -758.5543321892  2.13E-01
     3 OT DIIS     0.15E+00    0.7     0.02361443      -759.1125618838 -5.58E-01
     4 OT DIIS     0.15E+00    0.7     0.01574413      -759.2203518627 -1.08E-01
     5 OT DIIS     0.15E+00    0.7     0.00748279      -759.2526526150 -3.23E-02
     6 OT DIIS     0.15E+00    0.7     0.00496983      -759.2591719942 -6.52E-03
     7 OT DIIS     0.15E+00    0.7     0.00275674      -759.2614507073 -2.28E-03
     8 OT DIIS     0.15E+00    0.7     0.00070302      -759.2623994241 -9.49E-04
     9 OT DIIS     0.15E+00    0.7     0.00028360      -759.2625357446 -1.36E-04
    10 OT DIIS     0.15E+00    0.7     0.00012621      -759.2625620921 -2.63E-05

  Leaving inner SCF loop after reaching    10 steps.


  Electronic density on regular grids:        -27.7980066125       16.2019933875
  Core density on regular grids:               44.0000000000        0.0000000000
  Hard and soft densities (Lebedev):          -47.8672382212      -31.6652412585
  Total Rho_soft + Rho1_hard - Rho1_soft      -44.0000035752
  Total charge density (r-space):              -0.0000035752
  Total Rho_soft + Rho0_soft (g-space):        -0.0000040164

  Overlap energy of the core charge distribution:               0.00000000038972
  Self energy of the core charge distribution:               -512.53259545110382
  Core Hamiltonian energy:                                   -279.88022799939887
  Hartree energy:                                              74.22371242618863
  Exchange-correlation energy:                                -15.99519821844221

  GAPW| Exc from hard and soft atomic rho1:                   -42.99099936045320
  GAPW| local Eh = 1 center integrals:                         17.91274651075324

  Total energy:                                              -759.26256209206645

  outer SCF iter =    2 RMS gradient =   0.13E-03 energy =       -759.2625620921

  ----------------------------------- OT ---------------------------------------
  Minimizer      : DIIS                : direct inversion
                                         in the iterative subspace
                                         using   7 DIIS vectors
                                         safer DIIS on
  Preconditioner : FULL_ALL            : diagonalization, state selective
  Precond_solver : DEFAULT
  stepsize       :    0.15000000                  energy_gap     :    0.08000000
  eps_taylor     :   0.10000E-15                  max_taylor     :             4
  ----------------------------------- OT ---------------------------------------

  Step     Update method      Time    Convergence         Total energy    Change
  ------------------------------------------------------------------------------
     1 OT DIIS     0.15E+00    1.4     0.00013203      -759.2625630582 -9.66E-07
     2 OT DIIS     0.15E+00    0.7     0.00018619      -759.2625612354  1.82E-06
     3 OT DIIS     0.15E+00    0.7     0.00002478      -759.2625666528 -5.42E-06
     4 OT DIIS     0.15E+00    0.7     0.00002234      -759.2625667230 -7.02E-08
     5 OT DIIS     0.15E+00    0.7     0.00000658      -759.2625668076 -8.46E-08
     6 OT DIIS     0.15E+00    0.7     0.00000173      -759.2625668143 -6.64E-09
     7 OT DIIS     0.15E+00    0.7     0.00000016      -759.2625668153 -9.93E-10
     8 OT DIIS     0.15E+00    0.7     0.00000003      -759.2625668159 -6.07E-10

  *** SCF run converged in     8 steps ***


  Electronic density on regular grids:        -27.7981431368       16.2018568632
  Core density on regular grids:               44.0000000000        0.0000000000
  Hard and soft densities (Lebedev):          -47.8668686276      -31.6650081898
  Total Rho_soft + Rho1_hard - Rho1_soft      -44.0000035745
  Total charge density (r-space):              -0.0000035745
  Total Rho_soft + Rho0_soft (g-space):        -0.0000040157

  Overlap energy of the core charge distribution:               0.00000000038972
  Self energy of the core charge distribution:               -512.53259545110382
  Core Hamiltonian energy:                                   -279.88243990144525
  Hartree energy:                                              74.22510047851208
  Exchange-correlation energy:                                -15.99513515151469

  GAPW| Exc from hard and soft atomic rho1:                   -42.99079791702275
  GAPW| local Eh = 1 center integrals:                         17.91330112629511

  Total energy:                                              -759.26256681588950

  outer SCF iter =    3 RMS gradient =   0.29E-07 energy =       -759.2625668159
  outer SCF loop converged in   3 iterations or   28 steps


 ENERGY| Total FORCE_EVAL ( QS ) energy [a.u.]:             -759.262566815889500

 -------------------------------------------------------------------------------
 -                                                                             -
 -                                DBCSR STATISTICS                             -
 -                                                                             -
 -------------------------------------------------------------------------------
 COUNTER                                    TOTAL       BLAS       SMM       ACC
 flops    22 x    22 x    22              3748096       0.0%    100.0%      0.0%
 flops    70 x    57 x    22              5091240       0.0%    100.0%      0.0%
 flops    70 x    70 x    22              6252400       0.0%    100.0%      0.0%
 flops    22 x    22 x    70              7792400       0.0%    100.0%      0.0%
 flops    57 x    70 x    22             10182480       0.0%    100.0%      0.0%
 flops    57 x    22 x    22             15780336       0.0%    100.0%      0.0%
 flops    70 x    22 x    70             16385600       0.0%    100.0%      0.0%
 flops   127 x    22 x    22             17579848       0.0%    100.0%      0.0%
 flops    22 x    22 x    57             19035720       0.0%    100.0%      0.0%
 flops   127 x    22 x    70             24251920       0.0%    100.0%      0.0%
 flops    57 x    57 x    22             24874344       0.0%    100.0%      0.0%
 flops    70 x    22 x    57             40027680       0.0%    100.0%      0.0%
 flops   127 x    22 x    57             59243976       0.0%    100.0%      0.0%
 flops    57 x    22 x    70             61797120       0.0%    100.0%      0.0%
 flops    57 x    22 x    57            150961536       0.0%    100.0%      0.0%
 flops inhomo. stacks                           0       0.0%      0.0%      0.0%
 flops total                       463.004696E+06       0.0%    100.0%      0.0%
 flops max/rank                    245.345408E+06       0.0%    100.0%      0.0%
 matmuls inhomo. stacks                         0       0.0%      0.0%      0.0%
 matmuls total                               3315       0.0%    100.0%      0.0%
 number of processed stacks                  3315       0.0%    100.0%      0.0%
 average stack size                                     0.0       1.0       0.0
 marketing flops                   491.414336E+06
 -------------------------------------------------------------------------------
 # multiplications                            604
 max memory usage/rank             341.643264E+06
 # max total images/rank                        3
 # max 3D layers                                1
 # MPI messages exchanged                  579840
 MPI messages size (bytes):
  total size                       886.328640E+06
  min size                           0.000000E+00
  max size                          71.120000E+03
  average size                       1.528574E+03
 MPI breakdown and total messages size (bytes):
             size <=      128              544611                        0
       128 < size <=     8192                2893                 11201696
      8192 < size <=    32768               26264                503435504
     32768 < size <=   131072                6072                371691408
    131072 < size <=  4194304                   0                        0
   4194304 < size <= 16777216                   0                        0
  16777216 < size                               0                        0
 -------------------------------------------------------------------------------

 *** WARNING in dbcsr_mm.F:290 :: Using a non-square number of MPI ranks ***
 *** might lead to poor performance. Used ranks: 48 Suggested: 49 100    ***

 -------------------------------------------------------------------------------
 -                                                                             -
 -                      DBCSR MESSAGE PASSING PERFORMANCE                      -
 -                                                                             -
 -------------------------------------------------------------------------------
 ROUTINE             CALLS      AVE VOLUME [Bytes]
 MP_Bcast               16                     12.
 MP_Allreduce         3216                      8.
 MP_Alltoall          2492                   6504.
 MP_ISend            27066                   2290.
 MP_IRecv            26626                   1318.
 -------------------------------------------------------------------------------

 -------------------------------------------------------------------------------
 -                                                                             -
 -                                GRID STATISTICS                              -
 -                                                                             -
 -------------------------------------------------------------------------------
 LP    KERNEL             BACKEND                              COUNT     PERCENT
 2     collocate ortho    REF                                  10324       9.82%
 2     integrate ortho    REF                                   9968       9.49%
 3     collocate ortho    REF                                   9280       8.83%
 3     integrate ortho    REF                                   8960       8.53%
 1     collocate ortho    REF                                   8555       8.14%
 1     integrate ortho    REF                                   8260       7.86%
 4     collocate ortho    REF                                   8091       7.70%
 4     integrate ortho    REF                                   7812       7.43%
 2     collocate general  REF                                   5376       5.12%
 2     integrate general  REF                                   5376       5.12%
 5     collocate ortho    REF                                   4959       4.72%
 5     integrate ortho    REF                                   4788       4.56%
 0     collocate ortho    REF                                   3045       2.90%
 0     integrate ortho    REF                                   2940       2.80%
 6     collocate ortho    REF                                   2378       2.26%
 6     integrate ortho    REF                                   2296       2.18%
 7     collocate ortho    REF                                   1102       1.05%
 7     integrate ortho    REF                                   1064       1.01%
 8     collocate ortho    REF                                    261       0.25%
 8     integrate ortho    REF                                    252       0.24%
 -------------------------------------------------------------------------------

 MEMORY| Estimated peak process memory [MiB]                                 326

 -------------------------------------------------------------------------------
 -                                                                             -
 -                         MESSAGE PASSING PERFORMANCE                         -
 -                                                                             -
 -------------------------------------------------------------------------------

 ROUTINE             CALLS      AVE VOLUME [Bytes]
 MP_Group                4
 MP_Bcast              640                 256823.
 MP_Allreduce         1942                 126837.
 MP_Sync                62
 MP_Alltoall           636                6030370.
 MP_ISendRecv         8037                  66752.
 MP_Wait             14930
 MP_comm_split          29
 MP_ISend             6328                 159457.
 MP_IRecv             6328                 159428.
 MP_Recv                20                   3856.
 -------------------------------------------------------------------------------


 -------------------------------------------------------------------------------
 -                                                                             -
 -                           R E F E R E N C E S                               -
 -                                                                             -
 -------------------------------------------------------------------------------
 
 CP2K version 10.0 (Development Version), the CP2K developers group (2022).
 CP2K is freely available from https://www.cp2k.org/ .

 Kuehne,Thomas D.; Iannuzzi,Marcella; Del Ben,Mauro;
 Rybkin,Vladimir V.; Seewald,Patrick; Stein,Frederick; Laino,Teodoro;
 Khaliullin,Rustam Z.; Schuett,Ole; Schiffmann,Florian; Golze,Dorothea;
 Wilhelm,Jan; Chulkov,Sergey; Bani-Hashemian,Mohammad Hossein;
 Weber,Valery; Borstnik,Urban; Taillefumier,Mathieu;
 Jakobovits,Alice Shoshana; Lazzaro,Alfio; Pabst,Hans; Mueller,Tiziano;
 Schade,Robert; Guidon,Manuel; Andermatt,Samuel; Holmberg,Nico;
 Schenter,Gregory K.; Hehn,Anna; Bussy,Augustin; Belleflamme,Fabian;
 Tabacchi,Gloria; Gloess,Andreas; Lass,Michael; Bethune,Iain;
 Mundy,Christopher J.; Plessl,Christian; Watkins,Matt;
 VandeVondele,Joost; Krack,Matthias; Hutter,Juerg. 
 The Journal of Chemical Physics, 152 (19), (2020). 
 CP2K: An electronic structure and molecular dynamics software package -
 Quickstep: Efficient and accurate electronic structure calculations.
 https://doi.org/10.1063/5.0007045

 Schuett, Ole; Messmer, Peter; Hutter, Juerg; VandeVondele, Joost. 
 Electronic Structure Calculations on Graphics Processing Units, John
 Wiley & Sons, Ltd, 173-190 (2016). 
 GPU-Accelerated Sparse Matrix-Matrix Multiplication for
 Linear Scaling Density Functional Theory.
 https://doi.org/10.1002/9781118670712.ch8

 Heinecke, A; Henry, G; Hutchinson, M; Pabst, H. 
 Proceedings of Intl. Supercomputing Conference, 981-991 (2016). 
 LIBXSMM: Accelerating Small Matrix Multiplications
 by Runtime Code Generation.
 https://doi.org/10.1109/SC.2016.83

 Borstnik, U; VandeVondele, J; Weber, V; Hutter, J. 
 PARALLEL COMPUTING, 40 (5-6), 47-58 (2014). 
 Sparse matrix multiplication: The distributed block-compressed sparse
 row library.
 https://doi.org/10.1016/j.parco.2014.03.012

 Hutter, J; Iannuzzi, M; Schiffmann, F; VandeVondele, J. 
 WIREs Comput Mol Sci., 4 (1), 15-25 (2014). 
 CP2K: atomistic simulations of condensed matter systems.
 https://doi.org/10.1002/wcms.1159

 Frigo, M; Johnson, SG. 
 PROCEEDINGS OF THE IEEE, 93 (2), 216-231 (2005). 
 The design and implementation of FFTW3.
 https://doi.org/10.1109/JPROC.2004.840301

 VandeVondele, J; Hutter, J. 
 JOURNAL OF CHEMICAL PHYSICS, 118 (10), 4365-4369 (2003). 
 An efficient orbital transformation method for electronic structure
 calculations.
 https://doi.org/10.1063/1.1543154

 Lippert, G; Hutter, J; Parrinello, M. 
 THEORETICAL CHEMISTRY ACCOUNTS, 103 (2), 124-140 (1999). 
 The Gaussian and augmented-plane-wave density functional method for ab
 initio molecular dynamics simulations.
 https://doi.org/10.1007/s002140050523

 Krack, M; Parrinello, M. 
 PHYSICAL CHEMISTRY CHEMICAL PHYSICS, 2 (10), 2105-2112 (2000). 
 All-electron ab-initio molecular dynamics.
 https://doi.org/10.1039/b001167n

 Perdew, JP; Burke, K; Ernzerhof, M. 
 PHYSICAL REVIEW LETTERS, 77 (18), 3865-3868 (1996). 
 Generalized gradient approximation made simple.
 https://doi.org/10.1103/PhysRevLett.77.3865


 -------------------------------------------------------------------------------
 -                                                                             -
 -                                T I M I N G                                  -
 -                                                                             -
 -------------------------------------------------------------------------------
 SUBROUTINE                       CALLS  ASD         SELF TIME        TOTAL TIME
                                MAXIMUM       AVERAGE  MAXIMUM  AVERAGE  MAXIMUM
 CP2K                                 1  1.0    0.007    0.026   19.900   19.901
 qs_energies                          1  2.0    0.000    0.000   19.703   19.703
 scf_env_do_scf                       1  3.0    0.000    0.000   19.494   19.494
 scf_env_do_scf_inner_loop           28  4.0    0.001    0.002   17.708   17.709
 qs_ks_update_qs_env                 31  5.0    0.000    0.000   15.562   15.569
 rebuild_ks_matrix                   28  6.0    0.000    0.000   15.557   15.562
 qs_ks_build_kohn_sham_matrix        28  7.0    0.006    0.007   15.557   15.562
 pw_transfer                        593 10.1    0.057    0.066    4.784    5.197
 fft_wrap_pw1pw2                    509 11.3    0.006    0.007    4.691    5.104
 fft_wrap_pw1pw2_250                338 12.7    0.265    0.313    4.431    4.873
 rs_pw_transfer                     284  9.5    0.007    0.008    4.270    4.466
 fft3d_ps                           509 13.3    1.679    2.234    3.860    4.271
 prepare_gapw_den                    28  8.0    0.001    0.001    3.844    3.863
 qs_vxc_create                       28  8.0    0.001    0.001    3.461    3.461
 xc_vxc_pw_create                    28  9.0    0.022    0.027    3.460    3.460
 mp_sum_d                          1199  6.9    2.995    3.166    2.995    3.166
 qs_rho_update_rho                   29  5.0    0.001    0.001    3.155    3.158
 calculate_rho_elec                  29  6.0    0.012    0.014    2.998    2.998
 sum_up_and_integrate                28  8.0    0.010    0.012    2.973    2.977
 integrate_v_rspace                  28  9.0    0.001    0.001    2.963    2.969
 xc_pw_derive                       168 11.0    0.002    0.002    2.509    2.871
 density_rs2pw                       29  7.0    0.001    0.002    2.361    2.537
 calculate_vxc_atom                  28  8.0    0.018    0.219    2.447    2.447
 mp_alltoall_z22v                   509 15.3    1.858    2.343    1.858    2.343
 gaVxcgb_GC                          56  9.0    0.076    2.126    0.076    2.126
 xc_pw_divergence                    28 10.0    0.001    0.001    1.751    2.109
 calculate_rho_atom                  56  9.0    0.777    2.071    0.777    2.071
 xc_rho_set_and_dset_create          28 10.0    0.027    0.032    1.597    1.952
 rs_pw_transfer_RS2PW_250            57 10.0    0.844    0.972    1.694    1.893
 potential_pw2rs                     28 10.0    0.002    0.002    1.818    1.821
 init_scf_loop                        3  4.0    0.000    0.000    1.785    1.785
 integrate_vhg0_rspace               28  8.0    0.237    0.318    1.757    1.779
 yz_to_x                            227 14.1    0.119    0.190    1.204    1.668
 calculate_rho0_atom                 56  9.0    1.484    1.615    1.484    1.615
 rs_pw_transfer_PW2RS_250            56 11.0    0.895    0.952    1.505    1.540
 mp_waitany                        6328 11.5    1.173    1.430    1.173    1.430
 grid_collocate_task_list            29  7.0    0.500    1.239    0.500    1.239
 put_rho0_on_grid                    28  9.0    0.015    0.024    1.215    1.234
 mp_alltoall_d11v                   657 11.6    1.081    1.170    1.081    1.170
 rs_gather_matrices                  28 10.0    0.000    0.004    1.057    1.145
 grid_integrate_task_list            28 10.0    0.088    1.144    0.088    1.144
 x_to_yz                            225 14.6    0.164    0.220    0.934    1.013
 mp_waitall_1                     56922 13.7    0.792    0.910    0.792    0.910
 mp_sum_dv                          593 12.8    0.370    0.895    0.370    0.895
 mp_sum_dm                          344  7.7    0.799    0.844    0.799    0.844
 dbcsr_multiply_generic             604 10.0    0.018    0.019    0.702    0.719
 xc_functional_eval                 140 10.9    0.000    0.001    0.387    0.717
 pbe_lda_eval                       140 11.9    0.387    0.717    0.387    0.717
 qs_scf_new_mos                      28  5.0    0.000    0.000    0.706    0.710
 qs_scf_loop_do_ot                   28  6.0    0.000    0.000    0.706    0.709
 ot_scf_mini                         28  7.0    0.000    0.000    0.675    0.679
 ot_mini                             28  8.0    0.000    0.000    0.430    0.434
 rs_pw_transfer_PW2RS_90             28 12.0    0.105    0.130    0.392    0.412
 -------------------------------------------------------------------------------

 The number of warnings for this run is : 1
 
 -------------------------------------------------------------------------------
  **** **** ******  **  PROGRAM ENDED AT                 2022-05-11 21:57:07.439
 ***** ** ***  *** **   PROGRAM RAN ON                                   tcopt10
 **    ****   ******    PROGRAM RAN BY                                    hutter
 ***** **    ** ** **   PROGRAM PROCESS ID                                 42607
  **** **  *******  **  PROGRAM STOPPED IN /data/hutter/GITHUB/BASIS/scMOLOPT/PB
                                           E/alsipscl
