 DBCSR| CPU Multiplication driver                                           XSMM
 DBCSR| Multrec recursion limit                                              512
 DBCSR| Multiplication stack size                                           1000
 DBCSR| Maximum elements for images                                    UNLIMITED
 DBCSR| Multiplicative factor virtual images                                   1
 DBCSR| Use multiplication densification                                       T
 DBCSR| Multiplication size stacks                                             3
 DBCSR| Use memory pool for CPU allocation                                     F
 DBCSR| Number of 3D layers                                               SINGLE
 DBCSR| Use MPI memory allocation                                              F
 DBCSR| Use RMA algorithm                                                      F
 DBCSR| Use Communication thread                                               T
 DBCSR| Communication thread load                                             87
 DBCSR| MPI: My node id                                                        0
 DBCSR| MPI: Number of nodes                                                  48
 DBCSR| OMP: Current number of threads                                         1
 DBCSR| OMP: Max number of threads                                             1
 DBCSR| Split modifier for TAS multiplication algorithm                  1.0E+00


  **** **** ******  **  PROGRAM STARTED AT               2022-05-11 22:35:55.790
 ***** ** ***  *** **   PROGRAM STARTED ON                               tcopt10
 **    ****   ******    PROGRAM STARTED BY                                hutter
 ***** **    ** ** **   PROGRAM PROCESS ID                                 49807
  **** **  *******  **  PROGRAM STARTED IN /data/hutter/GITHUB/BASIS/scMOLOPT/PB
                                           E/alsipscl

 CP2K| version string:                   CP2K version 10.0 (Development Version)
 CP2K| source code revision number:                                  git:13fcfd8
 CP2K| cp2kflags: omp libint fftw3 libxc elpa parallel mpi3 scalapack cosma xsmm
 CP2K|             spglib sirius libvori libbqb
 CP2K| is freely available from                            https://www.cp2k.org/
 CP2K| Program compiled at                      Tue 10 May 2022 02:27:21 PM CEST
 CP2K| Program compiled on                                               tcopt10
 CP2K| Program compiled for                                                local
 CP2K| Data directory path                   /data/hutter/GITHUB/TDLRI/cp2k/data
 CP2K| Input file name                                               PF3-ref.inp

 GLOBAL| Force Environment number                                              1
 GLOBAL| Basis set file name                                        ../def2QZVPP
 GLOBAL| Potential file name                                        ../POTENTIAL
 GLOBAL| MM Potential file name                                     MM_POTENTIAL
 GLOBAL| Coordinate file name                                      __STD_INPUT__
 GLOBAL| Method name                                                        CP2K
 GLOBAL| Project name                                                     refPF3
 GLOBAL| Run type                                                         ENERGY
 GLOBAL| FFT library                                                       FFTW3
 GLOBAL| Diagonalization library                                       ScaLAPACK
 GLOBAL| Orthonormality check for eigenvectors                          DISABLED
 GLOBAL| Matrix multiplication library                                     COSMA
 GLOBAL| All-to-all communication in single precision                          F
 GLOBAL| FFTs using library dependent lengths                                  F
 GLOBAL| Grid backend                                                       AUTO
 GLOBAL| Global print level                                                  LOW
 GLOBAL| MPI I/O enabled                                                       T
 GLOBAL| Total number of message passing processes                            48
 GLOBAL| Number of threads for this process                                    1
 GLOBAL| This output is from process                                           0
 GLOBAL| Stack size for threads created by OpenMP (OMP_STACKSIZE)        default
 GLOBAL| CPU model name                          AMD EPYC 7401 24-Core Processor
 GLOBAL| CPUID                                                              1002

 MEMORY| system memory details [Kb]
 MEMORY|                        rank 0           min           max       average
 MEMORY| MemTotal            263969136     263969136     263969136     263969136
 MEMORY| MemFree             237908332     237908332     237908332     237908332
 MEMORY| Buffers                   136           136           136           136
 MEMORY| Cached               18902696      18902696      18902696      18902696
 MEMORY| Slab                  1426844       1426844       1426844       1426844
 MEMORY| SReclaimable           871584        871584        871584        871584
 MEMORY| MemLikelyFree       257682748     257682748     257682748     257682748


 GENERATE|  Preliminary Number of Bonds generated:                             0
 GENERATE|  Achieved consistency in connectivity generation.

 *******************************************************************************
 *******************************************************************************
 **                                                                           **
 **     #####                         ##              ##                      **
 **    ##   ##            ##          ##              ##                      **
 **   ##     ##                       ##            ######                    **
 **   ##     ##  ##   ##  ##   #####  ##  ##   ####   ##    #####    #####    **
 **   ##     ##  ##   ##  ##  ##      ## ##   ##      ##   ##   ##  ##   ##   **
 **   ##  ## ##  ##   ##  ##  ##      ####     ###    ##   ######   ######    **
 **    ##  ###   ##   ##  ##  ##      ## ##      ##   ##   ##       ##        **
 **     #######   #####   ##   #####  ##  ##  ####    ##    #####   ##        **
 **           ##                                                    ##        **
 **                                                                           **
 **                                                ... make the atoms dance   **
 **                                                                           **
 **            Copyright (C) by CP2K developers group (2000-2022)             **
 **                      J. Chem. Phys. 152, 194103 (2020)                    **
 **                                                                           **
 *******************************************************************************


 TOTAL NUMBERS AND MAXIMUM NUMBERS

  Total number of            - Atomic kinds:                                   2
                             - Atoms:                                          4
                             - Shell sets:                                    73
                             - Shells:                                        73
                             - Primitive Cartesian functions:                128
                             - Cartesian basis functions:                    302
                             - Spherical basis functions:                    241

  Maximum angular momentum of the orbital basis functions:                     4


 SCF PARAMETERS         Density guess:                                    ATOMIC
                        --------------------------------------------------------
                        max_scf:                                              30
                        max_scf_history:                                       0
                        max_diis:                                              4
                        --------------------------------------------------------
                        eps_scf:                                        1.00E-06
                        eps_scf_history:                                0.00E+00
                        eps_diis:                                       1.00E-01
                        eps_eigval:                                     1.00E-05
                        --------------------------------------------------------
                        level_shift [a.u.]:                             0.000000
                        --------------------------------------------------------
                        Outer loop SCF in use 
                        No variables optimised in outer loop
                        eps_scf                                         1.00E-06
                        max_scf                                                5
                        No outer loop optimization
                        step_size                                       5.00E-01

 Number of electrons:                                                         42
 Number of occupied orbitals:                                                 21
 Number of molecular orbitals:                                                21

 Number of orbital functions:                                                241
 Number of independent orbital functions:                                    241

 Extrapolation method: initial_guess


 SCF WAVEFUNCTION OPTIMIZATION

  ----------------------------------- OT ---------------------------------------
  Minimizer      : DIIS                : direct inversion
                                         in the iterative subspace
                                         using   7 DIIS vectors
                                         safer DIIS on
  Preconditioner : FULL_ALL            : diagonalization, state selective
  Precond_solver : DEFAULT
  stepsize       :    0.15000000                  energy_gap     :    0.08000000
  eps_taylor     :   0.10000E-15                  max_taylor     :             4
  ----------------------------------- OT ---------------------------------------

  Step     Update method      Time    Convergence         Total energy    Change
  ------------------------------------------------------------------------------
     1 OT DIIS     0.15E+00    0.6     0.20535375      -616.4512824499 -6.16E+02
     2 OT DIIS     0.15E+00    0.7     0.05553027      -636.8748052848 -2.04E+01
     3 OT DIIS     0.15E+00    0.7     0.01753260      -638.5701556108 -1.70E+00
     4 OT DIIS     0.15E+00    0.7     0.01310784      -638.8183763758 -2.48E-01
     5 OT DIIS     0.15E+00    0.7     0.01151275      -638.9532269174 -1.35E-01
     6 OT DIIS     0.15E+00    0.7     0.00850481      -639.3219530635 -3.69E-01
     7 OT DIIS     0.15E+00    0.7     0.00659590      -639.5451012296 -2.23E-01
     8 OT DIIS     0.15E+00    0.7     0.00530431      -639.6911244817 -1.46E-01
     9 OT DIIS     0.15E+00    0.7     0.00451972      -639.7847946062 -9.37E-02
    10 OT DIIS     0.15E+00    0.7     0.00420126      -639.8485893935 -6.38E-02
    11 OT DIIS     0.15E+00    0.7     0.00351482      -639.8800388069 -3.14E-02
    12 OT DIIS     0.15E+00    0.7     0.00306073      -639.9370662237 -5.70E-02
    13 OT DIIS     0.15E+00    0.7     0.00293339      -639.9616608414 -2.46E-02
    14 OT DIIS     0.15E+00    0.7     0.00278982      -639.9890577420 -2.74E-02
    15 OT SD       0.15E+00    0.7     0.00313495      -640.0187115136 -2.97E-02
    16 OT SD       0.15E+00    0.7     0.00278476      -640.0254099465 -6.70E-03
    17 OT SD       0.15E+00    0.7     0.00276569      -640.0312718640 -5.86E-03
    18 OT DIIS     0.15E+00    0.7     0.00275701      -640.0370678455 -5.80E-03
    19 OT SD       0.15E+00    0.7     0.00274684      -640.0419311145 -4.86E-03
    20 OT SD       0.15E+00    0.7     0.00273906      -640.0476420650 -5.71E-03
    21 OT SD       0.15E+00    0.7     0.00274205      -640.0533397624 -5.70E-03
    22 OT SD       0.15E+00    0.7     0.00274712      -640.0590523456 -5.71E-03
    23 OT SD       0.15E+00    0.7     0.00275371      -640.0647877045 -5.74E-03
    24 OT SD       0.15E+00    0.7     0.00276164      -640.0705520552 -5.76E-03
    25 OT SD       0.15E+00    0.7     0.00277080      -640.0763509475 -5.80E-03
    26 OT SD       0.15E+00    0.7     0.00278109      -640.0821895339 -5.84E-03
    27 OT DIIS     0.15E+00    0.7     0.00279245      -640.0880726816 -5.88E-03
    28 OT SD       0.15E+00    0.7     0.01202750      -640.0400188627  4.81E-02
    29 OT SD       0.15E+00    0.7     0.00474223      -640.1082278345 -6.82E-02
    30 OT SD       0.15E+00    0.7     0.00408224      -640.1236140294 -1.54E-02

  Leaving inner SCF loop after reaching    30 steps.


  Electronic density on regular grids:        -27.3785924085       14.6214075915
  Core density on regular grids:               42.0000000000        0.0000000000
  Hard and soft densities (Lebedev):          -52.3883138436      -37.7669043333
  Total Rho_soft + Rho1_hard - Rho1_soft      -42.0000019188
  Total charge density (r-space):              -0.0000019188
  Total Rho_soft + Rho0_soft (g-space):        -0.0000022364

  Overlap energy of the core charge distribution:               0.00000003058342
  Self energy of the core charge distribution:               -461.29790893607498
  Core Hamiltonian energy:                                   -207.33599697798124
  Hartree energy:                                              62.50956899363780
  Exchange-correlation energy:                                -16.27230870291020

  GAPW| Exc from hard and soft atomic rho1:                   -37.83048033230023
  GAPW| local Eh = 1 center integrals:                         20.10351189569053

  Total energy:                                              -640.12361402935494

  outer SCF iter =    1 RMS gradient =   0.41E-02 energy =       -640.1236140294

  ----------------------------------- OT ---------------------------------------
  Minimizer      : DIIS                : direct inversion
                                         in the iterative subspace
                                         using   7 DIIS vectors
                                         safer DIIS on
  Preconditioner : FULL_ALL            : diagonalization, state selective
  Precond_solver : DEFAULT
  stepsize       :    0.15000000                  energy_gap     :    0.08000000
  eps_taylor     :   0.10000E-15                  max_taylor     :             4
  ----------------------------------- OT ---------------------------------------

  Step     Update method      Time    Convergence         Total energy    Change
  ------------------------------------------------------------------------------
     1 OT DIIS     0.15E+00    1.5     0.03461963      -640.1360799098 -1.25E-02
     2 OT DIIS     0.15E+00    0.7     0.02728492      -640.5674469719 -4.31E-01
     3 OT DIIS     0.15E+00    0.7     0.00956347      -640.7209429065 -1.53E-01
     4 OT DIIS     0.15E+00    0.7     0.01313328      -640.7192482029  1.69E-03
     5 OT DIIS     0.15E+00    0.7     0.00407926      -640.7363449591 -1.71E-02
     6 OT DIIS     0.15E+00    0.7     0.00179744      -640.7383266702 -1.98E-03
     7 OT DIIS     0.15E+00    0.7     0.00089699      -640.7387720162 -4.45E-04
     8 OT DIIS     0.15E+00    0.7     0.00082065      -640.7388054634 -3.34E-05
     9 OT DIIS     0.15E+00    0.7     0.00010726      -640.7388906082 -8.51E-05
    10 OT DIIS     0.15E+00    0.7     0.00004774      -640.7388931422 -2.53E-06
    11 OT DIIS     0.15E+00    0.7     0.00002261      -640.7388936062 -4.64E-07
    12 OT DIIS     0.15E+00    0.7     0.00000636      -640.7388937554 -1.49E-07
    13 OT DIIS     0.15E+00    0.7     0.00000265      -640.7388937723 -1.70E-08
    14 OT DIIS     0.15E+00    0.7     0.00000208      -640.7388937755 -3.13E-09
    15 OT DIIS     0.15E+00    0.7     0.00000168      -640.7388937759 -4.86E-10
    16 OT DIIS     0.15E+00    0.7     0.00000066      -640.7388937768 -8.53E-10

  *** SCF run converged in    16 steps ***


  Electronic density on regular grids:        -27.3188880477       14.6811119523
  Core density on regular grids:               42.0000000000        0.0000000000
  Hard and soft densities (Lebedev):          -52.7225874185      -38.0414729393
  Total Rho_soft + Rho1_hard - Rho1_soft      -42.0000025268
  Total charge density (r-space):              -0.0000025268
  Total Rho_soft + Rho0_soft (g-space):        -0.0000028436

  Overlap energy of the core charge distribution:               0.00000003058342
  Self energy of the core charge distribution:               -461.29790893607498
  Core Hamiltonian energy:                                   -207.70201910563364
  Hartree energy:                                              62.43829271361908
  Exchange-correlation energy:                                -16.34145049202005

  GAPW| Exc from hard and soft atomic rho1:                   -37.87217386458290
  GAPW| local Eh = 1 center integrals:                         20.03636587731455

  Total energy:                                              -640.73889377679461

  outer SCF iter =    2 RMS gradient =   0.66E-06 energy =       -640.7388937768
  outer SCF loop converged in   2 iterations or   46 steps


 ENERGY| Total FORCE_EVAL ( QS ) energy [a.u.]:             -640.738893776794612

 -------------------------------------------------------------------------------
 -                                                                             -
 -                                DBCSR STATISTICS                             -
 -                                                                             -
 -------------------------------------------------------------------------------
 COUNTER                                    TOTAL       BLAS       SMM       ACC
 flops    21 x    21 x    21              7445844       0.0%    100.0%      0.0%
 flops    70 x    57 x    21              7876260       0.0%    100.0%      0.0%
 flops    70 x    70 x    21              9672600       0.0%    100.0%      0.0%
 flops    21 x    21 x    70             11483640       0.0%    100.0%      0.0%
 flops    57 x    70 x    21             15752520       0.0%    100.0%      0.0%
 flops    70 x    21 x    70             21814800       0.0%    100.0%      0.0%
 flops    57 x    21 x    21             23327136       0.0%    100.0%      0.0%
 flops   127 x    21 x    21             25987248       0.0%    100.0%      0.0%
 flops    21 x    21 x    57             28052892       0.0%    100.0%      0.0%
 flops   127 x    21 x    70             35844480       0.0%    100.0%      0.0%
 flops    57 x    57 x    21             38481156       0.0%    100.0%      0.0%
 flops    70 x    21 x    57             53290440       0.0%    100.0%      0.0%
 flops    57 x    21 x    70             85465800       0.0%    100.0%      0.0%
 flops   127 x    21 x    57             87562944       0.0%    100.0%      0.0%
 flops    57 x    21 x    57            208780740       0.0%    100.0%      0.0%
 flops inhomo. stacks                           0       0.0%      0.0%      0.0%
 flops total                       660.838500E+06       0.0%    100.0%      0.0%
 flops max/rank                    350.188272E+06       0.0%    100.0%      0.0%
 matmuls inhomo. stacks                         0       0.0%      0.0%      0.0%
 matmuls total                               5160       0.0%    100.0%      0.0%
 number of processed stacks                  5160       0.0%    100.0%      0.0%
 average stack size                                     0.0       1.0       0.0
 marketing flops                   704.134400E+06
 -------------------------------------------------------------------------------
 # multiplications                           1071
 max memory usage/rank             341.278720E+06
 # max total images/rank                        3
 # max 3D layers                                1
 # MPI messages exchanged                 1028160
 MPI messages size (bytes):
  total size                         1.314692E+09
  min size                           0.000000E+00
  max size                          71.120000E+03
  average size                       1.278684E+03
 MPI breakdown and total messages size (bytes):
             size <=      128              972561                        0
       128 < size <=     8192                6324                 22311072
      8192 < size <=    32768               40387                748310784
     32768 < size <=   131072                8888                544070032
    131072 < size <=  4194304                   0                        0
   4194304 < size <= 16777216                   0                        0
  16777216 < size                               0                        0
 -------------------------------------------------------------------------------

 *** WARNING in dbcsr_mm.F:290 :: Using a non-square number of MPI ranks ***
 *** might lead to poor performance. Used ranks: 48 Suggested: 49 100    ***

 -------------------------------------------------------------------------------
 -                                                                             -
 -                      DBCSR MESSAGE PASSING PERFORMANCE                      -
 -                                                                             -
 -------------------------------------------------------------------------------
 ROUTINE             CALLS      AVE VOLUME [Bytes]
 MP_Bcast               16                     12.
 MP_Allreduce         5747                      8.
 MP_Alltoall          3821                   4977.
 MP_ISend            47890                   1939.
 MP_IRecv            47212                   1106.
 -------------------------------------------------------------------------------

 -------------------------------------------------------------------------------
 -                                                                             -
 -                                GRID STATISTICS                              -
 -                                                                             -
 -------------------------------------------------------------------------------
 LP    KERNEL             BACKEND                              COUNT     PERCENT
 2     collocate ortho    REF                                  20445      10.21%
 2     integrate ortho    REF                                  20010       9.99%
 3     collocate ortho    REF                                  18142       9.06%
 3     integrate ortho    REF                                  17756       8.87%
 1     collocate ortho    REF                                  16826       8.40%
 1     integrate ortho    REF                                  16468       8.22%
 4     collocate ortho    REF                                  15322       7.65%
 4     integrate ortho    REF                                  14996       7.49%
 5     collocate ortho    REF                                   8930       4.46%
 2     collocate general  REF                                   8832       4.41%
 2     integrate general  REF                                   8832       4.41%
 5     integrate ortho    REF                                   8740       4.37%
 0     collocate ortho    REF                                   6157       3.08%
 0     integrate ortho    REF                                   6026       3.01%
 6     collocate ortho    REF                                   4089       2.04%
 6     integrate ortho    REF                                   4002       2.00%
 7     collocate ortho    REF                                   1880       0.94%
 7     integrate ortho    REF                                   1840       0.92%
 8     collocate ortho    REF                                    470       0.23%
 8     integrate ortho    REF                                    460       0.23%
 -------------------------------------------------------------------------------

 MEMORY| Estimated peak process memory [MiB]                                 326

 -------------------------------------------------------------------------------
 -                                                                             -
 -                         MESSAGE PASSING PERFORMANCE                         -
 -                                                                             -
 -------------------------------------------------------------------------------

 ROUTINE             CALLS      AVE VOLUME [Bytes]
 MP_Group                4
 MP_Bcast             1488                 116173.
 MP_Allreduce         4056                  99646.
 MP_Sync               108
 MP_Alltoall          1032                2882591.
 MP_ISendRecv        13113                  66752.
 MP_Wait             24398
 MP_comm_split          52
 MP_ISend            10360                 159452.
 MP_IRecv            10360                 159434.
 MP_Recv                30                   3856.
 -------------------------------------------------------------------------------


 -------------------------------------------------------------------------------
 -                                                                             -
 -                           R E F E R E N C E S                               -
 -                                                                             -
 -------------------------------------------------------------------------------
 
 CP2K version 10.0 (Development Version), the CP2K developers group (2022).
 CP2K is freely available from https://www.cp2k.org/ .

 Kuehne,Thomas D.; Iannuzzi,Marcella; Del Ben,Mauro;
 Rybkin,Vladimir V.; Seewald,Patrick; Stein,Frederick; Laino,Teodoro;
 Khaliullin,Rustam Z.; Schuett,Ole; Schiffmann,Florian; Golze,Dorothea;
 Wilhelm,Jan; Chulkov,Sergey; Bani-Hashemian,Mohammad Hossein;
 Weber,Valery; Borstnik,Urban; Taillefumier,Mathieu;
 Jakobovits,Alice Shoshana; Lazzaro,Alfio; Pabst,Hans; Mueller,Tiziano;
 Schade,Robert; Guidon,Manuel; Andermatt,Samuel; Holmberg,Nico;
 Schenter,Gregory K.; Hehn,Anna; Bussy,Augustin; Belleflamme,Fabian;
 Tabacchi,Gloria; Gloess,Andreas; Lass,Michael; Bethune,Iain;
 Mundy,Christopher J.; Plessl,Christian; Watkins,Matt;
 VandeVondele,Joost; Krack,Matthias; Hutter,Juerg. 
 The Journal of Chemical Physics, 152 (19), (2020). 
 CP2K: An electronic structure and molecular dynamics software package -
 Quickstep: Efficient and accurate electronic structure calculations.
 https://doi.org/10.1063/5.0007045

 Schuett, Ole; Messmer, Peter; Hutter, Juerg; VandeVondele, Joost. 
 Electronic Structure Calculations on Graphics Processing Units, John
 Wiley & Sons, Ltd, 173-190 (2016). 
 GPU-Accelerated Sparse Matrix-Matrix Multiplication for
 Linear Scaling Density Functional Theory.
 https://doi.org/10.1002/9781118670712.ch8

 Heinecke, A; Henry, G; Hutchinson, M; Pabst, H. 
 Proceedings of Intl. Supercomputing Conference, 981-991 (2016). 
 LIBXSMM: Accelerating Small Matrix Multiplications
 by Runtime Code Generation.
 https://doi.org/10.1109/SC.2016.83

 Borstnik, U; VandeVondele, J; Weber, V; Hutter, J. 
 PARALLEL COMPUTING, 40 (5-6), 47-58 (2014). 
 Sparse matrix multiplication: The distributed block-compressed sparse
 row library.
 https://doi.org/10.1016/j.parco.2014.03.012

 Hutter, J; Iannuzzi, M; Schiffmann, F; VandeVondele, J. 
 WIREs Comput Mol Sci., 4 (1), 15-25 (2014). 
 CP2K: atomistic simulations of condensed matter systems.
 https://doi.org/10.1002/wcms.1159

 Frigo, M; Johnson, SG. 
 PROCEEDINGS OF THE IEEE, 93 (2), 216-231 (2005). 
 The design and implementation of FFTW3.
 https://doi.org/10.1109/JPROC.2004.840301

 VandeVondele, J; Hutter, J. 
 JOURNAL OF CHEMICAL PHYSICS, 118 (10), 4365-4369 (2003). 
 An efficient orbital transformation method for electronic structure
 calculations.
 https://doi.org/10.1063/1.1543154

 Lippert, G; Hutter, J; Parrinello, M. 
 THEORETICAL CHEMISTRY ACCOUNTS, 103 (2), 124-140 (1999). 
 The Gaussian and augmented-plane-wave density functional method for ab
 initio molecular dynamics simulations.
 https://doi.org/10.1007/s002140050523

 Krack, M; Parrinello, M. 
 PHYSICAL CHEMISTRY CHEMICAL PHYSICS, 2 (10), 2105-2112 (2000). 
 All-electron ab-initio molecular dynamics.
 https://doi.org/10.1039/b001167n

 Perdew, JP; Burke, K; Ernzerhof, M. 
 PHYSICAL REVIEW LETTERS, 77 (18), 3865-3868 (1996). 
 Generalized gradient approximation made simple.
 https://doi.org/10.1103/PhysRevLett.77.3865


 -------------------------------------------------------------------------------
 -                                                                             -
 -                                T I M I N G                                  -
 -                                                                             -
 -------------------------------------------------------------------------------
 SUBROUTINE                       CALLS  ASD         SELF TIME        TOTAL TIME
                                MAXIMUM       AVERAGE  MAXIMUM  AVERAGE  MAXIMUM
 CP2K                                 1  1.0    0.007    0.030   33.966   33.970
 qs_energies                          1  2.0    0.000    0.000   33.762   33.765
 scf_env_do_scf                       1  3.0    0.000    0.000   33.536   33.540
 scf_env_do_scf_inner_loop           46  4.0    0.001    0.004   32.303   32.306
 qs_ks_update_qs_env                 48  5.0    0.000    0.001   26.509   26.520
 rebuild_ks_matrix                   46  6.0    0.000    0.000   26.501   26.509
 qs_ks_build_kohn_sham_matrix        46  7.0    0.009    0.011   26.501   26.509
 pw_transfer                        971 10.1    0.094    0.103    7.873    8.610
 fft_wrap_pw1pw2                    833 11.3    0.010    0.011    7.722    8.453
 fft_wrap_pw1pw2_250                554 12.7    0.435    0.520    7.313    8.042
 rs_pw_transfer                     464  9.5    0.011    0.013    7.483    7.831
 fft3d_ps                           833 13.3    2.728    3.251    6.361    7.121
 prepare_gapw_den                    46  8.0    0.001    0.002    6.340    6.381
 qs_vxc_create                       46  8.0    0.001    0.001    5.936    5.937
 xc_vxc_pw_create                    46  9.0    0.037    0.044    5.935    5.935
 qs_rho_update_rho                   47  5.0    0.001    0.001    5.721    5.726
 sum_up_and_integrate                46  8.0    0.016    0.020    5.509    5.516
 integrate_v_rspace                  46  9.0    0.001    0.001    5.493    5.502
 calculate_rho_elec                  47  6.0    0.019    0.022    5.467    5.468
 mp_sum_d                          1954  8.5    5.020    5.299    5.020    5.299
 xc_pw_derive                       276 11.0    0.003    0.003    4.190    4.915
 density_rs2pw                       47  7.0    0.002    0.003    4.307    4.603
 mp_alltoall_z22v                   833 15.3    3.095    4.123    3.095    4.123
 calculate_vxc_atom                  46  8.0    0.028    0.360    4.033    4.034
 xc_pw_divergence                    46 10.0    0.001    0.001    2.941    3.648
 rs_pw_transfer_RS2PW_250            93 10.0    1.377    1.632    3.249    3.587
 gaVxcgb_GC                          92  9.0    0.125    3.504    0.125    3.504
 xc_rho_set_and_dset_create          46 10.0    0.044    0.054    2.817    3.431
 calculate_rho_atom                  92  9.0    1.274    3.418    1.274    3.418
 potential_pw2rs                     46 10.0    0.003    0.004    2.977    2.981
 integrate_vhg0_rspace               46  8.0    0.388    0.535    2.921    2.946
 yz_to_x                            371 14.1    0.201    0.312    2.048    2.865
 mp_waitany                       10360 11.5    2.417    2.815    2.417    2.815
 calculate_rho0_atom                 92  9.0    2.443    2.658    2.443    2.658
 rs_pw_transfer_PW2RS_250            92 11.0    1.487    1.582    2.496    2.569
 mp_alltoall_d11v                   876 12.1    2.380    2.549    2.380    2.549
 grid_collocate_task_list            47  7.0    0.830    2.516    0.830    2.516
 rs_gather_matrices                  46 10.0    0.001    0.006    2.348    2.515
 grid_integrate_task_list            46 10.0    0.168    2.512    0.168    2.512
 put_rho0_on_grid                    46  9.0    0.024    0.041    2.001    2.042
 x_to_yz                            369 14.6    0.272    0.355    1.515    1.638
 mp_sum_dv                         1886 13.0    0.631    1.497    0.631    1.497
 mp_waitall_1                     99718 13.9    1.268    1.454    1.268    1.454
 xc_functional_eval                 230 10.9    0.001    0.001    0.846    1.412
 pbe_lda_eval                       230 11.9    0.846    1.411    0.846    1.411
 mp_sum_dm                          560  7.7    1.334    1.403    1.334    1.403
 qs_scf_new_mos                      46  5.0    0.000    0.000    1.302    1.308
 qs_scf_loop_do_ot                   46  6.0    0.000    0.000    1.302    1.307
 ot_scf_mini                         46  7.0    0.001    0.001    1.251    1.258
 dbcsr_multiply_generic            1071 10.2    0.032    0.033    1.211    1.235
 init_scf_loop                        2  4.0    0.000    0.000    1.233    1.233
 ot_mini                             46  8.0    0.000    0.000    0.772    0.779
 pw_gather_p                        418 12.9    0.443    0.761    0.443    0.761
 -------------------------------------------------------------------------------

 The number of warnings for this run is : 1
 
 -------------------------------------------------------------------------------
  **** **** ******  **  PROGRAM ENDED AT                 2022-05-11 22:36:30.167
 ***** ** ***  *** **   PROGRAM RAN ON                                   tcopt10
 **    ****   ******    PROGRAM RAN BY                                    hutter
 ***** **    ** ** **   PROGRAM PROCESS ID                                 49807
  **** **  *******  **  PROGRAM STOPPED IN /data/hutter/GITHUB/BASIS/scMOLOPT/PB
                                           E/alsipscl
