 DBCSR| CPU Multiplication driver                                           XSMM
 DBCSR| Multrec recursion limit                                              512
 DBCSR| Multiplication stack size                                           1000
 DBCSR| Maximum elements for images                                    UNLIMITED
 DBCSR| Multiplicative factor virtual images                                   1
 DBCSR| Use multiplication densification                                       T
 DBCSR| Multiplication size stacks                                             3
 DBCSR| Use memory pool for CPU allocation                                     F
 DBCSR| Number of 3D layers                                               SINGLE
 DBCSR| Use MPI memory allocation                                              F
 DBCSR| Use RMA algorithm                                                      F
 DBCSR| Use Communication thread                                               T
 DBCSR| Communication thread load                                             87
 DBCSR| MPI: My node id                                                        0
 DBCSR| MPI: Number of nodes                                                  48
 DBCSR| OMP: Current number of threads                                         1
 DBCSR| OMP: Max number of threads                                             1
 DBCSR| Split modifier for TAS multiplication algorithm                  1.0E+00


  **** **** ******  **  PROGRAM STARTED AT               2022-05-11 22:48:03.185
 ***** ** ***  *** **   PROGRAM STARTED ON                               tcopt10
 **    ****   ******    PROGRAM STARTED BY                                hutter
 ***** **    ** ** **   PROGRAM PROCESS ID                                 51962
  **** **  *******  **  PROGRAM STARTED IN /data/hutter/GITHUB/BASIS/scMOLOPT/PB
                                           E/alsipscl

 CP2K| version string:                   CP2K version 10.0 (Development Version)
 CP2K| source code revision number:                                  git:13fcfd8
 CP2K| cp2kflags: omp libint fftw3 libxc elpa parallel mpi3 scalapack cosma xsmm
 CP2K|             spglib sirius libvori libbqb
 CP2K| is freely available from                            https://www.cp2k.org/
 CP2K| Program compiled at                      Tue 10 May 2022 02:27:21 PM CEST
 CP2K| Program compiled on                                               tcopt10
 CP2K| Program compiled for                                                local
 CP2K| Data directory path                   /data/hutter/GITHUB/TDLRI/cp2k/data
 CP2K| Input file name                                               SF2-ref.inp

 GLOBAL| Force Environment number                                              1
 GLOBAL| Basis set file name                                        ../def2QZVPP
 GLOBAL| Potential file name                                        ../POTENTIAL
 GLOBAL| MM Potential file name                                     MM_POTENTIAL
 GLOBAL| Coordinate file name                                      __STD_INPUT__
 GLOBAL| Method name                                                        CP2K
 GLOBAL| Project name                                                     refSF2
 GLOBAL| Run type                                                         ENERGY
 GLOBAL| FFT library                                                       FFTW3
 GLOBAL| Diagonalization library                                       ScaLAPACK
 GLOBAL| Orthonormality check for eigenvectors                          DISABLED
 GLOBAL| Matrix multiplication library                                     COSMA
 GLOBAL| All-to-all communication in single precision                          F
 GLOBAL| FFTs using library dependent lengths                                  F
 GLOBAL| Grid backend                                                       AUTO
 GLOBAL| Global print level                                                  LOW
 GLOBAL| MPI I/O enabled                                                       T
 GLOBAL| Total number of message passing processes                            48
 GLOBAL| Number of threads for this process                                    1
 GLOBAL| This output is from process                                           0
 GLOBAL| Stack size for threads created by OpenMP (OMP_STACKSIZE)        default
 GLOBAL| CPU model name                          AMD EPYC 7401 24-Core Processor
 GLOBAL| CPUID                                                              1002

 MEMORY| system memory details [Kb]
 MEMORY|                        rank 0           min           max       average
 MEMORY| MemTotal            263969136     263969136     263969136     263969136
 MEMORY| MemFree             237925600     237925600     237925600     237925600
 MEMORY| Buffers                   136           136           136           136
 MEMORY| Cached               18905656      18905656      18905656      18905656
 MEMORY| Slab                  1428656       1428656       1428656       1428656
 MEMORY| SReclaimable           872172        872172        872172        872172
 MEMORY| MemLikelyFree       257703564     257703564     257703564     257703564


 GENERATE|  Preliminary Number of Bonds generated:                             0
 GENERATE|  Achieved consistency in connectivity generation.

 *******************************************************************************
 *******************************************************************************
 **                                                                           **
 **     #####                         ##              ##                      **
 **    ##   ##            ##          ##              ##                      **
 **   ##     ##                       ##            ######                    **
 **   ##     ##  ##   ##  ##   #####  ##  ##   ####   ##    #####    #####    **
 **   ##     ##  ##   ##  ##  ##      ## ##   ##      ##   ##   ##  ##   ##   **
 **   ##  ## ##  ##   ##  ##  ##      ####     ###    ##   ######   ######    **
 **    ##  ###   ##   ##  ##  ##      ## ##      ##   ##   ##       ##        **
 **     #######   #####   ##   #####  ##  ##  ####    ##    #####   ##        **
 **           ##                                                    ##        **
 **                                                                           **
 **                                                ... make the atoms dance   **
 **                                                                           **
 **            Copyright (C) by CP2K developers group (2000-2022)             **
 **                      J. Chem. Phys. 152, 194103 (2020)                    **
 **                                                                           **
 *******************************************************************************


 TOTAL NUMBERS AND MAXIMUM NUMBERS

  Total number of            - Atomic kinds:                                   2
                             - Atoms:                                          3
                             - Shell sets:                                    56
                             - Shells:                                        56
                             - Primitive Cartesian functions:                 99
                             - Cartesian basis functions:                    230
                             - Spherical basis functions:                    184

  Maximum angular momentum of the orbital basis functions:                     4


 SCF PARAMETERS         Density guess:                                    ATOMIC
                        --------------------------------------------------------
                        max_scf:                                              30
                        max_scf_history:                                       0
                        max_diis:                                              4
                        --------------------------------------------------------
                        eps_scf:                                        1.00E-06
                        eps_scf_history:                                0.00E+00
                        eps_diis:                                       1.00E-01
                        eps_eigval:                                     1.00E-05
                        --------------------------------------------------------
                        level_shift [a.u.]:                             0.000000
                        --------------------------------------------------------
                        Outer loop SCF in use 
                        No variables optimised in outer loop
                        eps_scf                                         1.00E-06
                        max_scf                                                5
                        No outer loop optimization
                        step_size                                       5.00E-01

 Number of electrons:                                                         34
 Number of occupied orbitals:                                                 17
 Number of molecular orbitals:                                                17

 Number of orbital functions:                                                184
 Number of independent orbital functions:                                    184

 Extrapolation method: initial_guess


 SCF WAVEFUNCTION OPTIMIZATION

  ----------------------------------- OT ---------------------------------------
  Minimizer      : DIIS                : direct inversion
                                         in the iterative subspace
                                         using   7 DIIS vectors
                                         safer DIIS on
  Preconditioner : FULL_ALL            : diagonalization, state selective
  Precond_solver : DEFAULT
  stepsize       :    0.10000000                  energy_gap     :    0.08000000
  eps_taylor     :   0.10000E-15                  max_taylor     :             4
  ----------------------------------- OT ---------------------------------------

  Step     Update method      Time    Convergence         Total energy    Change
  ------------------------------------------------------------------------------
     1 OT DIIS     0.10E+00    0.5     0.24329387      -576.1611566097 -5.76E+02
     2 OT DIIS     0.10E+00    0.6     0.13434846      -590.7243128523 -1.46E+01
     3 OT DIIS     0.10E+00    0.6     0.04466065      -595.6532647092 -4.93E+00
     4 OT DIIS     0.10E+00    0.6     0.02439538      -596.0135688715 -3.60E-01
     5 OT DIIS     0.10E+00    0.6     0.01651787      -596.2772080153 -2.64E-01
     6 OT DIIS     0.10E+00    0.6     0.01597713      -596.5275625471 -2.50E-01
     7 OT DIIS     0.10E+00    0.6     0.01316094      -596.6270478526 -9.95E-02
     8 OT DIIS     0.10E+00    0.6     0.00897059      -596.8882339407 -2.61E-01
     9 OT DIIS     0.10E+00    0.6     0.00677908      -597.0457483056 -1.58E-01
    10 OT DIIS     0.10E+00    0.6     0.00583425      -597.1227891299 -7.70E-02
    11 OT DIIS     0.10E+00    0.6     0.00554790      -597.1281373126 -5.35E-03
    12 OT DIIS     0.10E+00    0.6     0.00762283      -597.1670377119 -3.89E-02
    13 OT DIIS     0.10E+00    0.6     0.00441541      -597.2325498203 -6.55E-02
    14 OT DIIS     0.10E+00    0.6     0.00431075      -597.2576105197 -2.51E-02
    15 OT DIIS     0.10E+00    0.6     0.00331509      -597.2668567295 -9.25E-03
    16 OT DIIS     0.10E+00    0.6     0.00306942      -597.2776676879 -1.08E-02
    17 OT DIIS     0.10E+00    0.6     0.00270682      -597.2892904041 -1.16E-02
    18 OT DIIS     0.10E+00    0.6     0.00487145      -597.2971730521 -7.88E-03
    19 OT DIIS     0.10E+00    0.6     0.00425660      -597.3061315626 -8.96E-03
    20 OT DIIS     0.10E+00    0.6     0.00229229      -597.3125807969 -6.45E-03
    21 OT DIIS     0.10E+00    0.6     0.00216155      -597.3189297423 -6.35E-03
    22 OT DIIS     0.10E+00    0.6     0.00192444      -597.3379565080 -1.90E-02
    23 OT DIIS     0.10E+00    0.6     0.00177638      -597.3416815359 -3.73E-03
    24 OT DIIS     0.10E+00    0.6     0.00170490      -597.3458657860 -4.18E-03
    25 OT DIIS     0.10E+00    0.6     0.00164190      -597.3537678817 -7.90E-03
    26 OT DIIS     0.10E+00    0.6     0.00157752      -597.3592586426 -5.49E-03
    27 OT DIIS     0.10E+00    0.6     0.00148899      -597.3668679756 -7.61E-03
    28 OT DIIS     0.10E+00    0.6     0.00147986      -597.3696736956 -2.81E-03
    29 OT DIIS     0.10E+00    0.6     0.00147432      -597.3714918570 -1.82E-03
    30 OT DIIS     0.10E+00    0.6     0.00147558      -597.3714942754 -2.42E-06

  Leaving inner SCF loop after reaching    30 steps.


  Electronic density on regular grids:        -21.6508921863       12.3491078137
  Core density on regular grids:               34.0000000000        0.0000000000
  Hard and soft densities (Lebedev):          -40.1595777641      -27.8104679002
  Total Rho_soft + Rho1_hard - Rho1_soft      -34.0000020501
  Total charge density (r-space):              -0.0000020501
  Total Rho_soft + Rho0_soft (g-space):        -0.0000023422

  Overlap energy of the core charge distribution:               0.00000000562172
  Self energy of the core charge distribution:               -381.07027149843640
  Core Hamiltonian energy:                                   -237.61560473219924
  Hartree energy:                                              53.67730966093250
  Exchange-correlation energy:                                -12.79158839058261

  GAPW| Exc from hard and soft atomic rho1:                   -33.35151489229432
  GAPW| local Eh = 1 center integrals:                         13.78017557156214

  Total energy:                                              -597.37149427539634

  outer SCF iter =    1 RMS gradient =   0.15E-02 energy =       -597.3714942754

  ----------------------------------- OT ---------------------------------------
  Minimizer      : DIIS                : direct inversion
                                         in the iterative subspace
                                         using   7 DIIS vectors
                                         safer DIIS on
  Preconditioner : FULL_ALL            : diagonalization, state selective
  Precond_solver : DEFAULT
  stepsize       :    0.10000000                  energy_gap     :    0.08000000
  eps_taylor     :   0.10000E-15                  max_taylor     :             4
  ----------------------------------- OT ---------------------------------------

  Step     Update method      Time    Convergence         Total energy    Change
  ------------------------------------------------------------------------------
     1 OT DIIS     0.10E+00    1.2     0.01253289      -597.3716747103 -1.80E-04
     2 OT SD       0.10E+00    0.6     0.01579853      -597.4267544839 -5.51E-02
     3 OT SD       0.10E+00    0.6     0.01575465      -597.5063597506 -7.96E-02
     4 OT SD       0.10E+00    0.6     0.01066325      -597.5726023023 -6.62E-02
     5 OT SD       0.10E+00    0.6     0.00544495      -597.5992917782 -2.67E-02
     6 OT DIIS     0.10E+00    0.6     0.00275613      -597.6060785461 -6.79E-03
     7 OT DIIS     0.10E+00    0.6     0.00092179      -597.6085277159 -2.45E-03
     8 OT DIIS     0.10E+00    0.6     0.00170647      -597.6081054095  4.22E-04
     9 OT DIIS     0.10E+00    0.6     0.00029767      -597.6087547773 -6.49E-04
    10 OT DIIS     0.10E+00    0.6     0.00016116      -597.6087823165 -2.75E-05
    11 OT DIIS     0.10E+00    0.6     0.00004006      -597.6087891560 -6.84E-06
    12 OT DIIS     0.10E+00    0.6     0.00001911      -597.6087896385 -4.83E-07
    13 OT DIIS     0.10E+00    0.6     0.00000813      -597.6087897889 -1.50E-07
    14 OT DIIS     0.10E+00    0.6     0.00000379      -597.6087898074 -1.85E-08
    15 OT DIIS     0.10E+00    0.6     0.00000118      -597.6087898135 -6.01E-09
    16 OT DIIS     0.10E+00    0.6     0.00000056      -597.6087898140 -5.25E-10

  *** SCF run converged in    16 steps ***


  Electronic density on regular grids:        -21.6302222415       12.3697777585
  Core density on regular grids:               34.0000000000        0.0000000000
  Hard and soft densities (Lebedev):          -40.0920369032      -27.7222570088
  Total Rho_soft + Rho1_hard - Rho1_soft      -34.0000021360
  Total charge density (r-space):              -0.0000021360
  Total Rho_soft + Rho0_soft (g-space):        -0.0000024278

  Overlap energy of the core charge distribution:               0.00000000562172
  Self energy of the core charge distribution:               -381.07027149843640
  Core Hamiltonian energy:                                   -237.79155931867950
  Hartree energy:                                              53.62454082099667
  Exchange-correlation energy:                                -12.80451313739357

  GAPW| Exc from hard and soft atomic rho1:                   -33.37768153216312
  GAPW| local Eh = 1 center integrals:                         13.81069484607839

  Total energy:                                              -597.60878981397582

  outer SCF iter =    2 RMS gradient =   0.56E-06 energy =       -597.6087898140
  outer SCF loop converged in   2 iterations or   46 steps


 ENERGY| Total FORCE_EVAL ( QS ) energy [a.u.]:             -597.608789813975818

 -------------------------------------------------------------------------------
 -                                                                             -
 -                                DBCSR STATISTICS                             -
 -                                                                             -
 -------------------------------------------------------------------------------
 COUNTER                                    TOTAL       BLAS       SMM       ACC
 flops    17 x    17 x    17              3950052       0.0%    100.0%      0.0%
 flops    57 x    70 x    17              6376020       0.0%    100.0%      0.0%
 flops    70 x    57 x    17              6376020       0.0%    100.0%      0.0%
 flops    17 x    17 x    70              7525560       0.0%    100.0%      0.0%
 flops    57 x    17 x    17              7643472       0.0%    100.0%      0.0%
 flops    70 x    70 x    17              7830200       0.0%    100.0%      0.0%
 flops    17 x    17 x    57             12255912       0.0%    100.0%      0.0%
 flops    57 x    57 x    17             15575706       0.0%    100.0%      0.0%
 flops   127 x    17 x    17             17030192       0.0%    100.0%      0.0%
 flops    70 x    17 x    70             17659600       0.0%    100.0%      0.0%
 flops    70 x    17 x    57             28759920       0.0%    100.0%      0.0%
 flops   127 x    17 x    70             29016960       0.0%    100.0%      0.0%
 flops    57 x    17 x    70             41783280       0.0%    100.0%      0.0%
 flops   127 x    17 x    57             47256192       0.0%    100.0%      0.0%
 flops    57 x    17 x    57             68047056       0.0%    100.0%      0.0%
 flops inhomo. stacks                           0       0.0%      0.0%      0.0%
 flops total                       317.086142E+06       0.0%    100.0%      0.0%
 flops max/rank                    209.083340E+06       0.0%    100.0%      0.0%
 matmuls inhomo. stacks                         0       0.0%      0.0%      0.0%
 matmuls total                               3236       0.0%    100.0%      0.0%
 number of processed stacks                  3236       0.0%    100.0%      0.0%
 average stack size                                     0.0       1.0       0.0
 marketing flops                   335.241216E+06
 -------------------------------------------------------------------------------
 # multiplications                           1071
 max memory usage/rank             338.366464E+06
 # max total images/rank                        3
 # max 3D layers                                1
 # MPI messages exchanged                 1028160
 MPI messages size (bytes):
  total size                       777.099456E+06
  min size                           0.000000E+00
  max size                          71.120000E+03
  average size                     755.815674E+00
 MPI breakdown and total messages size (bytes):
             size <=      128              992313                        0
       128 < size <=     8192               16095                 90365880
      8192 < size <=    32768               13086                271343976
     32768 < size <=   131072                6666                415389568
    131072 < size <=  4194304                   0                        0
   4194304 < size <= 16777216                   0                        0
  16777216 < size                               0                        0
 -------------------------------------------------------------------------------

 *** WARNING in dbcsr_mm.F:290 :: Using a non-square number of MPI ranks ***
 *** might lead to poor performance. Used ranks: 48 Suggested: 49 100    ***

 -------------------------------------------------------------------------------
 -                                                                             -
 -                      DBCSR MESSAGE PASSING PERFORMANCE                      -
 -                                                                             -
 -------------------------------------------------------------------------------
 ROUTINE             CALLS      AVE VOLUME [Bytes]
 MP_Bcast               16                     12.
 MP_Allreduce         5747                      8.
 MP_Alltoall          3821                   4554.
 MP_ISend            47678                   1383.
 MP_IRecv            47424                    780.
 -------------------------------------------------------------------------------

 -------------------------------------------------------------------------------
 -                                                                             -
 -                                GRID STATISTICS                              -
 -                                                                             -
 -------------------------------------------------------------------------------
 LP    KERNEL             BACKEND                              COUNT     PERCENT
 2     collocate ortho    REF                                  12314       9.93%
 2     integrate ortho    REF                                  12052       9.72%
 3     collocate ortho    REF                                  11280       9.10%
 3     integrate ortho    REF                                  11040       8.90%
 1     collocate ortho    REF                                  10058       8.11%
 1     integrate ortho    REF                                   9844       7.94%
 4     collocate ortho    REF                                   9024       7.28%
 4     integrate ortho    REF                                   8832       7.12%
 2     collocate general  REF                                   6624       5.34%
 2     integrate general  REF                                   6624       5.34%
 5     collocate ortho    REF                                   5452       4.40%
 5     integrate ortho    REF                                   5336       4.30%
 0     collocate ortho    REF                                   3854       3.11%
 0     integrate ortho    REF                                   3772       3.04%
 6     collocate ortho    REF                                   2585       2.08%
 6     integrate ortho    REF                                   2530       2.04%
 7     collocate ortho    REF                                   1128       0.91%
 7     integrate ortho    REF                                   1104       0.89%
 8     collocate ortho    REF                                    282       0.23%
 8     integrate ortho    REF                                    276       0.22%
 -------------------------------------------------------------------------------

 MEMORY| Estimated peak process memory [MiB]                                 323

 -------------------------------------------------------------------------------
 -                                                                             -
 -                         MESSAGE PASSING PERFORMANCE                         -
 -                                                                             -
 -------------------------------------------------------------------------------

 ROUTINE             CALLS      AVE VOLUME [Bytes]
 MP_Group                4
 MP_Bcast             1106                 152317.
 MP_Allreduce         3191                 104400.
 MP_Sync               108
 MP_Alltoall          1032                4133161.
 MP_ISendRecv        13113                  66752.
 MP_Wait             24398
 MP_comm_split          52
 MP_ISend            10360                 159452.
 MP_IRecv            10360                 159434.
 MP_Recv                24                   2944.
 -------------------------------------------------------------------------------


 -------------------------------------------------------------------------------
 -                                                                             -
 -                           R E F E R E N C E S                               -
 -                                                                             -
 -------------------------------------------------------------------------------
 
 CP2K version 10.0 (Development Version), the CP2K developers group (2022).
 CP2K is freely available from https://www.cp2k.org/ .

 Kuehne,Thomas D.; Iannuzzi,Marcella; Del Ben,Mauro;
 Rybkin,Vladimir V.; Seewald,Patrick; Stein,Frederick; Laino,Teodoro;
 Khaliullin,Rustam Z.; Schuett,Ole; Schiffmann,Florian; Golze,Dorothea;
 Wilhelm,Jan; Chulkov,Sergey; Bani-Hashemian,Mohammad Hossein;
 Weber,Valery; Borstnik,Urban; Taillefumier,Mathieu;
 Jakobovits,Alice Shoshana; Lazzaro,Alfio; Pabst,Hans; Mueller,Tiziano;
 Schade,Robert; Guidon,Manuel; Andermatt,Samuel; Holmberg,Nico;
 Schenter,Gregory K.; Hehn,Anna; Bussy,Augustin; Belleflamme,Fabian;
 Tabacchi,Gloria; Gloess,Andreas; Lass,Michael; Bethune,Iain;
 Mundy,Christopher J.; Plessl,Christian; Watkins,Matt;
 VandeVondele,Joost; Krack,Matthias; Hutter,Juerg. 
 The Journal of Chemical Physics, 152 (19), (2020). 
 CP2K: An electronic structure and molecular dynamics software package -
 Quickstep: Efficient and accurate electronic structure calculations.
 https://doi.org/10.1063/5.0007045

 Schuett, Ole; Messmer, Peter; Hutter, Juerg; VandeVondele, Joost. 
 Electronic Structure Calculations on Graphics Processing Units, John
 Wiley & Sons, Ltd, 173-190 (2016). 
 GPU-Accelerated Sparse Matrix-Matrix Multiplication for
 Linear Scaling Density Functional Theory.
 https://doi.org/10.1002/9781118670712.ch8

 Heinecke, A; Henry, G; Hutchinson, M; Pabst, H. 
 Proceedings of Intl. Supercomputing Conference, 981-991 (2016). 
 LIBXSMM: Accelerating Small Matrix Multiplications
 by Runtime Code Generation.
 https://doi.org/10.1109/SC.2016.83

 Borstnik, U; VandeVondele, J; Weber, V; Hutter, J. 
 PARALLEL COMPUTING, 40 (5-6), 47-58 (2014). 
 Sparse matrix multiplication: The distributed block-compressed sparse
 row library.
 https://doi.org/10.1016/j.parco.2014.03.012

 Hutter, J; Iannuzzi, M; Schiffmann, F; VandeVondele, J. 
 WIREs Comput Mol Sci., 4 (1), 15-25 (2014). 
 CP2K: atomistic simulations of condensed matter systems.
 https://doi.org/10.1002/wcms.1159

 Frigo, M; Johnson, SG. 
 PROCEEDINGS OF THE IEEE, 93 (2), 216-231 (2005). 
 The design and implementation of FFTW3.
 https://doi.org/10.1109/JPROC.2004.840301

 VandeVondele, J; Hutter, J. 
 JOURNAL OF CHEMICAL PHYSICS, 118 (10), 4365-4369 (2003). 
 An efficient orbital transformation method for electronic structure
 calculations.
 https://doi.org/10.1063/1.1543154

 Lippert, G; Hutter, J; Parrinello, M. 
 THEORETICAL CHEMISTRY ACCOUNTS, 103 (2), 124-140 (1999). 
 The Gaussian and augmented-plane-wave density functional method for ab
 initio molecular dynamics simulations.
 https://doi.org/10.1007/s002140050523

 Krack, M; Parrinello, M. 
 PHYSICAL CHEMISTRY CHEMICAL PHYSICS, 2 (10), 2105-2112 (2000). 
 All-electron ab-initio molecular dynamics.
 https://doi.org/10.1039/b001167n

 Perdew, JP; Burke, K; Ernzerhof, M. 
 PHYSICAL REVIEW LETTERS, 77 (18), 3865-3868 (1996). 
 Generalized gradient approximation made simple.
 https://doi.org/10.1103/PhysRevLett.77.3865


 -------------------------------------------------------------------------------
 -                                                                             -
 -                                T I M I N G                                  -
 -                                                                             -
 -------------------------------------------------------------------------------
 SUBROUTINE                       CALLS  ASD         SELF TIME        TOTAL TIME
                                MAXIMUM       AVERAGE  MAXIMUM  AVERAGE  MAXIMUM
 CP2K                                 1  1.0    0.007    0.026   28.391   28.392
 qs_energies                          1  2.0    0.000    0.000   28.196   28.197
 scf_env_do_scf                       1  3.0    0.000    0.000   28.038   28.038
 scf_env_do_scf_inner_loop           46  4.0    0.001    0.004   27.036   27.036
 qs_ks_update_qs_env                 48  5.0    0.000    0.001   22.061   22.073
 rebuild_ks_matrix                   46  6.0    0.000    0.000   22.053   22.064
 qs_ks_build_kohn_sham_matrix        46  7.0    0.009    0.011   22.053   22.063
 pw_transfer                        971 10.1    0.093    0.101    8.090    8.779
 fft_wrap_pw1pw2                    833 11.3    0.010    0.011    7.939    8.628
 fft_wrap_pw1pw2_250                554 12.7    0.436    0.510    7.515    8.208
 fft3d_ps                           833 13.3    2.777    3.268    6.583    7.268
 rs_pw_transfer                     464  9.5    0.011    0.013    6.550    6.846
 qs_vxc_create                       46  8.0    0.001    0.001    6.038    6.038
 xc_vxc_pw_create                    46  9.0    0.037    0.044    6.037    6.037
 prepare_gapw_den                    46  8.0    0.001    0.002    5.708    5.734
 xc_pw_derive                       276 11.0    0.003    0.003    4.358    5.034
 qs_rho_update_rho                   47  5.0    0.001    0.001    4.682    4.687
 calculate_rho_elec                  47  6.0    0.019    0.022    4.493    4.493
 mp_alltoall_z22v                   833 15.3    3.279    4.238    3.279    4.238
 density_rs2pw                       47  7.0    0.003    0.003    3.418    3.680
 xc_pw_divergence                    46 10.0    0.001    0.001    2.943    3.623
 sum_up_and_integrate                46  8.0    0.016    0.020    3.613    3.616
 mp_sum_d                          1809  8.2    3.358    3.610    3.358    3.610
 integrate_v_rspace                  46  9.0    0.001    0.001    3.597    3.602
 xc_rho_set_and_dset_create          46 10.0    0.044    0.054    2.886    3.447
 potential_pw2rs                     46 10.0    0.003    0.003    2.974    2.978
 yz_to_x                            371 14.1    0.194    0.295    2.020    2.748
 integrate_vhg0_rspace               46  8.0    0.310    0.439    2.643    2.663
 rs_pw_transfer_RS2PW_250            93 10.0    1.458    1.646    2.332    2.632
 calculate_rho_atom                  92  9.0    1.256    2.629    1.256    2.629
 rs_pw_transfer_PW2RS_250            92 11.0    1.475    1.575    2.481    2.574
 calculate_vxc_atom                  46  8.0    0.024    0.189    2.539    2.541
 gaVxcgb_GC                          46  9.0    0.099    2.263    0.099    2.263
 calculate_rho0_atom                 92  9.0    2.058    2.216    2.058    2.216
 put_rho0_on_grid                    46  9.0    0.024    0.029    1.988    2.014
 x_to_yz                            369 14.6    0.270    0.356    1.718    1.884
 mp_waitany                       10360 11.5    1.413    1.685    1.413    1.685
 mp_waitall_1                     99718 13.9    1.258    1.469    1.258    1.469
 xc_functional_eval                 138 10.9    0.001    0.001    0.736    1.323
 pbe_lda_eval                       138 11.9    0.735    1.322    0.735    1.322
 qs_scf_new_mos                      46  5.0    0.000    0.001    1.288    1.292
 qs_scf_loop_do_ot                   46  6.0    0.000    0.000    1.288    1.292
 ot_scf_mini                         46  7.0    0.001    0.001    1.237    1.241
 grid_collocate_task_list            47  7.0    0.778    1.223    0.778    1.223
 dbcsr_multiply_generic            1071 10.2    0.032    0.032    1.189    1.213
 mp_sum_dm                          420  7.7    1.086    1.127    1.086    1.127
 init_scf_loop                        2  4.0    0.000    0.000    1.001    1.001
 mp_sum_dv                         1306 13.0    0.411    0.869    0.411    0.869
 ot_mini                             46  8.0    0.000    0.000    0.783    0.787
 rs_pw_transfer_PW2RS_90             46 12.0    0.173    0.197    0.643    0.681
 mp_alltoall_d11v                   876 12.1    0.544    0.654    0.544    0.654
 qs_ot_get_derivative                46  9.0    0.000    0.000    0.627    0.630
 rs_gather_matrices                  46 10.0    0.001    0.004    0.512    0.622
 rs_grid_zero                       184 10.8    0.587    0.621    0.587    0.621
 grid_integrate_task_list            46 10.0    0.109    0.619    0.109    0.619
 multiply_cannon                   1071 11.2    0.092    0.099    0.504    0.573
 -------------------------------------------------------------------------------

 The number of warnings for this run is : 1
 
 -------------------------------------------------------------------------------
  **** **** ******  **  PROGRAM ENDED AT                 2022-05-11 22:48:32.009
 ***** ** ***  *** **   PROGRAM RAN ON                                   tcopt10
 **    ****   ******    PROGRAM RAN BY                                    hutter
 ***** **    ** ** **   PROGRAM PROCESS ID                                 51962
  **** **  *******  **  PROGRAM STOPPED IN /data/hutter/GITHUB/BASIS/scMOLOPT/PB
                                           E/alsipscl
