 DBCSR| CPU Multiplication driver                                           XSMM
 DBCSR| Multrec recursion limit                                              512
 DBCSR| Multiplication stack size                                           1000
 DBCSR| Maximum elements for images                                    UNLIMITED
 DBCSR| Multiplicative factor virtual images                                   1
 DBCSR| Use multiplication densification                                       T
 DBCSR| Multiplication size stacks                                             3
 DBCSR| Use memory pool for CPU allocation                                     F
 DBCSR| Number of 3D layers                                               SINGLE
 DBCSR| Use MPI memory allocation                                              F
 DBCSR| Use RMA algorithm                                                      F
 DBCSR| Use Communication thread                                               T
 DBCSR| Communication thread load                                             87
 DBCSR| MPI: My node id                                                        0
 DBCSR| MPI: Number of nodes                                                  48
 DBCSR| OMP: Current number of threads                                         1
 DBCSR| OMP: Max number of threads                                             1
 DBCSR| Split modifier for TAS multiplication algorithm                  1.0E+00


  **** **** ******  **  PROGRAM STARTED AT               2022-05-11 22:06:19.961
 ***** ** ***  *** **   PROGRAM STARTED ON                               tcopt10
 **    ****   ******    PROGRAM STARTED BY                                hutter
 ***** **    ** ** **   PROGRAM PROCESS ID                                 45774
  **** **  *******  **  PROGRAM STARTED IN /data/hutter/GITHUB/BASIS/scMOLOPT/PB
                                           E/alsipscl

 CP2K| version string:                   CP2K version 10.0 (Development Version)
 CP2K| source code revision number:                                  git:13fcfd8
 CP2K| cp2kflags: omp libint fftw3 libxc elpa parallel mpi3 scalapack cosma xsmm
 CP2K|             spglib sirius libvori libbqb
 CP2K| is freely available from                            https://www.cp2k.org/
 CP2K| Program compiled at                      Tue 10 May 2022 02:27:21 PM CEST
 CP2K| Program compiled on                                               tcopt10
 CP2K| Program compiled for                                                local
 CP2K| Data directory path                   /data/hutter/GITHUB/TDLRI/cp2k/data
 CP2K| Input file name                                               SF6-ref.inp

 GLOBAL| Force Environment number                                              1
 GLOBAL| Basis set file name                                        ../def2QZVPP
 GLOBAL| Potential file name                                        ../POTENTIAL
 GLOBAL| MM Potential file name                                     MM_POTENTIAL
 GLOBAL| Coordinate file name                                      __STD_INPUT__
 GLOBAL| Method name                                                        CP2K
 GLOBAL| Project name                                                     refSF6
 GLOBAL| Run type                                                         ENERGY
 GLOBAL| FFT library                                                       FFTW3
 GLOBAL| Diagonalization library                                       ScaLAPACK
 GLOBAL| Orthonormality check for eigenvectors                          DISABLED
 GLOBAL| Matrix multiplication library                                     COSMA
 GLOBAL| All-to-all communication in single precision                          F
 GLOBAL| FFTs using library dependent lengths                                  F
 GLOBAL| Grid backend                                                       AUTO
 GLOBAL| Global print level                                                  LOW
 GLOBAL| MPI I/O enabled                                                       T
 GLOBAL| Total number of message passing processes                            48
 GLOBAL| Number of threads for this process                                    1
 GLOBAL| This output is from process                                           0
 GLOBAL| Stack size for threads created by OpenMP (OMP_STACKSIZE)        default
 GLOBAL| CPU model name                          AMD EPYC 7401 24-Core Processor
 GLOBAL| CPUID                                                              1002

 MEMORY| system memory details [Kb]
 MEMORY|                        rank 0           min           max       average
 MEMORY| MemTotal            263969136     263969136     263969136     263969136
 MEMORY| MemFree             237897464     237897464     237897464     237897464
 MEMORY| Buffers                   136           136           136           136
 MEMORY| Cached               18905308      18905308      18905308      18905308
 MEMORY| Slab                  1426484       1426484       1426484       1426484
 MEMORY| SReclaimable           872864        872864        872864        872864
 MEMORY| MemLikelyFree       257675772     257675772     257675772     257675772


 GENERATE|  Preliminary Number of Bonds generated:                             0
 GENERATE|  Achieved consistency in connectivity generation.

 *******************************************************************************
 *******************************************************************************
 **                                                                           **
 **     #####                         ##              ##                      **
 **    ##   ##            ##          ##              ##                      **
 **   ##     ##                       ##            ######                    **
 **   ##     ##  ##   ##  ##   #####  ##  ##   ####   ##    #####    #####    **
 **   ##     ##  ##   ##  ##  ##      ## ##   ##      ##   ##   ##  ##   ##   **
 **   ##  ## ##  ##   ##  ##  ##      ####     ###    ##   ######   ######    **
 **    ##  ###   ##   ##  ##  ##      ## ##      ##   ##   ##       ##        **
 **     #######   #####   ##   #####  ##  ##  ####    ##    #####   ##        **
 **           ##                                                    ##        **
 **                                                                           **
 **                                                ... make the atoms dance   **
 **                                                                           **
 **            Copyright (C) by CP2K developers group (2000-2022)             **
 **                      J. Chem. Phys. 152, 194103 (2020)                    **
 **                                                                           **
 *******************************************************************************


 TOTAL NUMBERS AND MAXIMUM NUMBERS

  Total number of            - Atomic kinds:                                   2
                             - Atoms:                                          7
                             - Shell sets:                                   124
                             - Shells:                                       124
                             - Primitive Cartesian functions:                215
                             - Cartesian basis functions:                    518
                             - Spherical basis functions:                    412

  Maximum angular momentum of the orbital basis functions:                     4


 SCF PARAMETERS         Density guess:                                    ATOMIC
                        --------------------------------------------------------
                        max_scf:                                              10
                        max_scf_history:                                       0
                        max_diis:                                              4
                        --------------------------------------------------------
                        eps_scf:                                        1.00E-07
                        eps_scf_history:                                0.00E+00
                        eps_diis:                                       1.00E-01
                        eps_eigval:                                     1.00E-05
                        --------------------------------------------------------
                        level_shift [a.u.]:                             0.000000
                        --------------------------------------------------------
                        Outer loop SCF in use 
                        No variables optimised in outer loop
                        eps_scf                                         1.00E-07
                        max_scf                                               10
                        No outer loop optimization
                        step_size                                       5.00E-01

 Number of electrons:                                                         70
 Number of occupied orbitals:                                                 35
 Number of molecular orbitals:                                                35

 Number of orbital functions:                                                412
 Number of independent orbital functions:                                    412

 Extrapolation method: initial_guess


 SCF WAVEFUNCTION OPTIMIZATION

  ----------------------------------- OT ---------------------------------------
  Minimizer      : DIIS                : direct inversion
                                         in the iterative subspace
                                         using   7 DIIS vectors
                                         safer DIIS on
  Preconditioner : FULL_ALL            : diagonalization, state selective
  Precond_solver : DEFAULT
  stepsize       :    0.15000000                  energy_gap     :    0.08000000
  eps_taylor     :   0.10000E-15                  max_taylor     :             4
  ----------------------------------- OT ---------------------------------------

  Step     Update method      Time    Convergence         Total energy    Change
  ------------------------------------------------------------------------------
     1 OT DIIS     0.15E+00    0.7     0.13729196      -972.5877440751 -9.73E+02
     2 OT DIIS     0.15E+00    0.8     0.05484443      -992.0912224301 -1.95E+01
     3 OT DIIS     0.15E+00    0.8     0.02692754      -993.9823365710 -1.89E+00
     4 OT DIIS     0.15E+00    0.8     0.00983670      -994.6797110825 -6.97E-01
     5 OT DIIS     0.15E+00    0.8     0.00669569      -994.8843820884 -2.05E-01
     6 OT DIIS     0.15E+00    0.8     0.00566447      -995.0337369613 -1.49E-01
     7 OT DIIS     0.15E+00    0.8     0.00515593      -995.1884683481 -1.55E-01
     8 OT SD       0.15E+00    0.8     0.00523482      -995.2958425201 -1.07E-01
     9 OT SD       0.15E+00    0.8     0.00530688      -995.3550640411 -5.92E-02
    10 OT SD       0.15E+00    0.8     0.00538372      -995.4161723662 -6.11E-02

  Leaving inner SCF loop after reaching    10 steps.


  Electronic density on regular grids:        -47.9465279975       22.0534720025
  Core density on regular grids:               70.0000000000        0.0000000000
  Hard and soft densities (Lebedev):          -91.7741779027      -69.7207017745
  Total Rho_soft + Rho1_hard - Rho1_soft      -70.0000041257
  Total charge density (r-space):              -0.0000041257
  Total Rho_soft + Rho0_soft (g-space):        -0.0000047199

  Overlap energy of the core charge distribution:               0.00000003687414
  Self energy of the core charge distribution:               -799.32383023762918
  Core Hamiltonian energy:                                   -253.91489930122626
  Hartree energy:                                             107.12959395233564
  Exchange-correlation energy:                                -29.59573905975149

  GAPW| Exc from hard and soft atomic rho1:                   -58.27193965318286
  GAPW| local Eh = 1 center integrals:                         38.56064189639432

  Total energy:                                              -995.41617236618572

  outer SCF iter =    1 RMS gradient =   0.54E-02 energy =       -995.4161723662

  ----------------------------------- OT ---------------------------------------
  Minimizer      : DIIS                : direct inversion
                                         in the iterative subspace
                                         using   7 DIIS vectors
                                         safer DIIS on
  Preconditioner : FULL_ALL            : diagonalization, state selective
  Precond_solver : DEFAULT
  stepsize       :    0.15000000                  energy_gap     :    0.08000000
  eps_taylor     :   0.10000E-15                  max_taylor     :             4
  ----------------------------------- OT ---------------------------------------

  Step     Update method      Time    Convergence         Total energy    Change
  ------------------------------------------------------------------------------
     1 OT DIIS     0.15E+00    1.6     0.03174912      -995.4790050097 -6.28E-02
     2 OT DIIS     0.15E+00    0.8     0.03115505      -996.0367379136 -5.58E-01
     3 OT DIIS     0.15E+00    0.8     0.01500786      -996.6759107539 -6.39E-01
     4 OT DIIS     0.15E+00    0.8     0.00811598      -996.7856515160 -1.10E-01
     5 OT DIIS     0.15E+00    0.8     0.00984076      -996.7864731444 -8.22E-04
     6 OT DIIS     0.15E+00    0.8     0.00423138      -996.8111529671 -2.47E-02
     7 OT DIIS     0.15E+00    0.8     0.00146470      -996.8160640538 -4.91E-03
     8 OT DIIS     0.15E+00    0.8     0.00074349      -996.8168990796 -8.35E-04
     9 OT DIIS     0.15E+00    0.8     0.00026842      -996.8171643310 -2.65E-04
    10 OT DIIS     0.15E+00    0.8     0.00020714      -996.8172064380 -4.21E-05

  Leaving inner SCF loop after reaching    10 steps.


  Electronic density on regular grids:        -47.8399045015       22.1600954985
  Core density on regular grids:               70.0000000000        0.0000000000
  Hard and soft densities (Lebedev):          -89.7853330634      -67.6252307017
  Total Rho_soft + Rho1_hard - Rho1_soft      -70.0000068632
  Total charge density (r-space):              -0.0000068632
  Total Rho_soft + Rho0_soft (g-space):        -0.0000074564

  Overlap energy of the core charge distribution:               0.00000003687414
  Self energy of the core charge distribution:               -799.32383023762918
  Core Hamiltonian energy:                                   -255.91187266877873
  Hartree energy:                                             108.18431269562269
  Exchange-correlation energy:                                -29.51607252263501

  GAPW| Exc from hard and soft atomic rho1:                   -58.29522339042937
  GAPW| local Eh = 1 center integrals:                         38.04547964901656

  Total energy:                                              -996.81720643795882

  outer SCF iter =    2 RMS gradient =   0.21E-03 energy =       -996.8172064380

  ----------------------------------- OT ---------------------------------------
  Minimizer      : DIIS                : direct inversion
                                         in the iterative subspace
                                         using   7 DIIS vectors
                                         safer DIIS on
  Preconditioner : FULL_ALL            : diagonalization, state selective
  Precond_solver : DEFAULT
  stepsize       :    0.15000000                  energy_gap     :    0.08000000
  eps_taylor     :   0.10000E-15                  max_taylor     :             4
  ----------------------------------- OT ---------------------------------------

  Step     Update method      Time    Convergence         Total energy    Change
  ------------------------------------------------------------------------------
     1 OT DIIS     0.15E+00    1.6     0.00008645      -996.8172235259 -1.71E-05
     2 OT DIIS     0.15E+00    0.8     0.00005169      -996.8172319120 -8.39E-06
     3 OT DIIS     0.15E+00    0.8     0.00002690      -996.8172336910 -1.78E-06
     4 OT DIIS     0.15E+00    0.8     0.00000404      -996.8172343801 -6.89E-07
     5 OT DIIS     0.15E+00    0.8     0.00000108      -996.8172343920 -1.19E-08
     6 OT DIIS     0.15E+00    0.8     0.00000015      -996.8172343984 -6.37E-09
     7 OT DIIS     0.15E+00    0.8     0.00000008      -996.8172344044 -5.98E-09

  *** SCF run converged in     7 steps ***


  Electronic density on regular grids:        -47.8398062897       22.1601937103
  Core density on regular grids:               70.0000000000        0.0000000000
  Hard and soft densities (Lebedev):          -89.7850969617      -67.6248963854
  Total Rho_soft + Rho1_hard - Rho1_soft      -70.0000068660
  Total charge density (r-space):              -0.0000068660
  Total Rho_soft + Rho0_soft (g-space):        -0.0000074592

  Overlap energy of the core charge distribution:               0.00000003687414
  Self energy of the core charge distribution:               -799.32383023762918
  Core Hamiltonian energy:                                   -255.91145760667212
  Hartree energy:                                             108.18441184737209
  Exchange-correlation energy:                                -29.51576103134904

  GAPW| Exc from hard and soft atomic rho1:                   -58.29520033324530
  GAPW| local Eh = 1 center integrals:                         38.04460292026017

  Total energy:                                              -996.81723440438918

  outer SCF iter =    3 RMS gradient =   0.78E-07 energy =       -996.8172344044
  outer SCF loop converged in   3 iterations or   27 steps


 ENERGY| Total FORCE_EVAL ( QS ) energy [a.u.]:             -996.817234404389183

 -------------------------------------------------------------------------------
 -                                                                             -
 -                                DBCSR STATISTICS                             -
 -                                                                             -
 -------------------------------------------------------------------------------
 COUNTER                                    TOTAL       BLAS       SMM       ACC
 flops    70 x     3 x     3                 3780       0.0%    100.0%      0.0%
 flops     3 x     3 x     3                11124       0.0%    100.0%      0.0%
 flops     3 x     3 x    32               118656       0.0%    100.0%      0.0%
 flops     3 x    32 x     3               118656       0.0%    100.0%      0.0%
 flops    32 x     3 x     3               118656       0.0%    100.0%      0.0%
 flops     3 x     3 x    70               139860       0.0%    100.0%      0.0%
 flops    57 x     3 x     3               156978       0.0%    100.0%      0.0%
 flops   127 x     3 x     3               308610       0.0%    100.0%      0.0%
 flops    70 x    32 x    32               430080       0.0%    100.0%      0.0%
 flops   114 x     3 x     3               554040       0.0%    100.0%      0.0%
 flops     3 x     3 x    57               683316       0.0%    100.0%      0.0%
 flops    70 x    70 x     3               823200       0.0%    100.0%      0.0%
 flops    32 x    32 x     3              1265664       0.0%    100.0%      0.0%
 flops     3 x    32 x    32              1265664       0.0%    100.0%      0.0%
 flops    32 x     3 x    32              1265664       0.0%    100.0%      0.0%
 flops    57 x     3 x    32              1477440       0.0%    100.0%      0.0%
 flops    57 x    32 x     3              1477440       0.0%    100.0%      0.0%
 flops     3 x    32 x    70              1491840       0.0%    100.0%      0.0%
 flops    32 x     3 x    70              1491840       0.0%    100.0%      0.0%
 flops    57 x    70 x     3              2010960       0.0%    100.0%      0.0%
 flops    70 x    57 x     3              2010960       0.0%    100.0%      0.0%
 flops    70 x     3 x    70              2175600       0.0%    100.0%      0.0%
 flops   127 x     3 x    70              3200400       0.0%    100.0%      0.0%
 flops   127 x    32 x     3              3291840       0.0%    100.0%      0.0%
 flops   127 x     3 x    32              3291840       0.0%    100.0%      0.0%
 flops   114 x     3 x    70              5745600       0.0%    100.0%      0.0%
 flops   114 x     3 x    32              5909760       0.0%    100.0%      0.0%
 flops   114 x    32 x     3              5909760       0.0%    100.0%      0.0%
 flops     3 x    32 x    57              7288704       0.0%    100.0%      0.0%
 flops    32 x     3 x    57              7288704       0.0%    100.0%      0.0%
 flops    70 x    70 x    32              8780800       0.0%    100.0%      0.0%
 flops    70 x     3 x    57             10629360       0.0%    100.0%      0.0%
 flops    57 x    57 x     3             11462472       0.0%    100.0%      0.0%
 flops    57 x     3 x    70             12065760       0.0%    100.0%      0.0%
 flops    32 x    32 x    32             13500416       0.0%    100.0%      0.0%
 flops   127 x     3 x    57             15636240       0.0%    100.0%      0.0%
 flops    32 x    32 x    70             15912960       0.0%    100.0%      0.0%
 flops    57 x    32 x    32             17860608       0.0%    100.0%      0.0%
 flops    57 x    70 x    32             21450240       0.0%    100.0%      0.0%
 flops    70 x    57 x    32             21450240       0.0%    100.0%      0.0%
 flops    70 x    32 x    70             23206400       0.0%    100.0%      0.0%
 flops   114 x     3 x    57             28071360       0.0%    100.0%      0.0%
 flops   127 x    32 x    70             34137600       0.0%    100.0%      0.0%
 flops   127 x    32 x    32             35112960       0.0%    100.0%      0.0%
 flops    57 x     3 x    57             58949856       0.0%    100.0%      0.0%
 flops   114 x    32 x    70             61286400       0.0%    100.0%      0.0%
 flops   114 x    32 x    32             63037440       0.0%    100.0%      0.0%
 flops    32 x    32 x    57             77746176       0.0%    100.0%      0.0%
 flops    70 x    32 x    57            113379840       0.0%    100.0%      0.0%
 flops    57 x    57 x    32            122266368       0.0%    100.0%      0.0%
 flops    57 x    32 x    70            128701440       0.0%    100.0%      0.0%
 flops   127 x    32 x    57            166786560       0.0%    100.0%      0.0%
 flops   114 x    32 x    57            299427840       0.0%    100.0%      0.0%
 flops    57 x    32 x    57            628798464       0.0%    100.0%      0.0%
 flops inhomo. stacks                           0       0.0%      0.0%      0.0%
 flops total                         2.050984E+09       0.0%    100.0%      0.0%
 flops max/rank                    605.944928E+06       0.0%    100.0%      0.0%
 matmuls inhomo. stacks                         0       0.0%      0.0%      0.0%
 matmuls total                              19138       0.0%    100.0%      0.0%
 number of processed stacks                 16886       0.0%    100.0%      0.0%
 average stack size                                     0.0       1.1       0.0
 marketing flops                     2.196933E+09
 -------------------------------------------------------------------------------
 # multiplications                            620
 max memory usage/rank             340.664320E+06
 # max total images/rank                        3
 # max 3D layers                                1
 # MPI messages exchanged                  595200
 MPI messages size (bytes):
  total size                         2.479909E+09
  min size                           0.000000E+00
  max size                          71.120000E+03
  average size                       4.166515E+03
 MPI breakdown and total messages size (bytes):
             size <=      128              500884                   237456
       128 < size <=     8192               31460                 70296128
      8192 < size <=    32768               31902                684678080
     32768 < size <=   131072               30954               1724697920
    131072 < size <=  4194304                   0                        0
   4194304 < size <= 16777216                   0                        0
  16777216 < size                               0                        0
 -------------------------------------------------------------------------------

 *** WARNING in dbcsr_mm.F:290 :: Using a non-square number of MPI ranks ***
 *** might lead to poor performance. Used ranks: 48 Suggested: 49 100    ***

 -------------------------------------------------------------------------------
 -                                                                             -
 -                      DBCSR MESSAGE PASSING PERFORMANCE                      -
 -                                                                             -
 -------------------------------------------------------------------------------
 ROUTINE             CALLS      AVE VOLUME [Bytes]
 MP_Bcast               55                     12.
 MP_Allreduce         3365                      9.
 MP_Alltoall          2510                   7456.
 MP_ISend            27606                   3843.
 MP_IRecv            27648                   2897.
 -------------------------------------------------------------------------------

 -------------------------------------------------------------------------------
 -                                                                             -
 -                                GRID STATISTICS                              -
 -                                                                             -
 -------------------------------------------------------------------------------
 LP    KERNEL             BACKEND                              COUNT     PERCENT
 2     collocate ortho    REF                                  27076      10.00%
 2     integrate ortho    REF                                  26109       9.64%
 3     collocate ortho    REF                                  25312       9.34%
 3     integrate ortho    REF                                  24408       9.01%
 1     collocate ortho    REF                                  22176       8.19%
 4     collocate ortho    REF                                  21952       8.10%
 1     integrate ortho    REF                                  21384       7.89%
 4     integrate ortho    REF                                  21168       7.81%
 5     collocate ortho    REF                                  13328       4.92%
 5     integrate ortho    REF                                  12852       4.74%
 2     collocate general  REF                                   9072       3.35%
 2     integrate general  REF                                   9072       3.35%
 0     collocate ortho    REF                                   8512       3.14%
 0     integrate ortho    REF                                   8208       3.03%
 6     collocate ortho    REF                                   6636       2.45%
 6     integrate ortho    REF                                   6399       2.36%
 7     collocate ortho    REF                                   2968       1.10%
 7     integrate ortho    REF                                   2862       1.06%
 8     collocate ortho    REF                                    700       0.26%
 8     integrate ortho    REF                                    675       0.25%
 -------------------------------------------------------------------------------

 MEMORY| Estimated peak process memory [MiB]                                 325

 -------------------------------------------------------------------------------
 -                                                                             -
 -                         MESSAGE PASSING PERFORMANCE                         -
 -                                                                             -
 -------------------------------------------------------------------------------

 ROUTINE             CALLS      AVE VOLUME [Bytes]
 MP_Group                4
 MP_Bcast             1022                 167936.
 MP_Allreduce         2744                 132172.
 MP_Sync                62
 MP_Alltoall           614                5592247.
 MP_ISendRecv         7755                  66752.
 MP_Wait             14404
 MP_comm_split          29
 MP_ISend             6104                 159458.
 MP_IRecv             6104                 159428.
 MP_Recv                22                   9888.
 -------------------------------------------------------------------------------


 -------------------------------------------------------------------------------
 -                                                                             -
 -                           R E F E R E N C E S                               -
 -                                                                             -
 -------------------------------------------------------------------------------
 
 CP2K version 10.0 (Development Version), the CP2K developers group (2022).
 CP2K is freely available from https://www.cp2k.org/ .

 Kuehne,Thomas D.; Iannuzzi,Marcella; Del Ben,Mauro;
 Rybkin,Vladimir V.; Seewald,Patrick; Stein,Frederick; Laino,Teodoro;
 Khaliullin,Rustam Z.; Schuett,Ole; Schiffmann,Florian; Golze,Dorothea;
 Wilhelm,Jan; Chulkov,Sergey; Bani-Hashemian,Mohammad Hossein;
 Weber,Valery; Borstnik,Urban; Taillefumier,Mathieu;
 Jakobovits,Alice Shoshana; Lazzaro,Alfio; Pabst,Hans; Mueller,Tiziano;
 Schade,Robert; Guidon,Manuel; Andermatt,Samuel; Holmberg,Nico;
 Schenter,Gregory K.; Hehn,Anna; Bussy,Augustin; Belleflamme,Fabian;
 Tabacchi,Gloria; Gloess,Andreas; Lass,Michael; Bethune,Iain;
 Mundy,Christopher J.; Plessl,Christian; Watkins,Matt;
 VandeVondele,Joost; Krack,Matthias; Hutter,Juerg. 
 The Journal of Chemical Physics, 152 (19), (2020). 
 CP2K: An electronic structure and molecular dynamics software package -
 Quickstep: Efficient and accurate electronic structure calculations.
 https://doi.org/10.1063/5.0007045

 Schuett, Ole; Messmer, Peter; Hutter, Juerg; VandeVondele, Joost. 
 Electronic Structure Calculations on Graphics Processing Units, John
 Wiley & Sons, Ltd, 173-190 (2016). 
 GPU-Accelerated Sparse Matrix-Matrix Multiplication for
 Linear Scaling Density Functional Theory.
 https://doi.org/10.1002/9781118670712.ch8

 Heinecke, A; Henry, G; Hutchinson, M; Pabst, H. 
 Proceedings of Intl. Supercomputing Conference, 981-991 (2016). 
 LIBXSMM: Accelerating Small Matrix Multiplications
 by Runtime Code Generation.
 https://doi.org/10.1109/SC.2016.83

 Borstnik, U; VandeVondele, J; Weber, V; Hutter, J. 
 PARALLEL COMPUTING, 40 (5-6), 47-58 (2014). 
 Sparse matrix multiplication: The distributed block-compressed sparse
 row library.
 https://doi.org/10.1016/j.parco.2014.03.012

 Hutter, J; Iannuzzi, M; Schiffmann, F; VandeVondele, J. 
 WIREs Comput Mol Sci., 4 (1), 15-25 (2014). 
 CP2K: atomistic simulations of condensed matter systems.
 https://doi.org/10.1002/wcms.1159

 Frigo, M; Johnson, SG. 
 PROCEEDINGS OF THE IEEE, 93 (2), 216-231 (2005). 
 The design and implementation of FFTW3.
 https://doi.org/10.1109/JPROC.2004.840301

 VandeVondele, J; Hutter, J. 
 JOURNAL OF CHEMICAL PHYSICS, 118 (10), 4365-4369 (2003). 
 An efficient orbital transformation method for electronic structure
 calculations.
 https://doi.org/10.1063/1.1543154

 Lippert, G; Hutter, J; Parrinello, M. 
 THEORETICAL CHEMISTRY ACCOUNTS, 103 (2), 124-140 (1999). 
 The Gaussian and augmented-plane-wave density functional method for ab
 initio molecular dynamics simulations.
 https://doi.org/10.1007/s002140050523

 Krack, M; Parrinello, M. 
 PHYSICAL CHEMISTRY CHEMICAL PHYSICS, 2 (10), 2105-2112 (2000). 
 All-electron ab-initio molecular dynamics.
 https://doi.org/10.1039/b001167n

 Perdew, JP; Burke, K; Ernzerhof, M. 
 PHYSICAL REVIEW LETTERS, 77 (18), 3865-3868 (1996). 
 Generalized gradient approximation made simple.
 https://doi.org/10.1103/PhysRevLett.77.3865


 -------------------------------------------------------------------------------
 -                                                                             -
 -                                T I M I N G                                  -
 -                                                                             -
 -------------------------------------------------------------------------------
 SUBROUTINE                       CALLS  ASD         SELF TIME        TOTAL TIME
                                MAXIMUM       AVERAGE  MAXIMUM  AVERAGE  MAXIMUM
 CP2K                                 1  1.0    0.007    0.028   22.106   22.108
 qs_energies                          1  2.0    0.000    0.000   21.907   21.909
 scf_env_do_scf                       1  3.0    0.000    0.000   21.629   21.632
 scf_env_do_scf_inner_loop           27  4.0    0.000    0.003   19.573   19.576
 qs_ks_update_qs_env                 30  5.0    0.000    0.000   16.612   16.618
 rebuild_ks_matrix                   27  6.0    0.000    0.000   16.608   16.613
 qs_ks_build_kohn_sham_matrix        27  7.0    0.005    0.007   16.608   16.613
 rs_pw_transfer                     274  9.5    0.007    0.008    4.939    5.213
 pw_transfer                        572 10.1    0.055    0.062    4.683    5.115
 fft_wrap_pw1pw2                    491 11.3    0.006    0.007    4.594    5.023
 fft_wrap_pw1pw2_250                326 12.7    0.255    0.305    4.344    4.777
 prepare_gapw_den                    27  8.0    0.001    0.001    4.596    4.613
 fft3d_ps                           491 13.3    1.631    2.015    3.797    4.207
 qs_rho_update_rho                   28  5.0    0.001    0.001    4.078    4.081
 sum_up_and_integrate                27  8.0    0.009    0.012    3.954    3.960
 integrate_v_rspace                  27  9.0    0.001    0.001    3.945    3.951
 calculate_rho_elec                  28  6.0    0.011    0.013    3.833    3.834
 qs_vxc_create                       27  8.0    0.001    0.001    3.466    3.466
 xc_vxc_pw_create                    27  9.0    0.022    0.027    3.465    3.466
 density_rs2pw                       28  7.0    0.001    0.002    3.096    3.363
 xc_pw_derive                       162 11.0    0.002    0.003    2.506    2.886
 rs_pw_transfer_RS2PW_250            55 10.0    0.734    0.895    2.448    2.702
 mp_alltoall_z22v                   491 15.3    1.856    2.390    1.856    2.390
 mp_waitany                        6104 11.5    2.042    2.337    2.042    2.337
 calculate_rho0_atom                 54  9.0    2.178    2.267    2.178    2.267
 mp_alltoall_d11v                   649 11.6    2.015    2.228    2.015    2.228
 rs_gather_matrices                  27 10.0    0.001    0.002    1.989    2.202
 grid_integrate_task_list            27 10.0    0.215    2.200    0.215    2.200
 integrate_vhg0_rspace               27  8.0    0.363    0.424    2.160    2.177
 mp_sum_d                          1291  7.3    1.867    2.117    1.867    2.117
 xc_pw_divergence                    27 10.0    0.001    0.001    1.735    2.104
 grid_collocate_task_list            28  7.0    0.564    2.089    0.564    2.089
 init_scf_loop                        3  4.0    0.000    0.000    2.055    2.055
 xc_rho_set_and_dset_create          27 10.0    0.026    0.031    1.615    1.984
 potential_pw2rs                     27 10.0    0.002    0.002    1.741    1.743
 calculate_rho_atom                  54  9.0    0.777    1.645    0.777    1.645
 yz_to_x                            219 14.1    0.112    0.172    1.210    1.634
 rs_pw_transfer_PW2RS_250            54 11.0    0.866    0.914    1.469    1.503
 calculate_vxc_atom                  27  8.0    0.023    0.111    1.483    1.484
 gaVxcgb_GC                          27  9.0    0.120    1.320    0.120    1.320
 mp_sum_dm                          581  7.7    1.158    1.248    1.158    1.248
 put_rho0_on_grid                    27  9.0    0.016    0.026    1.173    1.190
 x_to_yz                            217 14.6    0.158    0.208    0.912    0.997
 mp_sum_dv                         1053 13.0    0.473    0.950    0.473    0.950
 mp_waitall_1                     57900 13.8    0.815    0.944    0.815    0.944
 dbcsr_multiply_generic             620 10.0    0.018    0.019    0.798    0.826
 qs_scf_new_mos                      27  5.0    0.000    0.000    0.812    0.817
 qs_scf_loop_do_ot                   27  6.0    0.000    0.000    0.812    0.817
 xc_functional_eval                  81 10.8    0.000    0.001    0.429    0.798
 pbe_lda_eval                        81 11.8    0.429    0.798    0.429    0.798
 ot_scf_mini                         27  7.0    0.000    0.000    0.779    0.785
 ot_mini                             27  8.0    0.000    0.000    0.494    0.500
 -------------------------------------------------------------------------------

 The number of warnings for this run is : 1
 
 -------------------------------------------------------------------------------
  **** **** ******  **  PROGRAM ENDED AT                 2022-05-11 22:06:42.495
 ***** ** ***  *** **   PROGRAM RAN ON                                   tcopt10
 **    ****   ******    PROGRAM RAN BY                                    hutter
 ***** **    ** ** **   PROGRAM PROCESS ID                                 45774
  **** **  *******  **  PROGRAM STOPPED IN /data/hutter/GITHUB/BASIS/scMOLOPT/PB
                                           E/alsipscl
