 DBCSR| CPU Multiplication driver                                           XSMM
 DBCSR| Multrec recursion limit                                              512
 DBCSR| Multiplication stack size                                           1000
 DBCSR| Maximum elements for images                                    UNLIMITED
 DBCSR| Multiplicative factor virtual images                                   1
 DBCSR| Use multiplication densification                                       T
 DBCSR| Multiplication size stacks                                             3
 DBCSR| Use memory pool for CPU allocation                                     F
 DBCSR| Number of 3D layers                                               SINGLE
 DBCSR| Use MPI memory allocation                                              F
 DBCSR| Use RMA algorithm                                                      F
 DBCSR| Use Communication thread                                               T
 DBCSR| Communication thread load                                             87
 DBCSR| MPI: My node id                                                        0
 DBCSR| MPI: Number of nodes                                                  48
 DBCSR| OMP: Current number of threads                                         1
 DBCSR| OMP: Max number of threads                                             1
 DBCSR| Split modifier for TAS multiplication algorithm                  1.0E+00


  **** **** ******  **  PROGRAM STARTED AT               2022-05-11 22:08:09.890
 ***** ** ***  *** **   PROGRAM STARTED ON                               tcopt10
 **    ****   ******    PROGRAM STARTED BY                                hutter
 ***** **    ** ** **   PROGRAM PROCESS ID                                 46214
  **** **  *******  **  PROGRAM STARTED IN /data/hutter/GITHUB/BASIS/scMOLOPT/PB
                                           E/alsipscl

 CP2K| version string:                   CP2K version 10.0 (Development Version)
 CP2K| source code revision number:                                  git:13fcfd8
 CP2K| cp2kflags: omp libint fftw3 libxc elpa parallel mpi3 scalapack cosma xsmm
 CP2K|             spglib sirius libvori libbqb
 CP2K| is freely available from                            https://www.cp2k.org/
 CP2K| Program compiled at                      Tue 10 May 2022 02:27:21 PM CEST
 CP2K| Program compiled on                                               tcopt10
 CP2K| Program compiled for                                                local
 CP2K| Data directory path                   /data/hutter/GITHUB/TDLRI/cp2k/data
 CP2K| Input file name                                              SiF4-ref.inp

 GLOBAL| Force Environment number                                              1
 GLOBAL| Basis set file name                                        ../def2QZVPP
 GLOBAL| Potential file name                                        ../POTENTIAL
 GLOBAL| MM Potential file name                                     MM_POTENTIAL
 GLOBAL| Coordinate file name                                      __STD_INPUT__
 GLOBAL| Method name                                                        CP2K
 GLOBAL| Project name                                                    refSiF4
 GLOBAL| Run type                                                         ENERGY
 GLOBAL| FFT library                                                       FFTW3
 GLOBAL| Diagonalization library                                       ScaLAPACK
 GLOBAL| Orthonormality check for eigenvectors                          DISABLED
 GLOBAL| Matrix multiplication library                                     COSMA
 GLOBAL| All-to-all communication in single precision                          F
 GLOBAL| FFTs using library dependent lengths                                  F
 GLOBAL| Grid backend                                                       AUTO
 GLOBAL| Global print level                                                  LOW
 GLOBAL| MPI I/O enabled                                                       T
 GLOBAL| Total number of message passing processes                            48
 GLOBAL| Number of threads for this process                                    1
 GLOBAL| This output is from process                                           0
 GLOBAL| Stack size for threads created by OpenMP (OMP_STACKSIZE)        default
 GLOBAL| CPU model name                          AMD EPYC 7401 24-Core Processor
 GLOBAL| CPUID                                                              1002

 MEMORY| system memory details [Kb]
 MEMORY|                        rank 0           min           max       average
 MEMORY| MemTotal            263969136     263969136     263969136     263969136
 MEMORY| MemFree             237899072     237899072     237899072     237899072
 MEMORY| Buffers                   136           136           136           136
 MEMORY| Cached               18904912      18904912      18904912      18904912
 MEMORY| Slab                  1427940       1427940       1427940       1427940
 MEMORY| SReclaimable           873736        873736        873736        873736
 MEMORY| MemLikelyFree       257677856     257677856     257677856     257677856


 GENERATE|  Preliminary Number of Bonds generated:                             0
 GENERATE|  Achieved consistency in connectivity generation.

 *******************************************************************************
 *******************************************************************************
 **                                                                           **
 **     #####                         ##              ##                      **
 **    ##   ##            ##          ##              ##                      **
 **   ##     ##                       ##            ######                    **
 **   ##     ##  ##   ##  ##   #####  ##  ##   ####   ##    #####    #####    **
 **   ##     ##  ##   ##  ##  ##      ## ##   ##      ##   ##   ##  ##   ##   **
 **   ##  ## ##  ##   ##  ##  ##      ####     ###    ##   ######   ######    **
 **    ##  ###   ##   ##  ##  ##      ## ##      ##   ##   ##       ##        **
 **     #######   #####   ##   #####  ##  ##  ####    ##    #####   ##        **
 **           ##                                                    ##        **
 **                                                                           **
 **                                                ... make the atoms dance   **
 **                                                                           **
 **            Copyright (C) by CP2K developers group (2000-2022)             **
 **                      J. Chem. Phys. 152, 194103 (2020)                    **
 **                                                                           **
 *******************************************************************************


 TOTAL NUMBERS AND MAXIMUM NUMBERS

  Total number of            - Atomic kinds:                                   2
                             - Atoms:                                          5
                             - Shell sets:                                    90
                             - Shells:                                        90
                             - Primitive Cartesian functions:                157
                             - Cartesian basis functions:                    374
                             - Spherical basis functions:                    298

  Maximum angular momentum of the orbital basis functions:                     4


 SCF PARAMETERS         Density guess:                                    ATOMIC
                        --------------------------------------------------------
                        max_scf:                                              10
                        max_scf_history:                                       0
                        max_diis:                                              4
                        --------------------------------------------------------
                        eps_scf:                                        1.00E-07
                        eps_scf_history:                                0.00E+00
                        eps_diis:                                       1.00E-01
                        eps_eigval:                                     1.00E-05
                        --------------------------------------------------------
                        level_shift [a.u.]:                             0.000000
                        --------------------------------------------------------
                        Outer loop SCF in use 
                        No variables optimised in outer loop
                        eps_scf                                         1.00E-07
                        max_scf                                               10
                        No outer loop optimization
                        step_size                                       5.00E-01

 Number of electrons:                                                         50
 Number of occupied orbitals:                                                 25
 Number of molecular orbitals:                                                25

 Number of orbital functions:                                                298
 Number of independent orbital functions:                                    298

 Extrapolation method: initial_guess


 SCF WAVEFUNCTION OPTIMIZATION

  ----------------------------------- OT ---------------------------------------
  Minimizer      : DIIS                : direct inversion
                                         in the iterative subspace
                                         using   7 DIIS vectors
                                         safer DIIS on
  Preconditioner : FULL_ALL            : diagonalization, state selective
  Precond_solver : DEFAULT
  stepsize       :    0.15000000                  energy_gap     :    0.08000000
  eps_taylor     :   0.10000E-15                  max_taylor     :             4
  ----------------------------------- OT ---------------------------------------

  Step     Update method      Time    Convergence         Total energy    Change
  ------------------------------------------------------------------------------
     1 OT DIIS     0.15E+00    0.6     0.16876061      -665.4857752170 -6.65E+02
     2 OT DIIS     0.15E+00    0.7     0.04547963      -685.6000356052 -2.01E+01
     3 OT DIIS     0.15E+00    0.7     0.01417525      -687.2599866850 -1.66E+00
     4 OT DIIS     0.15E+00    0.7     0.01072799      -687.4886706062 -2.29E-01
     5 OT DIIS     0.15E+00    0.7     0.00898730      -687.6611100677 -1.72E-01
     6 OT DIIS     0.15E+00    0.7     0.00677693      -687.9351669048 -2.74E-01
     7 OT DIIS     0.15E+00    0.7     0.00532478      -688.1468326800 -2.12E-01
     8 OT DIIS     0.15E+00    0.7     0.00466223      -688.3026871962 -1.56E-01
     9 OT DIIS     0.15E+00    0.7     0.00446339      -688.3599563905 -5.73E-02
    10 OT DIIS     0.15E+00    0.7     0.00393138      -688.5007225343 -1.41E-01

  Leaving inner SCF loop after reaching    10 steps.


  Electronic density on regular grids:        -32.9724468201       17.0275531799
  Core density on regular grids:               50.0000000000        0.0000000000
  Hard and soft densities (Lebedev):          -71.0363030476      -54.0087488228
  Total Rho_soft + Rho1_hard - Rho1_soft      -50.0000010448
  Total charge density (r-space):              -0.0000010448
  Total Rho_soft + Rho0_soft (g-space):        -0.0000013833

  Overlap energy of the core charge distribution:               0.00000012040083
  Self energy of the core charge distribution:               -543.91396598392032
  Core Hamiltonian energy:                                   -179.98671643623570
  Hartree energy:                                              71.47516455796890
  Exchange-correlation energy:                                -19.89711454253901

  GAPW| Exc from hard and soft atomic rho1:                   -42.45734796451509
  GAPW| local Eh = 1 center integrals:                         26.27925771452463

  Total energy:                                              -688.50072253431574

  outer SCF iter =    1 RMS gradient =   0.39E-02 energy =       -688.5007225343

  ----------------------------------- OT ---------------------------------------
  Minimizer      : DIIS                : direct inversion
                                         in the iterative subspace
                                         using   7 DIIS vectors
                                         safer DIIS on
  Preconditioner : FULL_ALL            : diagonalization, state selective
  Precond_solver : DEFAULT
  stepsize       :    0.15000000                  energy_gap     :    0.08000000
  eps_taylor     :   0.10000E-15                  max_taylor     :             4
  ----------------------------------- OT ---------------------------------------

  Step     Update method      Time    Convergence         Total energy    Change
  ------------------------------------------------------------------------------
     1 OT DIIS     0.15E+00    1.4     0.02105026      -688.6097116946 -1.09E-01
     2 OT DIIS     0.15E+00    0.7     0.00895634      -688.8212227314 -2.12E-01
     3 OT DIIS     0.15E+00    0.7     0.00483520      -688.8387255266 -1.75E-02
     4 OT DIIS     0.15E+00    0.7     0.00063226      -688.8451558890 -6.43E-03
     5 OT DIIS     0.15E+00    0.7     0.00026188      -688.8453880228 -2.32E-04
     6 OT DIIS     0.15E+00    0.7     0.00012780      -688.8454183754 -3.04E-05
     7 OT DIIS     0.15E+00    0.7     0.00003539      -688.8454233475 -4.97E-06
     8 OT DIIS     0.15E+00    0.7     0.00000904      -688.8454237973 -4.50E-07
     9 OT DIIS     0.15E+00    0.7     0.00000285      -688.8454238290 -3.17E-08
    10 OT DIIS     0.15E+00    0.7     0.00000064      -688.8454238334 -4.41E-09

  Leaving inner SCF loop after reaching    10 steps.


  Electronic density on regular grids:        -32.9557680631       17.0442319369
  Core density on regular grids:               50.0000000000        0.0000000000
  Hard and soft densities (Lebedev):          -71.1130188738      -54.0687849657
  Total Rho_soft + Rho1_hard - Rho1_soft      -50.0000019712
  Total charge density (r-space):              -0.0000019712
  Total Rho_soft + Rho0_soft (g-space):        -0.0000023095

  Overlap energy of the core charge distribution:               0.00000012040083
  Self energy of the core charge distribution:               -543.91396598392032
  Core Hamiltonian energy:                                   -180.36169655158884
  Hartree energy:                                              71.55841216126808
  Exchange-correlation energy:                                -19.92876412451153

  GAPW| Exc from hard and soft atomic rho1:                   -42.46061567672238
  GAPW| local Eh = 1 center integrals:                         26.26120622166957

  Total energy:                                              -688.84542383340454

  outer SCF iter =    2 RMS gradient =   0.64E-06 energy =       -688.8454238334

  ----------------------------------- OT ---------------------------------------
  Minimizer      : DIIS                : direct inversion
                                         in the iterative subspace
                                         using   7 DIIS vectors
                                         safer DIIS on
  Preconditioner : FULL_ALL            : diagonalization, state selective
  Precond_solver : DEFAULT
  stepsize       :    0.15000000                  energy_gap     :    0.08000000
  eps_taylor     :   0.10000E-15                  max_taylor     :             4
  ----------------------------------- OT ---------------------------------------

  Step     Update method      Time    Convergence         Total energy    Change
  ------------------------------------------------------------------------------
     1 OT DIIS     0.15E+00    1.4     0.00000040      -688.8454238337 -3.31E-10
     2 OT DIIS     0.15E+00    0.6     0.00000032      -688.8454238340 -2.28E-10
     3 OT DIIS     0.15E+00    0.7     0.00000005      -688.8454238342 -2.31E-10

  *** SCF run converged in     3 steps ***


  Electronic density on regular grids:        -32.9557692085       17.0442307915
  Core density on regular grids:               50.0000000000        0.0000000000
  Hard and soft densities (Lebedev):          -71.1130143173      -54.0687815545
  Total Rho_soft + Rho1_hard - Rho1_soft      -50.0000019712
  Total charge density (r-space):              -0.0000019712
  Total Rho_soft + Rho0_soft (g-space):        -0.0000023095

  Overlap energy of the core charge distribution:               0.00000012040083
  Self energy of the core charge distribution:               -543.91396598392032
  Core Hamiltonian energy:                                   -180.36169091900732
  Hartree energy:                                              71.55841129361492
  Exchange-correlation energy:                                -19.92876822979867

  GAPW| Exc from hard and soft atomic rho1:                   -42.46061336965175
  GAPW| local Eh = 1 center integrals:                         26.26120325416776

  Total energy:                                              -688.84542383419455

  outer SCF iter =    3 RMS gradient =   0.47E-07 energy =       -688.8454238342
  outer SCF loop converged in   3 iterations or   23 steps


 ENERGY| Total FORCE_EVAL ( QS ) energy [a.u.]:             -688.845423834194548

 -------------------------------------------------------------------------------
 -                                                                             -
 -                                DBCSR STATISTICS                             -
 -                                                                             -
 -------------------------------------------------------------------------------
 COUNTER                                    TOTAL       BLAS       SMM       ACC
 flops    25 x    25 x    25              5343750       0.0%    100.0%      0.0%
 flops    70 x    70 x    25              5880000       0.0%    100.0%      0.0%
 flops    25 x    25 x    70              8312500       0.0%    100.0%      0.0%
 flops    57 x    25 x    25              8407500       0.0%    100.0%      0.0%
 flops    57 x    70 x    25              9576000       0.0%    100.0%      0.0%
 flops    70 x    57 x    25              9576000       0.0%    100.0%      0.0%
 flops    70 x    25 x    70             16170000       0.0%    100.0%      0.0%
 flops   114 x    25 x    25             16815000       0.0%    100.0%      0.0%
 flops   127 x    25 x    25             18732500       0.0%    100.0%      0.0%
 flops   114 x    25 x    70             20748000       0.0%    100.0%      0.0%
 flops   127 x    25 x    70             23114000       0.0%    100.0%      0.0%
 flops    25 x    25 x    57             27075000       0.0%    100.0%      0.0%
 flops    57 x    57 x    25             38988000       0.0%    100.0%      0.0%
 flops    70 x    25 x    57             52668000       0.0%    100.0%      0.0%
 flops    57 x    25 x    70             63042000       0.0%    100.0%      0.0%
 flops   114 x    25 x    57             67579200       0.0%    100.0%      0.0%
 flops   127 x    25 x    57             75285600       0.0%    100.0%      0.0%
 flops    57 x    25 x    57            205336800       0.0%    100.0%      0.0%
 flops inhomo. stacks                           0       0.0%      0.0%      0.0%
 flops total                       672.649850E+06       0.0%    100.0%      0.0%
 flops max/rank                    288.635150E+06       0.0%    100.0%      0.0%
 matmuls inhomo. stacks                         0       0.0%      0.0%      0.0%
 matmuls total                               3790       0.0%    100.0%      0.0%
 number of processed stacks                  3436       0.0%    100.0%      0.0%
 average stack size                                     0.0       1.1       0.0
 marketing flops                   716.309504E+06
 -------------------------------------------------------------------------------
 # multiplications                            529
 max memory usage/rank             341.999616E+06
 # max total images/rank                        3
 # max 3D layers                                1
 # MPI messages exchanged                  507840
 MPI messages size (bytes):
  total size                         1.133634E+09
  min size                           0.000000E+00
  max size                          71.120000E+03
  average size                       2.232265E+03
 MPI breakdown and total messages size (bytes):
             size <=      128              472156                        0
       128 < size <=     8192                2748                 13740000
      8192 < size <=    32768               19956                374135424
     32768 < size <=   131072               12980                745758112
    131072 < size <=  4194304                   0                        0
   4194304 < size <= 16777216                   0                        0
  16777216 < size                               0                        0
 -------------------------------------------------------------------------------

 *** WARNING in dbcsr_mm.F:290 :: Using a non-square number of MPI ranks ***
 *** might lead to poor performance. Used ranks: 48 Suggested: 49 100    ***

 -------------------------------------------------------------------------------
 -                                                                             -
 -                      DBCSR MESSAGE PASSING PERFORMANCE                      -
 -                                                                             -
 -------------------------------------------------------------------------------
 ROUTINE             CALLS      AVE VOLUME [Bytes]
 MP_Bcast               19                     12.
 MP_Allreduce         2808                      8.
 MP_Alltoall          2272                   6806.
 MP_ISend            23554                   2714.
 MP_IRecv            23448                   1846.
 -------------------------------------------------------------------------------

 -------------------------------------------------------------------------------
 -                                                                             -
 -                                GRID STATISTICS                              -
 -                                                                             -
 -------------------------------------------------------------------------------
 LP    KERNEL             BACKEND                              COUNT     PERCENT
 2     collocate ortho    REF                                  15984      10.47%
 2     integrate ortho    REF                                  15318      10.04%
 3     collocate ortho    REF                                  14592       9.56%
 3     integrate ortho    REF                                  13984       9.16%
 1     collocate ortho    REF                                  13152       8.62%
 1     integrate ortho    REF                                  12604       8.26%
 4     collocate ortho    REF                                  11616       7.61%
 4     integrate ortho    REF                                  11132       7.29%
 5     collocate ortho    REF                                   7200       4.72%
 5     integrate ortho    REF                                   6900       4.52%
 2     collocate general  REF                                   5520       3.62%
 2     integrate general  REF                                   5520       3.62%
 0     collocate ortho    REF                                   4920       3.22%
 0     integrate ortho    REF                                   4715       3.09%
 6     collocate ortho    REF                                   3024       1.98%
 6     integrate ortho    REF                                   2898       1.90%
 7     collocate ortho    REF                                   1440       0.94%
 7     integrate ortho    REF                                   1380       0.90%
 8     collocate ortho    REF                                    360       0.24%
 8     integrate ortho    REF                                    345       0.23%
 -------------------------------------------------------------------------------

 MEMORY| Estimated peak process memory [MiB]                                 327

 -------------------------------------------------------------------------------
 -                                                                             -
 -                         MESSAGE PASSING PERFORMANCE                         -
 -                                                                             -
 -------------------------------------------------------------------------------

 ROUTINE             CALLS      AVE VOLUME [Bytes]
 MP_Group                4
 MP_Bcast              696                 235939.
 MP_Allreduce         2053                 115954.
 MP_Sync                62
 MP_Alltoall           526                1016055.
 MP_ISendRecv         6627                  66752.
 MP_Wait             12300
 MP_comm_split          29
 MP_ISend             5208                 167260.
 MP_IRecv             5208                 167224.
 MP_Recv                16                   7152.
 -------------------------------------------------------------------------------


 -------------------------------------------------------------------------------
 -                                                                             -
 -                           R E F E R E N C E S                               -
 -                                                                             -
 -------------------------------------------------------------------------------
 
 CP2K version 10.0 (Development Version), the CP2K developers group (2022).
 CP2K is freely available from https://www.cp2k.org/ .

 Kuehne,Thomas D.; Iannuzzi,Marcella; Del Ben,Mauro;
 Rybkin,Vladimir V.; Seewald,Patrick; Stein,Frederick; Laino,Teodoro;
 Khaliullin,Rustam Z.; Schuett,Ole; Schiffmann,Florian; Golze,Dorothea;
 Wilhelm,Jan; Chulkov,Sergey; Bani-Hashemian,Mohammad Hossein;
 Weber,Valery; Borstnik,Urban; Taillefumier,Mathieu;
 Jakobovits,Alice Shoshana; Lazzaro,Alfio; Pabst,Hans; Mueller,Tiziano;
 Schade,Robert; Guidon,Manuel; Andermatt,Samuel; Holmberg,Nico;
 Schenter,Gregory K.; Hehn,Anna; Bussy,Augustin; Belleflamme,Fabian;
 Tabacchi,Gloria; Gloess,Andreas; Lass,Michael; Bethune,Iain;
 Mundy,Christopher J.; Plessl,Christian; Watkins,Matt;
 VandeVondele,Joost; Krack,Matthias; Hutter,Juerg. 
 The Journal of Chemical Physics, 152 (19), (2020). 
 CP2K: An electronic structure and molecular dynamics software package -
 Quickstep: Efficient and accurate electronic structure calculations.
 https://doi.org/10.1063/5.0007045

 Schuett, Ole; Messmer, Peter; Hutter, Juerg; VandeVondele, Joost. 
 Electronic Structure Calculations on Graphics Processing Units, John
 Wiley & Sons, Ltd, 173-190 (2016). 
 GPU-Accelerated Sparse Matrix-Matrix Multiplication for
 Linear Scaling Density Functional Theory.
 https://doi.org/10.1002/9781118670712.ch8

 Heinecke, A; Henry, G; Hutchinson, M; Pabst, H. 
 Proceedings of Intl. Supercomputing Conference, 981-991 (2016). 
 LIBXSMM: Accelerating Small Matrix Multiplications
 by Runtime Code Generation.
 https://doi.org/10.1109/SC.2016.83

 Borstnik, U; VandeVondele, J; Weber, V; Hutter, J. 
 PARALLEL COMPUTING, 40 (5-6), 47-58 (2014). 
 Sparse matrix multiplication: The distributed block-compressed sparse
 row library.
 https://doi.org/10.1016/j.parco.2014.03.012

 Hutter, J; Iannuzzi, M; Schiffmann, F; VandeVondele, J. 
 WIREs Comput Mol Sci., 4 (1), 15-25 (2014). 
 CP2K: atomistic simulations of condensed matter systems.
 https://doi.org/10.1002/wcms.1159

 Frigo, M; Johnson, SG. 
 PROCEEDINGS OF THE IEEE, 93 (2), 216-231 (2005). 
 The design and implementation of FFTW3.
 https://doi.org/10.1109/JPROC.2004.840301

 VandeVondele, J; Hutter, J. 
 JOURNAL OF CHEMICAL PHYSICS, 118 (10), 4365-4369 (2003). 
 An efficient orbital transformation method for electronic structure
 calculations.
 https://doi.org/10.1063/1.1543154

 Lippert, G; Hutter, J; Parrinello, M. 
 THEORETICAL CHEMISTRY ACCOUNTS, 103 (2), 124-140 (1999). 
 The Gaussian and augmented-plane-wave density functional method for ab
 initio molecular dynamics simulations.
 https://doi.org/10.1007/s002140050523

 Krack, M; Parrinello, M. 
 PHYSICAL CHEMISTRY CHEMICAL PHYSICS, 2 (10), 2105-2112 (2000). 
 All-electron ab-initio molecular dynamics.
 https://doi.org/10.1039/b001167n

 Perdew, JP; Burke, K; Ernzerhof, M. 
 PHYSICAL REVIEW LETTERS, 77 (18), 3865-3868 (1996). 
 Generalized gradient approximation made simple.
 https://doi.org/10.1103/PhysRevLett.77.3865


 -------------------------------------------------------------------------------
 -                                                                             -
 -                                T I M I N G                                  -
 -                                                                             -
 -------------------------------------------------------------------------------
 SUBROUTINE                       CALLS  ASD         SELF TIME        TOTAL TIME
                                MAXIMUM       AVERAGE  MAXIMUM  AVERAGE  MAXIMUM
 CP2K                                 1  1.0    0.007    0.033   15.980   15.981
 qs_energies                          1  2.0    0.000    0.000   15.773   15.773
 scf_env_do_scf                       1  3.0    0.000    0.000   15.529   15.529
 scf_env_do_scf_inner_loop           23  4.0    0.000    0.002   13.769   13.769
 qs_ks_update_qs_env                 26  5.0    0.000    0.000   12.199   12.204
 rebuild_ks_matrix                   23  6.0    0.000    0.000   12.196   12.200
 qs_ks_build_kohn_sham_matrix        23  7.0    0.005    0.006   12.196   12.200
 pw_transfer                        488 10.1    0.047    0.053    3.864    4.240
 fft_wrap_pw1pw2                    419 11.3    0.005    0.006    3.787    4.160
 fft_wrap_pw1pw2_250                278 12.6    0.218    0.261    3.587    3.966
 rs_pw_transfer                     234  9.5    0.006    0.006    3.520    3.707
 fft3d_ps                           419 13.3    1.360    1.660    3.102    3.479
 prepare_gapw_den                    23  8.0    0.001    0.001    3.162    3.175
 qs_vxc_create                       23  8.0    0.001    0.001    3.018    3.018
 xc_vxc_pw_create                    23  9.0    0.019    0.023    3.018    3.018
 qs_rho_update_rho                   24  5.0    0.001    0.001    2.574    2.577
 xc_pw_derive                       138 11.0    0.001    0.001    2.056    2.441
 calculate_rho_elec                  24  6.0    0.010    0.011    2.432    2.433
 sum_up_and_integrate                23  8.0    0.008    0.010    2.366    2.370
 integrate_v_rspace                  23  9.0    0.001    0.001    2.358    2.363
 density_rs2pw                       24  7.0    0.001    0.002    1.858    2.027
 mp_alltoall_z22v                   419 15.3    1.473    1.968    1.473    1.968
 xc_pw_divergence                    23 10.0    0.001    0.001    1.466    1.850
 mp_sum_d                          1120  6.7    1.609    1.770    1.609    1.770
 init_scf_loop                        3  4.0    0.000    0.000    1.759    1.759
 xc_rho_set_and_dset_create          23 10.0    0.023    0.028    1.459    1.750
 integrate_vhg0_rspace               23  8.0    0.233    0.271    1.612    1.622
 rs_pw_transfer_RS2PW_250            47 10.0    0.712    0.802    1.346    1.534
 calculate_rho0_atom                 46  9.0    1.344    1.513    1.344    1.513
 potential_pw2rs                     23 10.0    0.001    0.002    1.492    1.494
 yz_to_x                            187 14.1    0.102    0.157    0.987    1.426
 calculate_rho_atom                  46  9.0    0.649    1.363    0.649    1.363
 rs_pw_transfer_PW2RS_250            46 11.0    0.780    0.831    1.299    1.339
 calculate_vxc_atom                  23  8.0    0.016    0.095    1.267    1.267
 mp_waitany                        5208 11.5    0.905    1.175    0.905    1.175
 gaVxcgb_GC                          23  9.0    0.076    1.128    0.076    1.128
 put_rho0_on_grid                    23  9.0    0.013    0.019    1.022    1.035
 grid_collocate_task_list            24  7.0    0.445    0.974    0.445    0.974
 mp_alltoall_d11v                   617 11.5    0.772    0.891    0.772    0.891
 rs_gather_matrices                  23 10.0    0.000    0.002    0.750    0.867
 grid_integrate_task_list            23 10.0    0.117    0.865    0.117    0.865
 mp_sum_dm                          355  7.6    0.759    0.809    0.759    0.809
 mp_waitall_1                     49412 13.8    0.671    0.798    0.671    0.798
 x_to_yz                            185 14.6    0.136    0.179    0.721    0.776
 xc_functional_eval                  69 10.8    0.000    0.000    0.504    0.770
 pbe_lda_eval                        69 11.8    0.503    0.770    0.503    0.770
 qs_scf_new_mos                      23  5.0    0.000    0.000    0.653    0.656
 qs_scf_loop_do_ot                   23  6.0    0.000    0.000    0.653    0.656
 dbcsr_multiply_generic             529 10.0    0.016    0.016    0.638    0.654
 ot_scf_mini                         23  7.0    0.000    0.000    0.627    0.630
 mp_sum_dv                          713 13.0    0.150    0.566    0.150    0.566
 ot_mini                             23  8.0    0.000    0.000    0.396    0.400
 rs_pw_transfer_PW2RS_90             23 12.0    0.083    0.094    0.322    0.336
 rs_grid_zero                        92 10.8    0.310    0.325    0.310    0.325
 multiply_cannon                    529 11.0    0.042    0.045    0.283    0.325
 -------------------------------------------------------------------------------

 The number of warnings for this run is : 1
 
 -------------------------------------------------------------------------------
  **** **** ******  **  PROGRAM ENDED AT                 2022-05-11 22:08:26.291
 ***** ** ***  *** **   PROGRAM RAN ON                                   tcopt10
 **    ****   ******    PROGRAM RAN BY                                    hutter
 ***** **    ** ** **   PROGRAM PROCESS ID                                 46214
  **** **  *******  **  PROGRAM STOPPED IN /data/hutter/GITHUB/BASIS/scMOLOPT/PB
                                           E/alsipscl
