 DBCSR| CPU Multiplication driver                                           XSMM
 DBCSR| Multrec recursion limit                                              512
 DBCSR| Multiplication stack size                                           1000
 DBCSR| Maximum elements for images                                    UNLIMITED
 DBCSR| Multiplicative factor virtual images                                   1
 DBCSR| Use multiplication densification                                       T
 DBCSR| Multiplication size stacks                                             3
 DBCSR| Use memory pool for CPU allocation                                     F
 DBCSR| Number of 3D layers                                               SINGLE
 DBCSR| Use MPI memory allocation                                              F
 DBCSR| Use RMA algorithm                                                      F
 DBCSR| Use Communication thread                                               T
 DBCSR| Communication thread load                                             87
 DBCSR| MPI: My node id                                                        0
 DBCSR| MPI: Number of nodes                                                  48
 DBCSR| OMP: Current number of threads                                         1
 DBCSR| OMP: Max number of threads                                             1
 DBCSR| Split modifier for TAS multiplication algorithm                  1.0E+00


  **** **** ******  **  PROGRAM STARTED AT               2022-05-11 22:42:07.893
 ***** ** ***  *** **   PROGRAM STARTED ON                               tcopt10
 **    ****   ******    PROGRAM STARTED BY                                hutter
 ***** **    ** ** **   PROGRAM PROCESS ID                                 51189
  **** **  *******  **  PROGRAM STARTED IN /data/hutter/GITHUB/BASIS/scMOLOPT/PB
                                           E/alsipscl

 CP2K| version string:                   CP2K version 10.0 (Development Version)
 CP2K| source code revision number:                                  git:13fcfd8
 CP2K| cp2kflags: omp libint fftw3 libxc elpa parallel mpi3 scalapack cosma xsmm
 CP2K|             spglib sirius libvori libbqb
 CP2K| is freely available from                            https://www.cp2k.org/
 CP2K| Program compiled at                      Tue 10 May 2022 02:27:21 PM CEST
 CP2K| Program compiled on                                               tcopt10
 CP2K| Program compiled for                                                local
 CP2K| Data directory path                   /data/hutter/GITHUB/TDLRI/cp2k/data
 CP2K| Input file name                                              SiS2-ref.inp

 GLOBAL| Force Environment number                                              1
 GLOBAL| Basis set file name                                        ../def2QZVPP
 GLOBAL| Potential file name                                        ../POTENTIAL
 GLOBAL| MM Potential file name                                     MM_POTENTIAL
 GLOBAL| Coordinate file name                                      __STD_INPUT__
 GLOBAL| Method name                                                        CP2K
 GLOBAL| Project name                                                    refSiS2
 GLOBAL| Run type                                                         ENERGY
 GLOBAL| FFT library                                                       FFTW3
 GLOBAL| Diagonalization library                                       ScaLAPACK
 GLOBAL| Orthonormality check for eigenvectors                          DISABLED
 GLOBAL| Matrix multiplication library                                     COSMA
 GLOBAL| All-to-all communication in single precision                          F
 GLOBAL| FFTs using library dependent lengths                                  F
 GLOBAL| Grid backend                                                       AUTO
 GLOBAL| Global print level                                                  LOW
 GLOBAL| MPI I/O enabled                                                       T
 GLOBAL| Total number of message passing processes                            48
 GLOBAL| Number of threads for this process                                    1
 GLOBAL| This output is from process                                           0
 GLOBAL| Stack size for threads created by OpenMP (OMP_STACKSIZE)        default
 GLOBAL| CPU model name                          AMD EPYC 7401 24-Core Processor
 GLOBAL| CPUID                                                              1002

 MEMORY| system memory details [Kb]
 MEMORY|                        rank 0           min           max       average
 MEMORY| MemTotal            263969136     263969136     263969136     263969136
 MEMORY| MemFree             237909032     237909032     237909032     237909032
 MEMORY| Buffers                   136           136           136           136
 MEMORY| Cached               18904688      18904688      18904688      18904688
 MEMORY| Slab                  1428164       1428164       1428164       1428164
 MEMORY| SReclaimable           872964        872964        872964        872964
 MEMORY| MemLikelyFree       257686820     257686820     257686820     257686820


 GENERATE|  Preliminary Number of Bonds generated:                             0
 GENERATE|  Achieved consistency in connectivity generation.

 *******************************************************************************
 *******************************************************************************
 **                                                                           **
 **     #####                         ##              ##                      **
 **    ##   ##            ##          ##              ##                      **
 **   ##     ##                       ##            ######                    **
 **   ##     ##  ##   ##  ##   #####  ##  ##   ####   ##    #####    #####    **
 **   ##     ##  ##   ##  ##  ##      ## ##   ##      ##   ##   ##  ##   ##   **
 **   ##  ## ##  ##   ##  ##  ##      ####     ###    ##   ######   ######    **
 **    ##  ###   ##   ##  ##  ##      ## ##      ##   ##   ##       ##        **
 **     #######   #####   ##   #####  ##  ##  ####    ##    #####   ##        **
 **           ##                                                    ##        **
 **                                                                           **
 **                                                ... make the atoms dance   **
 **                                                                           **
 **            Copyright (C) by CP2K developers group (2000-2022)             **
 **                      J. Chem. Phys. 152, 194103 (2020)                    **
 **                                                                           **
 *******************************************************************************


 TOTAL NUMBERS AND MAXIMUM NUMBERS

  Total number of            - Atomic kinds:                                   2
                             - Atoms:                                          3
                             - Shell sets:                                    66
                             - Shells:                                        66
                             - Primitive Cartesian functions:                123
                             - Cartesian basis functions:                    258
                             - Spherical basis functions:                    210

  Maximum angular momentum of the orbital basis functions:                     4


 SCF PARAMETERS         Density guess:                                    ATOMIC
                        --------------------------------------------------------
                        max_scf:                                              30
                        max_scf_history:                                       0
                        max_diis:                                              4
                        --------------------------------------------------------
                        eps_scf:                                        1.00E-06
                        eps_scf_history:                                0.00E+00
                        eps_diis:                                       1.00E-01
                        eps_eigval:                                     1.00E-05
                        --------------------------------------------------------
                        level_shift [a.u.]:                             0.000000
                        --------------------------------------------------------
                        Outer loop SCF in use 
                        No variables optimised in outer loop
                        eps_scf                                         1.00E-06
                        max_scf                                                5
                        No outer loop optimization
                        step_size                                       5.00E-01

 Number of electrons:                                                         46
 Number of occupied orbitals:                                                 23
 Number of molecular orbitals:                                                23

 Number of orbital functions:                                                210
 Number of independent orbital functions:                                    210

 Extrapolation method: initial_guess


 SCF WAVEFUNCTION OPTIMIZATION

  ----------------------------------- OT ---------------------------------------
  Minimizer      : DIIS                : direct inversion
                                         in the iterative subspace
                                         using   7 DIIS vectors
                                         safer DIIS on
  Preconditioner : FULL_ALL            : diagonalization, state selective
  Precond_solver : DEFAULT
  stepsize       :    0.15000000                  energy_gap     :    0.08000000
  eps_taylor     :   0.10000E-15                  max_taylor     :             4
  ----------------------------------- OT ---------------------------------------

  Step     Update method      Time    Convergence         Total energy    Change
  ------------------------------------------------------------------------------
     1 OT DIIS     0.15E+00    0.6     0.29056385     -1037.5650385593 -1.04E+03
     2 OT DIIS     0.15E+00    0.7     0.09296750     -1077.3417130538 -3.98E+01
     3 OT DIIS     0.15E+00    0.7     0.04388652     -1082.1905973738 -4.85E+00
     4 OT DIIS     0.15E+00    0.7     0.02848784     -1083.5894533535 -1.40E+00
     5 OT DIIS     0.15E+00    0.7     0.01245663     -1084.2632082485 -6.74E-01
     6 OT DIIS     0.15E+00    0.7     0.01025559     -1084.4172793981 -1.54E-01
     7 OT DIIS     0.15E+00    0.7     0.00727456     -1084.5238373411 -1.07E-01
     8 OT DIIS     0.15E+00    0.7     0.00561881     -1084.6680127099 -1.44E-01
     9 OT DIIS     0.15E+00    0.7     0.00508253     -1084.7421309612 -7.41E-02
    10 OT DIIS     0.15E+00    0.7     0.00434681     -1084.8269758788 -8.48E-02
    11 OT DIIS     0.15E+00    0.7     0.00402405     -1084.8804750840 -5.35E-02
    12 OT DIIS     0.15E+00    0.7     0.00317855     -1084.9641219498 -8.36E-02
    13 OT DIIS     0.15E+00    0.7     0.00279334     -1084.9939419365 -2.98E-02
    14 OT DIIS     0.15E+00    0.7     0.00252356     -1085.0336863559 -3.97E-02
    15 OT DIIS     0.15E+00    0.7     0.00221706     -1085.0661879580 -3.25E-02
    16 OT SD       0.15E+00    0.7     0.00235634     -1085.0860023864 -1.98E-02
    17 OT SD       0.15E+00    0.7     0.00207473     -1085.0894962590 -3.49E-03
    18 OT DIIS     0.15E+00    0.7     0.00203458     -1085.0925656482 -3.07E-03
    19 OT DIIS     0.15E+00    0.7     0.00230844     -1085.1164980473 -2.39E-02
    20 OT DIIS     0.15E+00    0.7     0.00192888     -1085.1178551509 -1.36E-03
    21 OT DIIS     0.15E+00    0.7     0.00190022     -1085.1269305565 -9.08E-03
    22 OT SD       0.15E+00    0.7     0.00192715     -1085.1524637498 -2.55E-02
    23 OT DIIS     0.15E+00    0.7     0.00186608     -1085.1550552820 -2.59E-03
    24 OT SD       0.15E+00    0.7     0.00186737     -1085.1712526249 -1.62E-02
    25 OT DIIS     0.15E+00    0.7     0.00186282     -1085.1737726775 -2.52E-03
    26 OT SD       0.15E+00    0.7     0.00186401     -1085.1760421302 -2.27E-03
    27 OT SD       0.15E+00    0.7     0.00186269     -1085.1785581347 -2.52E-03
    28 OT SD       0.15E+00    0.7     0.00186254     -1085.1810716789 -2.51E-03
    29 OT SD       0.15E+00    0.7     0.00186265     -1085.1835850331 -2.51E-03
    30 OT DIIS     0.15E+00    0.7     0.00186284     -1085.1860987576 -2.51E-03

  Leaving inner SCF loop after reaching    30 steps.


  Electronic density on regular grids:        -23.8191765971       22.1808234029
  Core density on regular grids:               46.0000000000        0.0000000000
  Hard and soft densities (Lebedev):          -55.1351008841      -32.9542777095
  Total Rho_soft + Rho1_hard - Rho1_soft      -45.9999997717
  Total charge density (r-space):               0.0000002283
  Total Rho_soft + Rho0_soft (g-space):        -0.0000001558

  Overlap energy of the core charge distribution:               0.00000017365282
  Self energy of the core charge distribution:               -469.54739150240766
  Core Hamiltonian energy:                                   -618.45722645818137
  Hartree energy:                                              69.44534680412721
  Exchange-correlation energy:                                -12.42745411829631

  GAPW| Exc from hard and soft atomic rho1:                   -59.34401545888463
  GAPW| local Eh = 1 center integrals:                          5.14464180239688

  Total energy:                                             -1085.18609875759307

  outer SCF iter =    1 RMS gradient =   0.19E-02 energy =      -1085.1860987576

  ----------------------------------- OT ---------------------------------------
  Minimizer      : DIIS                : direct inversion
                                         in the iterative subspace
                                         using   7 DIIS vectors
                                         safer DIIS on
  Preconditioner : FULL_ALL            : diagonalization, state selective
  Precond_solver : DEFAULT
  stepsize       :    0.15000000                  energy_gap     :    0.08000000
  eps_taylor     :   0.10000E-15                  max_taylor     :             4
  ----------------------------------- OT ---------------------------------------

  Step     Update method      Time    Convergence         Total energy    Change
  ------------------------------------------------------------------------------
     1 OT DIIS     0.15E+00    1.4     0.02093209     -1085.2046363677 -1.85E-02
     2 OT DIIS     0.15E+00    0.7     0.01452030     -1085.4444560200 -2.40E-01
     3 OT DIIS     0.15E+00    0.7     0.01298189     -1085.4875626931 -4.31E-02
     4 OT DIIS     0.15E+00    0.7     0.00675368     -1085.5057884107 -1.82E-02
     5 OT DIIS     0.15E+00    0.7     0.00389380     -1085.5106328697 -4.84E-03
     6 OT DIIS     0.15E+00    0.7     0.00190140     -1085.5119119725 -1.28E-03
     7 OT DIIS     0.15E+00    0.7     0.00024316     -1085.5125993871 -6.87E-04
     8 OT DIIS     0.15E+00    0.7     0.00015660     -1085.5126171792 -1.78E-05
     9 OT DIIS     0.15E+00    0.7     0.00002783     -1085.5126248091 -7.63E-06
    10 OT DIIS     0.15E+00    0.7     0.00000993     -1085.5126251426 -3.34E-07
    11 OT DIIS     0.15E+00    0.7     0.00000373     -1085.5126251875 -4.49E-08
    12 OT DIIS     0.15E+00    0.7     0.00000150     -1085.5126251942 -6.67E-09
    13 OT DIIS     0.15E+00    0.7     0.00000102     -1085.5126251951 -9.43E-10
    14 OT DIIS     0.15E+00    0.7     0.00000025     -1085.5126251956 -4.60E-10

  *** SCF run converged in    14 steps ***


  Electronic density on regular grids:        -23.8124146641       22.1875853359
  Core density on regular grids:               46.0000000000        0.0000000000
  Hard and soft densities (Lebedev):          -55.1789896618      -32.9914045882
  Total Rho_soft + Rho1_hard - Rho1_soft      -45.9999997376
  Total charge density (r-space):               0.0000002624
  Total Rho_soft + Rho0_soft (g-space):        -0.0000001216

  Overlap energy of the core charge distribution:               0.00000017365282
  Self energy of the core charge distribution:               -469.54739150240766
  Core Hamiltonian energy:                                   -618.84540223706995
  Hartree energy:                                              69.58493783995581
  Exchange-correlation energy:                                -12.42953636116291

  GAPW| Exc from hard and soft atomic rho1:                   -59.34837686514464
  GAPW| local Eh = 1 center integrals:                          5.07314375656804

  Total energy:                                             -1085.51262519560851

  outer SCF iter =    2 RMS gradient =   0.25E-06 energy =      -1085.5126251956
  outer SCF loop converged in   2 iterations or   44 steps


 ENERGY| Total FORCE_EVAL ( QS ) energy [a.u.]:            -1085.512625195608507

 -------------------------------------------------------------------------------
 -                                                                             -
 -                                DBCSR STATISTICS                             -
 -                                                                             -
 -------------------------------------------------------------------------------
 COUNTER                                    TOTAL       BLAS       SMM       ACC
 flops    23 x    23 x    23              9344256       0.0%    100.0%      0.0%
 flops    70 x    23 x    23             16441320       0.0%    100.0%      0.0%
 flops   140 x    23 x    23             32882640       0.0%    100.0%      0.0%
 flops    23 x    23 x    70             39548040       0.0%    100.0%      0.0%
 flops    70 x    70 x    23             60858000       0.0%    100.0%      0.0%
 flops   140 x    23 x    70            124420800       0.0%    100.0%      0.0%
 flops    70 x    23 x    70            269127600       0.0%    100.0%      0.0%
 flops inhomo. stacks                           0       0.0%      0.0%      0.0%
 flops total                       552.622656E+06       0.0%    100.0%      0.0%
 flops max/rank                    354.283536E+06       0.0%    100.0%      0.0%
 matmuls inhomo. stacks                         0       0.0%      0.0%      0.0%
 matmuls total                               3102       0.0%    100.0%      0.0%
 number of processed stacks                  2751       0.0%    100.0%      0.0%
 average stack size                                     0.0       1.1       0.0
 marketing flops                   583.497600E+06
 -------------------------------------------------------------------------------
 # multiplications                           1025
 max memory usage/rank             366.284800E+06
 # max total images/rank                        3
 # max 3D layers                                1
 # MPI messages exchanged                  984000
 MPI messages size (bytes):
  total size                         1.015926E+09
  min size                           0.000000E+00
  max size                          78.400000E+03
  average size                       1.032446E+03
 MPI breakdown and total messages size (bytes):
             size <=      128              949653                        0
       128 < size <=     8192                6042                 25569744
      8192 < size <=    32768               15501                237481440
     32768 < size <=   131072               12804                752875200
    131072 < size <=  4194304                   0                        0
   4194304 < size <= 16777216                   0                        0
  16777216 < size                               0                        0
 -------------------------------------------------------------------------------

 *** WARNING in dbcsr_mm.F:290 :: Using a non-square number of MPI ranks ***
 *** might lead to poor performance. Used ranks: 48 Suggested: 49 100    ***

 -------------------------------------------------------------------------------
 -                                                                             -
 -                      DBCSR MESSAGE PASSING PERFORMANCE                      -
 -                                                                             -
 -------------------------------------------------------------------------------
 ROUTINE             CALLS      AVE VOLUME [Bytes]
 MP_Bcast                8                     12.
 MP_Allreduce         5483                      8.
 MP_Alltoall          3677                   5117.
 MP_ISend            45630                   2049.
 MP_IRecv            45184                   1237.
 -------------------------------------------------------------------------------

 -------------------------------------------------------------------------------
 -                                                                             -
 -                                GRID STATISTICS                              -
 -                                                                             -
 -------------------------------------------------------------------------------
 LP    KERNEL             BACKEND                              COUNT     PERCENT
 2     collocate ortho    REF                                  27090      11.73%
 2     integrate ortho    REF                                  26488      11.47%
 3     collocate ortho    REF                                  23940      10.37%
 3     integrate ortho    REF                                  23408      10.14%
 1     collocate ortho    REF                                  21330       9.24%
 1     integrate ortho    REF                                  20856       9.03%
 4     collocate ortho    REF                                  15930       6.90%
 4     integrate ortho    REF                                  15576       6.75%
 5     collocate ortho    REF                                   9090       3.94%
 5     integrate ortho    REF                                   8888       3.85%
 0     collocate ortho    REF                                   8235       3.57%
 0     integrate ortho    REF                                   8052       3.49%
 2     collocate general  REF                                   6336       2.74%
 2     integrate general  REF                                   6336       2.74%
 6     collocate ortho    REF                                   3375       1.46%
 6     integrate ortho    REF                                   3300       1.43%
 7     collocate ortho    REF                                   1080       0.47%
 7     integrate ortho    REF                                   1056       0.46%
 8     collocate ortho    REF                                    270       0.12%
 8     integrate ortho    REF                                    264       0.11%
 -------------------------------------------------------------------------------

 MEMORY| Estimated peak process memory [MiB]                                 350

 -------------------------------------------------------------------------------
 -                                                                             -
 -                         MESSAGE PASSING PERFORMANCE                         -
 -                                                                             -
 -------------------------------------------------------------------------------

 ROUTINE             CALLS      AVE VOLUME [Bytes]
 MP_Group                4
 MP_Bcast             1284                 136235.
 MP_Allreduce         3633                 150805.
 MP_Sync               104
 MP_Alltoall           988                2476085.
 MP_ISendRecv        12549                  66752.
 MP_Wait             23346
 MP_comm_split          50
 MP_ISend             9912                 151838.
 MP_IRecv             9912                 151820.
 MP_Recv                33                   3360.
 -------------------------------------------------------------------------------


 -------------------------------------------------------------------------------
 -                                                                             -
 -                           R E F E R E N C E S                               -
 -                                                                             -
 -------------------------------------------------------------------------------
 
 CP2K version 10.0 (Development Version), the CP2K developers group (2022).
 CP2K is freely available from https://www.cp2k.org/ .

 Kuehne,Thomas D.; Iannuzzi,Marcella; Del Ben,Mauro;
 Rybkin,Vladimir V.; Seewald,Patrick; Stein,Frederick; Laino,Teodoro;
 Khaliullin,Rustam Z.; Schuett,Ole; Schiffmann,Florian; Golze,Dorothea;
 Wilhelm,Jan; Chulkov,Sergey; Bani-Hashemian,Mohammad Hossein;
 Weber,Valery; Borstnik,Urban; Taillefumier,Mathieu;
 Jakobovits,Alice Shoshana; Lazzaro,Alfio; Pabst,Hans; Mueller,Tiziano;
 Schade,Robert; Guidon,Manuel; Andermatt,Samuel; Holmberg,Nico;
 Schenter,Gregory K.; Hehn,Anna; Bussy,Augustin; Belleflamme,Fabian;
 Tabacchi,Gloria; Gloess,Andreas; Lass,Michael; Bethune,Iain;
 Mundy,Christopher J.; Plessl,Christian; Watkins,Matt;
 VandeVondele,Joost; Krack,Matthias; Hutter,Juerg. 
 The Journal of Chemical Physics, 152 (19), (2020). 
 CP2K: An electronic structure and molecular dynamics software package -
 Quickstep: Efficient and accurate electronic structure calculations.
 https://doi.org/10.1063/5.0007045

 Schuett, Ole; Messmer, Peter; Hutter, Juerg; VandeVondele, Joost. 
 Electronic Structure Calculations on Graphics Processing Units, John
 Wiley & Sons, Ltd, 173-190 (2016). 
 GPU-Accelerated Sparse Matrix-Matrix Multiplication for
 Linear Scaling Density Functional Theory.
 https://doi.org/10.1002/9781118670712.ch8

 Heinecke, A; Henry, G; Hutchinson, M; Pabst, H. 
 Proceedings of Intl. Supercomputing Conference, 981-991 (2016). 
 LIBXSMM: Accelerating Small Matrix Multiplications
 by Runtime Code Generation.
 https://doi.org/10.1109/SC.2016.83

 Borstnik, U; VandeVondele, J; Weber, V; Hutter, J. 
 PARALLEL COMPUTING, 40 (5-6), 47-58 (2014). 
 Sparse matrix multiplication: The distributed block-compressed sparse
 row library.
 https://doi.org/10.1016/j.parco.2014.03.012

 Hutter, J; Iannuzzi, M; Schiffmann, F; VandeVondele, J. 
 WIREs Comput Mol Sci., 4 (1), 15-25 (2014). 
 CP2K: atomistic simulations of condensed matter systems.
 https://doi.org/10.1002/wcms.1159

 Frigo, M; Johnson, SG. 
 PROCEEDINGS OF THE IEEE, 93 (2), 216-231 (2005). 
 The design and implementation of FFTW3.
 https://doi.org/10.1109/JPROC.2004.840301

 VandeVondele, J; Hutter, J. 
 JOURNAL OF CHEMICAL PHYSICS, 118 (10), 4365-4369 (2003). 
 An efficient orbital transformation method for electronic structure
 calculations.
 https://doi.org/10.1063/1.1543154

 Lippert, G; Hutter, J; Parrinello, M. 
 THEORETICAL CHEMISTRY ACCOUNTS, 103 (2), 124-140 (1999). 
 The Gaussian and augmented-plane-wave density functional method for ab
 initio molecular dynamics simulations.
 https://doi.org/10.1007/s002140050523

 Krack, M; Parrinello, M. 
 PHYSICAL CHEMISTRY CHEMICAL PHYSICS, 2 (10), 2105-2112 (2000). 
 All-electron ab-initio molecular dynamics.
 https://doi.org/10.1039/b001167n

 Perdew, JP; Burke, K; Ernzerhof, M. 
 PHYSICAL REVIEW LETTERS, 77 (18), 3865-3868 (1996). 
 Generalized gradient approximation made simple.
 https://doi.org/10.1103/PhysRevLett.77.3865


 -------------------------------------------------------------------------------
 -                                                                             -
 -                                T I M I N G                                  -
 -                                                                             -
 -------------------------------------------------------------------------------
 SUBROUTINE                       CALLS  ASD         SELF TIME        TOTAL TIME
                                MAXIMUM       AVERAGE  MAXIMUM  AVERAGE  MAXIMUM
 CP2K                                 1  1.0    0.007    0.030   30.488   30.488
 qs_energies                          1  2.0    0.000    0.000   30.270   30.271
 scf_env_do_scf                       1  3.0    0.000    0.000   30.061   30.062
 scf_env_do_scf_inner_loop           44  4.0    0.001    0.004   28.884   28.884
 qs_ks_update_qs_env                 46  5.0    0.000    0.001   24.238   24.255
 rebuild_ks_matrix                   44  6.0    0.000    0.000   24.228   24.242
 qs_ks_build_kohn_sham_matrix        44  7.0    0.009    0.010   24.228   24.242
 pw_transfer                        929 10.1    0.090    0.101    7.759    8.505
 fft_wrap_pw1pw2                    797 11.3    0.010    0.011    7.614    8.353
 fft_wrap_pw1pw2_250                530 12.7    0.408    0.497    7.211    7.930
 prepare_gapw_den                    44  8.0    0.001    0.002    7.442    7.460
 fft3d_ps                           797 13.3    2.652    3.312    6.319    7.030
 rs_pw_transfer                     444  9.5    0.010    0.012    5.984    6.232
 qs_vxc_create                       44  8.0    0.001    0.001    6.168    6.168
 xc_vxc_pw_create                    44  9.0    0.036    0.044    6.167    6.167
 xc_pw_derive                       264 11.0    0.002    0.005    4.172    4.953
 qs_rho_update_rho                   45  5.0    0.001    0.001    4.522    4.529
 mp_alltoall_z22v                   797 15.3    3.163    4.317    3.163    4.317
 calculate_rho_elec                  45  6.0    0.018    0.021    4.287    4.288
 calculate_rho0_atom                 88  9.0    3.849    4.136    3.849    4.136
 xc_rho_set_and_dset_create          44 10.0    0.042    0.050    3.122    3.685
 xc_pw_divergence                    44 10.0    0.001    0.001    2.850    3.619
 mp_sum_d                          1861  8.4    3.325    3.616    3.325    3.616
 density_rs2pw                       45  7.0    0.002    0.003    3.226    3.468
 sum_up_and_integrate                44  8.0    0.015    0.019    3.280    3.288
 integrate_v_rspace                  44  9.0    0.001    0.001    3.265    3.273
 integrate_vhg0_rspace               44  8.0    0.434    0.589    3.148    3.243
 calculate_rho_atom                  88  9.0    1.550    3.091    1.550    3.091
 yz_to_x                            355 14.1    0.188    0.298    1.949    2.907
 potential_pw2rs                     44 10.0    0.003    0.005    2.744    2.747
 calculate_vxc_atom                  44  8.0    0.024    0.180    2.453    2.453
 rs_pw_transfer_RS2PW_250            89 10.0    1.319    1.443    2.103    2.323
 rs_pw_transfer_PW2RS_250            88 11.0    1.332    1.406    2.250    2.309
 gaVxcgb_GC                          44  9.0    0.135    2.173    0.135    2.173
 put_rho0_on_grid                    44  9.0    0.023    0.031    1.807    1.825
 x_to_yz                            353 14.6    0.258    0.345    1.653    1.772
 mp_sum_dm                          402  7.7    1.636    1.742    1.636    1.742
 mp_sum_dv                         1698 13.0    0.244    1.707    0.244    1.707
 xc_functional_eval                 132 10.9    0.001    0.001    1.084    1.675
 pbe_lda_eval                       132 11.9    1.083    1.674    1.083    1.674
 mp_waitany                        9912 11.5    1.273    1.595    1.273    1.595
 mp_waitall_1                     95434 13.9    1.201    1.403    1.201    1.403
 qs_scf_new_mos                      44  5.0    0.000    0.000    1.283    1.288
 qs_scf_loop_do_ot                   44  6.0    0.000    0.000    1.283    1.288
 dbcsr_multiply_generic            1025 10.2    0.030    0.031    1.216    1.247
 ot_scf_mini                         44  7.0    0.000    0.001    1.234    1.239
 init_scf_loop                        2  4.0    0.000    0.000    1.177    1.177
 grid_collocate_task_list            45  7.0    0.762    1.162    0.762    1.162
 ot_mini                             44  8.0    0.000    0.000    0.772    0.777
 rs_pw_transfer_PW2RS_90             44 12.0    0.157    0.175    0.594    0.615
 qs_ot_get_derivative                44  9.0    0.000    0.000    0.605    0.610
 -------------------------------------------------------------------------------

 The number of warnings for this run is : 1
 
 -------------------------------------------------------------------------------
  **** **** ******  **  PROGRAM ENDED AT                 2022-05-11 22:42:38.810
 ***** ** ***  *** **   PROGRAM RAN ON                                   tcopt10
 **    ****   ******    PROGRAM RAN BY                                    hutter
 ***** **    ** ** **   PROGRAM PROCESS ID                                 51189
  **** **  *******  **  PROGRAM STOPPED IN /data/hutter/GITHUB/BASIS/scMOLOPT/PB
                                           E/alsipscl
