 DBCSR| CPU Multiplication driver                                           XSMM
 DBCSR| Multrec recursion limit                                              512
 DBCSR| Multiplication stack size                                           1000
 DBCSR| Maximum elements for images                                    UNLIMITED
 DBCSR| Multiplicative factor virtual images                                   1
 DBCSR| Use multiplication densification                                       T
 DBCSR| Multiplication size stacks                                             3
 DBCSR| Use memory pool for CPU allocation                                     F
 DBCSR| Number of 3D layers                                               SINGLE
 DBCSR| Use MPI memory allocation                                              F
 DBCSR| Use RMA algorithm                                                      F
 DBCSR| Use Communication thread                                               T
 DBCSR| Communication thread load                                             87
 DBCSR| Split modifier for TAS multiplication algorithm                  1.0E+00


  **** **** ******  **  PROGRAM STARTED AT               2020-12-04 20:15:16.985
 ***** ** ***  *** **   PROGRAM STARTED ON                               tcopt10
 **    ****   ******    PROGRAM STARTED BY                                hutter
 ***** **    ** ** **   PROGRAM PROCESS ID                                 53326
  **** **  *******  **  PROGRAM STARTED IN /data/hutter/GITHUB/BASIS/MOLOPT/PBE0
                                           /K

 CP2K| version string:                    CP2K version 8.0 (Development Version)
 CP2K| source code revision number:                                  git:afc71fa
 CP2K| cp2kflags: omp libint fftw3 libxc elpa parallel mpi3 scalapack xsmm spgli
 CP2K|            b sirius
 CP2K| is freely available from                            https://www.cp2k.org/
 CP2K| Program compiled at                          Tue Nov 17 10:27:14 CET 2020
 CP2K| Program compiled on                                               tcopt10
 CP2K| Program compiled for                                                local
 CP2K| Data directory path                 /data/hutter/GITHUB/CURRENT/cp2k/data
 CP2K| Input file name                                               K2S-ref.inp

 GLOBAL| Force Environment number                                              1
 GLOBAL| Basis set file name                                  ../PBE0_UCSEGBASIS
 GLOBAL| Potential file name                                        ../POTENTIAL
 GLOBAL| MM Potential file name                                     MM_POTENTIAL
 GLOBAL| Coordinate file name                                      __STD_INPUT__
 GLOBAL| Method name                                                        CP2K
 GLOBAL| Project name                                                   refK2Sq1
 GLOBAL| Preferred FFT library                                             FFTW3
 GLOBAL| Preferred diagonalization lib.                                     ELPA
 GLOBAL| Run type                                                         ENERGY
 GLOBAL| All-to-all communication in single precision                          F
 GLOBAL| FFTs using library dependent lengths                                  F
 GLOBAL| Global print level                                                  LOW
 GLOBAL| MPI I/O enabled                                                       T
 GLOBAL| Total number of message passing processes                            16
 GLOBAL| Number of threads for this process                                    1
 GLOBAL| This output is from process                                           0
 GLOBAL| CPU model name                          AMD EPYC 7401 24-Core Processor
 GLOBAL| CPUID                                                              1002

 MEMORY| system memory details [Kb]
 MEMORY|                        rank 0           min           max       average
 MEMORY| MemTotal            263987256     263987256     263987256     263987256
 MEMORY| MemFree             135240824     135240824     135240824     135240824
 MEMORY| Buffers                    32            32            32            32
 MEMORY| Cached               16331112      16331112      16331112      16331112
 MEMORY| Slab                  1371292       1371292       1371292       1371292
 MEMORY| SReclaimable           706176        706176        706176        706176
 MEMORY| MemLikelyFree       152278144     152278144     152278144     152278144


 GENERATE|  Preliminary Number of Bonds generated:                             0
 GENERATE|  Achieved consistency in connectivity generation.

 *******************************************************************************
 *******************************************************************************
 **                                                                           **
 **     #####                         ##              ##                      **
 **    ##   ##            ##          ##              ##                      **
 **   ##     ##                       ##            ######                    **
 **   ##     ##  ##   ##  ##   #####  ##  ##   ####   ##    #####    #####    **
 **   ##     ##  ##   ##  ##  ##      ## ##   ##      ##   ##   ##  ##   ##   **
 **   ##  ## ##  ##   ##  ##  ##      ####     ###    ##   ######   ######    **
 **    ##  ###   ##   ##  ##  ##      ## ##      ##   ##   ##       ##        **
 **     #######   #####   ##   #####  ##  ##  ####    ##    #####   ##        **
 **           ##                                                    ##        **
 **                                                                           **
 **                                                ... make the atoms dance   **
 **                                                                           **
 **            Copyright (C) by CP2K developers group (2000 - 2020)           **
 **                      J. Chem. Phys. 152, 194103 (2020)                    **
 **                                                                           **
 *******************************************************************************


 TOTAL NUMBERS AND MAXIMUM NUMBERS

  Total number of            - Atomic kinds:                                   2
                             - Atoms:                                          3
                             - Shell sets:                                    16
                             - Shells:                                        58
                             - Primitive Cartesian functions:                 30
                             - Cartesian basis functions:                    282
                             - Spherical basis functions:                    218

  Maximum angular momentum of- Orbital basis functions:                        4
                             - Local part of the GTH pseudopotential:          0
                             - Non-local part of the GTH pseudopotential:      4


 SCF PARAMETERS         Density guess:                                    ATOMIC
                        --------------------------------------------------------
                        max_scf:                                              10
                        max_scf_history:                                       0
                        max_diis:                                              4
                        --------------------------------------------------------
                        eps_scf:                                        1.00E-07
                        eps_scf_history:                                0.00E+00
                        eps_diis:                                       1.00E-01
                        eps_eigval:                                     1.00E-05
                        --------------------------------------------------------
                        level_shift [a.u.]:                                 0.00
                        --------------------------------------------------------
                        Outer loop SCF in use 
                        No variables optimised in outer loop
                        eps_scf                                         1.00E-07
                        max_scf                                               10
                        No outer loop optimization
                        step_size                                       5.00E-01

 Number of electrons:                                                          8
 Number of occupied orbitals:                                                  4
 Number of molecular orbitals:                                                 4

 Number of orbital functions:                                                218
 Number of independent orbital functions:                                    218

 Extrapolation method: initial_guess


 SCF WAVEFUNCTION OPTIMIZATION

  ----------------------------------- OT ---------------------------------------
  Minimizer      : DIIS                : direct inversion
                                         in the iterative subspace
                                         using   7 DIIS vectors
                                         safer DIIS on
  Preconditioner : FULL_ALL            : diagonalization, state selective
  Precond_solver : DEFAULT
  stepsize       :    0.15000000                  energy_gap     :    0.08000000
  eps_taylor     :   0.10000E-15                  max_taylor     :             4
  ----------------------------------- OT ---------------------------------------

  Step     Update method      Time    Convergence         Total energy    Change
  ------------------------------------------------------------------------------
     1 OT DIIS     0.15E+00   36.3     0.09744709       -10.1689472778 -1.02E+01
     2 OT DIIS     0.15E+00    1.8     0.06996263       -10.2214990765 -5.26E-02
     3 OT DIIS     0.15E+00    1.6     0.03001386       -10.5034089317 -2.82E-01
     4 OT DIIS     0.15E+00    1.6     0.01116964       -10.5643174083 -6.09E-02
     5 OT DIIS     0.15E+00    1.7     0.00724438       -10.5744120138 -1.01E-02
     6 OT DIIS     0.15E+00    1.6     0.00419567       -10.5799456279 -5.53E-03
     7 OT DIIS     0.15E+00    1.7     0.00267586       -10.5822451503 -2.30E-03
     8 OT DIIS     0.15E+00    1.6     0.00163055       -10.5833532211 -1.11E-03
     9 OT DIIS     0.15E+00    1.6     0.00156138       -10.5838502804 -4.97E-04
    10 OT DIIS     0.15E+00    1.7     0.00094879       -10.5842564826 -4.06E-04

  Leaving inner SCF loop after reaching    10 steps.


  Electronic density on regular grids:         -8.0000000000       -0.0000000000
  Core density on regular grids:                8.0000000000       -0.0000000000
  Total charge density on r-space grids:       -0.0000000000
  Total charge density g-space grids:          -0.0000000000

  Overlap energy of the core charge distribution:               0.00000010639116
  Self energy of the core charge distribution:                -24.57393470304887
  Core Hamiltonian energy:                                      5.50990138311241
  Hartree energy:                                              11.02753243262720
  Exchange-correlation energy:                                 -1.97368075495689
  Hartree-Fock Exchange energy:                                -0.57407494676187

  Total energy:                                               -10.58425648263686

  outer SCF iter =    1 RMS gradient =   0.95E-03 energy =        -10.5842564826

  ----------------------------------- OT ---------------------------------------
  Minimizer      : DIIS                : direct inversion
                                         in the iterative subspace
                                         using   7 DIIS vectors
                                         safer DIIS on
  Preconditioner : FULL_ALL            : diagonalization, state selective
  Precond_solver : DEFAULT
  stepsize       :    0.15000000                  energy_gap     :    0.08000000
  eps_taylor     :   0.10000E-15                  max_taylor     :             4
  ----------------------------------- OT ---------------------------------------

  Step     Update method      Time    Convergence         Total energy    Change
  ------------------------------------------------------------------------------
     1 OT DIIS     0.15E+00    3.4     0.00103075       -10.5844634059 -2.07E-04
     2 OT DIIS     0.15E+00    1.7     0.00066105       -10.5845739012 -1.10E-04
     3 OT DIIS     0.15E+00    1.6     0.00043941       -10.5846355362 -6.16E-05
     4 OT DIIS     0.15E+00    1.6     0.00012418       -10.5846506979 -1.52E-05
     5 OT DIIS     0.15E+00    1.6     0.00004874       -10.5846521555 -1.46E-06
     6 OT DIIS     0.15E+00    1.6     0.00001444       -10.5846524646 -3.09E-07
     7 OT DIIS     0.15E+00    1.6     0.00000935       -10.5846524875 -2.30E-08
     8 OT DIIS     0.15E+00    1.6     0.00000223       -10.5846524924 -4.90E-09
     9 OT DIIS     0.15E+00    1.6     0.00000052       -10.5846524933 -8.92E-10
    10 OT DIIS     0.15E+00    1.6     0.00000024       -10.5846524934 -3.73E-11

  Leaving inner SCF loop after reaching    10 steps.


  Electronic density on regular grids:         -8.0000000000       -0.0000000000
  Core density on regular grids:                8.0000000000       -0.0000000000
  Total charge density on r-space grids:       -0.0000000000
  Total charge density g-space grids:          -0.0000000000

  Overlap energy of the core charge distribution:               0.00000010639116
  Self energy of the core charge distribution:                -24.57393470304887
  Core Hamiltonian energy:                                      5.51586383347525
  Hartree energy:                                              11.02131141929319
  Exchange-correlation energy:                                 -1.97390123542247
  Hartree-Fock Exchange energy:                                -0.57399191404489

  Total energy:                                               -10.58465249335661

  outer SCF iter =    2 RMS gradient =   0.24E-06 energy =        -10.5846524934

  ----------------------------------- OT ---------------------------------------
  Minimizer      : DIIS                : direct inversion
                                         in the iterative subspace
                                         using   7 DIIS vectors
                                         safer DIIS on
  Preconditioner : FULL_ALL            : diagonalization, state selective
  Precond_solver : DEFAULT
  stepsize       :    0.15000000                  energy_gap     :    0.08000000
  eps_taylor     :   0.10000E-15                  max_taylor     :             4
  ----------------------------------- OT ---------------------------------------

  Step     Update method      Time    Convergence         Total energy    Change
  ------------------------------------------------------------------------------
     1 OT DIIS     0.15E+00    3.3     0.00000008       -10.5846524934 -8.30E-12

  *** SCF run converged in     1 steps ***


  Electronic density on regular grids:         -8.0000000000       -0.0000000000
  Core density on regular grids:                8.0000000000       -0.0000000000
  Total charge density on r-space grids:       -0.0000000000
  Total charge density g-space grids:          -0.0000000000

  Overlap energy of the core charge distribution:               0.00000010639116
  Self energy of the core charge distribution:                -24.57393470304887
  Core Hamiltonian energy:                                      5.51586377422808
  Hartree energy:                                              11.02131119105630
  Exchange-correlation energy:                                 -1.97390103736010
  Hartree-Fock Exchange energy:                                -0.57399182463149

  Total energy:                                               -10.58465249336492

  outer SCF iter =    3 RMS gradient =   0.78E-07 energy =        -10.5846524934
  outer SCF loop converged in   3 iterations or   21 steps


 ENERGY| Total FORCE_EVAL ( QS ) energy [a.u.]:              -10.584652493364917

 -------------------------------------------------------------------------------
 -                                                                             -
 -                                DBCSR STATISTICS                             -
 -                                                                             -
 -------------------------------------------------------------------------------
 COUNTER                                    TOTAL       BLAS       SMM       ACC
 flops     4 x     4 x     4                23296       0.0%    100.0%      0.0%
 flops     4 x     4 x    51               283968       0.0%    100.0%      0.0%
 flops     4 x     4 x   116               322944       0.0%    100.0%      0.0%
 flops    51 x     4 x     4               352512       0.0%    100.0%      0.0%
 flops   116 x     4 x     4               400896       0.0%    100.0%      0.0%
 flops    51 x   116 x     4              1041216       0.0%    100.0%      0.0%
 flops   116 x    51 x     4              1041216       0.0%    100.0%      0.0%
 flops    51 x    51 x     4              1373328       0.0%    100.0%      0.0%
 flops   116 x   116 x     4              2368256       0.0%    100.0%      0.0%
 flops    51 x     4 x    51              9155520       0.0%    100.0%      0.0%
 flops   116 x     4 x    51             10412160       0.0%    100.0%      0.0%
 flops    51 x     4 x   116             10412160       0.0%    100.0%      0.0%
 flops   116 x     4 x   116             11841280       0.0%    100.0%      0.0%
 flops inhomo. stacks                           0       0.0%      0.0%      0.0%
 flops total                        49.028752E+06       0.0%    100.0%      0.0%
 flops max/rank                     25.652800E+06       0.0%    100.0%      0.0%
 matmuls inhomo. stacks                         0       0.0%      0.0%      0.0%
 matmuls total                               1889       0.0%    100.0%      0.0%
 number of processed stacks                  1889       0.0%    100.0%      0.0%
 average stack size                                     0.0       1.0       0.0
 marketing flops                    51.589888E+06
 -------------------------------------------------------------------------------
 # multiplications                            512
 max memory usage/rank               1.391833E+09
 # max total images/rank                        1
 # max 3D layers                                1
 # MPI messages exchanged                   49152
 MPI messages size (bytes):
  total size                       134.769216E+06
  min size                           0.000000E+00
  max size                         107.648000E+03
  average size                       2.741887E+03
 MPI breakdown and total messages size (bytes):
             size <=      128               42258                   181248
       128 < size <=     8192                3924                  9124608
      8192 < size <=    32768                1320                 27466560
     32768 < size <=   131072                1650                 97996800
    131072 < size <=  4194304                   0                        0
   4194304 < size <= 16777216                   0                        0
  16777216 < size                               0                        0
 -------------------------------------------------------------------------------
 -                                                                             -
 -                      DBCSR MESSAGE PASSING PERFORMANCE                      -
 -                                                                             -
 -------------------------------------------------------------------------------
 ROUTINE             CALLS      AVE VOLUME [Bytes]
 MP_Bcast               14                     12.
 MP_Allreduce         2725                      8.
 MP_Alltoall          2083                   2635.
 MP_ISend             8180                   2400.
 MP_IRecv             8180                   1439.
 -------------------------------------------------------------------------------

 -------------------------------------------------------------------------------
 -                                                                             -
 -                                GRID STATISTICS                              -
 -                                                                             -
 -------------------------------------------------------------------------------
 LP    KERNEL    OPERATION                                     COUNT     PERCENT
 0     general   collocate                                         3       0.01%
 0     ortho     integrate                                      2268       8.75%
 0     ortho     collocate                                      2376       9.16%
 1     ortho     integrate                                      2016       7.77%
 1     ortho     collocate                                      2112       8.14%
 2     ortho     integrate                                      1344       5.18%
 2     ortho     collocate                                      1408       5.43%
 3     ortho     integrate                                      2268       8.75%
 3     ortho     collocate                                      2376       9.16%
 4     ortho     integrate                                      2016       7.77%
 4     ortho     collocate                                      2112       8.14%
 5     ortho     integrate                                      1344       5.18%
 5     ortho     collocate                                      1408       5.43%
 6     ortho     integrate                                       567       2.19%
 6     ortho     collocate                                       594       2.29%
 7     ortho     integrate                                       504       1.94%
 7     ortho     collocate                                       528       2.04%
 8     ortho     integrate                                       336       1.30%
 8     ortho     collocate                                       352       1.36%
 -------------------------------------------------------------------------------

 MEMORY| Estimated peak process memory [MiB]                                1328

 -------------------------------------------------------------------------------
 -                                                                             -
 -                         MESSAGE PASSING PERFORMANCE                         -
 -                                                                             -
 -------------------------------------------------------------------------------

 ROUTINE             CALLS      AVE VOLUME [Bytes]
 MP_Group                5
 MP_Bcast              201                 829288.
 MP_Allreduce          615                   2254.
 MP_Sync               112
 MP_Alltoall           364               15746869.
 MP_ISendRecv         3255                 809949.
 MP_Wait              3255
 MP_Recv                 6                   1744.
 -------------------------------------------------------------------------------


 -------------------------------------------------------------------------------
 -                                                                             -
 -                           R E F E R E N C E S                               -
 -                                                                             -
 -------------------------------------------------------------------------------
 
 CP2K version 8.0 (Development Version), the CP2K developers group (2020).
 CP2K is freely available from https://www.cp2k.org/ .

 Kuehne,Thomas D.; Iannuzzi,Marcella; Del Ben,Mauro;
 Rybkin,Vladimir V.; Seewald,Patrick; Stein,Frederick; Laino,Teodoro;
 Khaliullin,Rustam Z.; Schuett,Ole; Schiffmann,Florian; Golze,Dorothea;
 Wilhelm,Jan; Chulkov,Sergey; Bani-Hashemian,Mohammad Hossein;
 Weber,Valery; Borstnik,Urban; Taillefumier,Mathieu;
 Jakobovits,Alice Shoshana; Lazzaro,Alfio; Pabst,Hans; Mueller,Tiziano;
 Schade,Robert; Guidon,Manuel; Andermatt,Samuel; Holmberg,Nico;
 Schenter,Gregory K.; Hehn,Anna; Bussy,Augustin; Belleflamme,Fabian;
 Tabacchi,Gloria; Gloess,Andreas; Lass,Michael; Bethune,Iain;
 Mundy,Christopher J.; Plessl,Christian; Watkins,Matt;
 VandeVondele,Joost; Krack,Matthias; Hutter,Juerg. 
 The Journal of Chemical Physics, 152 (19), (2020). 
 CP2K: An electronic structure and molecular dynamics software package -
 Quickstep: Efficient and accurate electronic structure calculations.
 https://doi.org/10.1063/5.0007045

 Schuett, Ole; Messmer, Peter; Hutter, Juerg; VandeVondele, Joost. 
 Electronic Structure Calculations on Graphics Processing Units, John
 Wiley & Sons, Ltd, 173-190 (2016). 
 GPU-Accelerated Sparse Matrix-Matrix Multiplication for
 Linear Scaling Density Functional Theory.
 https://doi.org/10.1002/9781118670712.ch8

 Borstnik, U; VandeVondele, J; Weber, V; Hutter, J. 
 PARALLEL COMPUTING, 40 (5-6), 47-58 (2014). 
 Sparse matrix multiplication: The distributed block-compressed sparse
 row library.
 https://doi.org/10.1016/j.parco.2014.03.012

 Hutter, J; Iannuzzi, M; Schiffmann, F; VandeVondele, J. 
 WIREs Comput Mol Sci., 4 (1), 15-25 (2014). 
 CP2K: atomistic simulations of condensed matter systems.
 https://doi.org/10.1002/wcms.1159

 Marek, A; Blum, V; Johanni, R; Havu, V; Lang, B; Auckenthaler, T;
 Heinecke, A; Bungartz, H; Lederer, H. 
 Journal of Physics: Condensed Matter, 26 (21), (2014). 
 The ELPA library: scalable parallel eigenvalue solutions for
 electronic structure
 theory and computational science.
 https://doi.org/10.1088/0953-8984/26/21/213201

 Guidon, M; Hutter, J; VandeVondele, J. 
 JOURNAL OF CHEMICAL THEORY AND COMPUTATION, 5 (11), 3010-3021 (2009). 
 Robust Periodic Hartree-Fock Exchange for Large-Scale Simulations Using
 Gaussian Basis Sets.
 https://doi.org/10.1021/ct900494g

 Guidon, M; Schiffmann, F; Hutter, J; VandeVondele, J. 
 JOURNAL OF CHEMICAL PHYSICS, 128 (21), 214104 (2008). 
 Ab initio molecular dynamics using hybrid density functionals.
 https://doi.org/10.1063/1.2931945

 Krack, M. 
 THEORETICAL CHEMISTRY ACCOUNTS, 114 (1-3), 145-152 (2005). 
 Pseudopotentials for H to Kr optimized for gradient-corrected
 exchange-correlation functionals.
 https://doi.org/10.1007/s00214-005-0655-y

 VandeVondele, J; Krack, M; Mohamed, F; Parrinello, M; Chassaing, T;
 Hutter, J. COMPUTER PHYSICS COMMUNICATIONS, 167 (2), 103-128 (2005). 
 QUICKSTEP: Fast and accurate density functional calculations using a
 mixed Gaussian and plane waves approach.
 https://doi.org/10.1016/j.cpc.2004.12.014

 Frigo, M; Johnson, SG. 
 PROCEEDINGS OF THE IEEE, 93 (2), 216-231 (2005). 
 The design and implementation of FFTW3.
 https://doi.org/10.1109/JPROC.2004.840301

 VandeVondele, J; Hutter, J. 
 JOURNAL OF CHEMICAL PHYSICS, 118 (10), 4365-4369 (2003). 
 An efficient orbital transformation method for electronic structure
 calculations.
 https://doi.org/10.1063/1.1543154

 Martyna, GJ; Tuckerman, ME. 
 JOURNAL OF CHEMICAL PHYSICS, 110 (6), 2810-2821 (1999). 
 A reciprocal space based method for treating long range interactions in
 ab initio and force-field-based calculations in clusters.
 https://doi.org/10.1063/1.477923

 Hartwigsen, C; Goedecker, S; Hutter, J. 
 PHYSICAL REVIEW B, 58 (7), 3641-3662 (1998). 
 Relativistic separable dual-space Gaussian pseudopotentials from H to Rn.
 https://doi.org/10.1103/PhysRevB.58.3641

 Lippert, G; Hutter, J; Parrinello, M. 
 MOLECULAR PHYSICS, 92 (3), 477-487 (1997). 
 A hybrid Gaussian and plane wave density functional scheme.
 https://doi.org/10.1080/002689797170220

 Perdew, JP; Burke, K; Ernzerhof, M. 
 PHYSICAL REVIEW LETTERS, 77 (18), 3865-3868 (1996). 
 Generalized gradient approximation made simple.
 https://doi.org/10.1103/PhysRevLett.77.3865

 Goedecker, S; Teter, M; Hutter, J. 
 PHYSICAL REVIEW B, 54 (3), 1703-1710 (1996). 
 Separable dual-space Gaussian pseudopotentials.
 https://doi.org/10.1103/PhysRevB.54.1703


 -------------------------------------------------------------------------------
 -                                                                             -
 -                                T I M I N G                                  -
 -                                                                             -
 -------------------------------------------------------------------------------
 SUBROUTINE                       CALLS  ASD         SELF TIME        TOTAL TIME
                                MAXIMUM       AVERAGE  MAXIMUM  AVERAGE  MAXIMUM
 CP2K                                 1  1.0    0.019    0.068   70.634   70.639
 qs_energies                          1  2.0    0.000    0.000   70.095   70.101
 scf_env_do_scf                       1  3.0    0.000    0.000   69.711   69.717
 qs_ks_update_qs_env                 24  5.0    0.000    0.000   64.736   64.743
 rebuild_ks_matrix                   21  6.0    0.000    0.000   64.733   64.740
 qs_ks_build_kohn_sham_matrix        21  7.0    0.004    0.004   64.733   64.740
 hfx_ks_matrix                       21  8.0    0.001    0.001   50.476   50.480
 integrate_four_center               21  9.0    0.125    0.131   50.474   50.479
 init_scf_loop                        3  4.0    0.000    0.000   39.169   39.172
 scf_env_do_scf_inner_loop           21  4.0    0.001    0.002   30.542   30.544
 integrate_four_center_main          21 10.0    0.004    0.005   14.570   26.865
 integrate_four_center_bin         2667 11.0   14.567   26.862   14.567   26.862
 mp_sync                            112 10.7   17.042   23.829   17.042   23.829
 calc_screening_functions             1 10.0   16.764   17.208   17.087   17.520
 qs_vxc_create                       21  8.0    0.000    0.001    9.666    9.687
 xc_vxc_pw_create                    21  9.0    0.087    0.093    9.666    9.686
 pw_transfer                        406  9.6    0.045    0.051    8.735    8.832
 fft_wrap_pw1pw2                    364 10.7    0.006    0.007    8.635    8.740
 fft_wrap_pw1pw2_300                234 11.8    0.432    0.447    8.049    8.175
 fft3d_ps                           364 12.7    3.855    3.981    6.463    6.640
 xc_rho_set_and_dset_create          21 10.0    0.029    0.031    6.271    6.536
 qs_rho_update_rho                   22  5.0    0.000    0.000    4.774    4.774
 calculate_rho_elec                  22  6.0    0.035    0.038    4.774    4.774
 xc_functional_eval                  21 11.0    0.000    0.000    3.861    4.122
 pbe_lda_eval                        21 12.0    3.860    4.122    3.860    4.122
 rs_pw_transfer                     173  9.4    0.004    0.005    3.454    3.630
 density_rs2pw                       22  7.0    0.001    0.001    3.315    3.495
 sum_up_and_integrate                21  8.0    0.015    0.017    2.867    3.307
 integrate_v_rspace_low              21  9.0    0.132    0.572    2.853    3.293
 potential_pw2rs                     21 10.0    0.002    0.002    2.718    2.720
 mp_waitall_1                     27831 14.0    2.090    2.361    2.090    2.361
 mp_alltoall_z22v                   364 14.7    1.519    1.957    1.519    1.957
 yz_to_x                            174 13.1    0.533    0.624    1.407    1.611
 rs_pw_transfer_RS2PW_300            23  8.9    0.602    0.655    1.431    1.606
 mp_sum_l                          2547 10.8    0.921    1.565    0.921    1.565
 -------------------------------------------------------------------------------

 The number of warnings for this run is : 0
 
 -------------------------------------------------------------------------------
  **** **** ******  **  PROGRAM ENDED AT                 2020-12-04 20:16:28.267
 ***** ** ***  *** **   PROGRAM RAN ON                                   tcopt10
 **    ****   ******    PROGRAM RAN BY                                    hutter
 ***** **    ** ** **   PROGRAM PROCESS ID                                 53326
  **** **  *******  **  PROGRAM STOPPED IN /data/hutter/GITHUB/BASIS/MOLOPT/PBE0
                                           /K
