 DBCSR| CPU Multiplication driver                                           XSMM
 DBCSR| Multrec recursion limit                                              512
 DBCSR| Multiplication stack size                                           1000
 DBCSR| Maximum elements for images                                    UNLIMITED
 DBCSR| Multiplicative factor virtual images                                   1
 DBCSR| Use multiplication densification                                       T
 DBCSR| Multiplication size stacks                                             3
 DBCSR| Use memory pool for CPU allocation                                     F
 DBCSR| Number of 3D layers                                               SINGLE
 DBCSR| Use MPI memory allocation                                              F
 DBCSR| Use RMA algorithm                                                      F
 DBCSR| Use Communication thread                                               T
 DBCSR| Communication thread load                                             87
 DBCSR| Split modifier for TAS multiplication algorithm                  1.0E+00


  **** **** ******  **  PROGRAM STARTED AT               2020-12-04 20:56:57.547
 ***** ** ***  *** **   PROGRAM STARTED ON                               tcopt10
 **    ****   ******    PROGRAM STARTED BY                                hutter
 ***** **    ** ** **   PROGRAM PROCESS ID                                 56593
  **** **  *******  **  PROGRAM STARTED IN /data/hutter/GITHUB/BASIS/MOLOPT/PBE0
                                           /K

 CP2K| version string:                    CP2K version 8.0 (Development Version)
 CP2K| source code revision number:                                  git:afc71fa
 CP2K| cp2kflags: omp libint fftw3 libxc elpa parallel mpi3 scalapack xsmm spgli
 CP2K|            b sirius
 CP2K| is freely available from                            https://www.cp2k.org/
 CP2K| Program compiled at                          Tue Nov 17 10:27:14 CET 2020
 CP2K| Program compiled on                                               tcopt10
 CP2K| Program compiled for                                                local
 CP2K| Data directory path                 /data/hutter/GITHUB/CURRENT/cp2k/data
 CP2K| Input file name                                               KCl-ref.inp

 GLOBAL| Force Environment number                                              1
 GLOBAL| Basis set file name                                  ../PBE0_UCSEGBASIS
 GLOBAL| Potential file name                                        ../POTENTIAL
 GLOBAL| MM Potential file name                                     MM_POTENTIAL
 GLOBAL| Coordinate file name                                      __STD_INPUT__
 GLOBAL| Method name                                                        CP2K
 GLOBAL| Project name                                                   refKClq1
 GLOBAL| Preferred FFT library                                             FFTW3
 GLOBAL| Preferred diagonalization lib.                                     ELPA
 GLOBAL| Run type                                                         ENERGY
 GLOBAL| All-to-all communication in single precision                          F
 GLOBAL| FFTs using library dependent lengths                                  F
 GLOBAL| Global print level                                                  LOW
 GLOBAL| MPI I/O enabled                                                       T
 GLOBAL| Total number of message passing processes                            16
 GLOBAL| Number of threads for this process                                    1
 GLOBAL| This output is from process                                           0
 GLOBAL| CPU model name                          AMD EPYC 7401 24-Core Processor
 GLOBAL| CPUID                                                              1002

 MEMORY| system memory details [Kb]
 MEMORY|                        rank 0           min           max       average
 MEMORY| MemTotal            263987256     263987256     263987256     263987256
 MEMORY| MemFree             135236880     135236880     135236880     135236880
 MEMORY| Buffers                    32            32            32            32
 MEMORY| Cached               16330704      16330704      16330704      16330704
 MEMORY| Slab                  1371196       1371196       1371196       1371196
 MEMORY| SReclaimable           706248        706248        706248        706248
 MEMORY| MemLikelyFree       152273864     152273864     152273864     152273864


 GENERATE|  Preliminary Number of Bonds generated:                             0
 GENERATE|  Achieved consistency in connectivity generation.

 *******************************************************************************
 *******************************************************************************
 **                                                                           **
 **     #####                         ##              ##                      **
 **    ##   ##            ##          ##              ##                      **
 **   ##     ##                       ##            ######                    **
 **   ##     ##  ##   ##  ##   #####  ##  ##   ####   ##    #####    #####    **
 **   ##     ##  ##   ##  ##  ##      ## ##   ##      ##   ##   ##  ##   ##   **
 **   ##  ## ##  ##   ##  ##  ##      ####     ###    ##   ######   ######    **
 **    ##  ###   ##   ##  ##  ##      ## ##      ##   ##   ##       ##        **
 **     #######   #####   ##   #####  ##  ##  ####    ##    #####   ##        **
 **           ##                                                    ##        **
 **                                                                           **
 **                                                ... make the atoms dance   **
 **                                                                           **
 **            Copyright (C) by CP2K developers group (2000 - 2020)           **
 **                      J. Chem. Phys. 152, 194103 (2020)                    **
 **                                                                           **
 *******************************************************************************


 TOTAL NUMBERS AND MAXIMUM NUMBERS

  Total number of            - Atomic kinds:                                   2
                             - Atoms:                                          2
                             - Shell sets:                                    14
                             - Shells:                                        43
                             - Primitive Cartesian functions:                 21
                             - Cartesian basis functions:                    219
                             - Spherical basis functions:                    167

  Maximum angular momentum of- Orbital basis functions:                        4
                             - Local part of the GTH pseudopotential:          0
                             - Non-local part of the GTH pseudopotential:      4


 SCF PARAMETERS         Density guess:                                    ATOMIC
                        --------------------------------------------------------
                        max_scf:                                              10
                        max_scf_history:                                       0
                        max_diis:                                              4
                        --------------------------------------------------------
                        eps_scf:                                        1.00E-07
                        eps_scf_history:                                0.00E+00
                        eps_diis:                                       1.00E-01
                        eps_eigval:                                     1.00E-05
                        --------------------------------------------------------
                        level_shift [a.u.]:                                 0.00
                        --------------------------------------------------------
                        Outer loop SCF in use 
                        No variables optimised in outer loop
                        eps_scf                                         1.00E-07
                        max_scf                                               10
                        No outer loop optimization
                        step_size                                       5.00E-01

 Number of electrons:                                                          8
 Number of occupied orbitals:                                                  4
 Number of molecular orbitals:                                                 4

 Number of orbital functions:                                                167
 Number of independent orbital functions:                                    167

 Extrapolation method: initial_guess


 SCF WAVEFUNCTION OPTIMIZATION

  ----------------------------------- OT ---------------------------------------
  Minimizer      : DIIS                : direct inversion
                                         in the iterative subspace
                                         using   7 DIIS vectors
                                         safer DIIS on
  Preconditioner : FULL_ALL            : diagonalization, state selective
  Precond_solver : DEFAULT
  stepsize       :    0.15000000                  energy_gap     :    0.08000000
  eps_taylor     :   0.10000E-15                  max_taylor     :             4
  ----------------------------------- OT ---------------------------------------

  Step     Update method      Time    Convergence         Total energy    Change
  ------------------------------------------------------------------------------
     1 OT DIIS     0.15E+00   30.9     0.05029128       -15.0666223439 -1.51E+01
     2 OT DIIS     0.15E+00    1.8     0.01894322       -15.2165580846 -1.50E-01
     3 OT DIIS     0.15E+00    1.7     0.00637194       -15.2367483994 -2.02E-02
     4 OT DIIS     0.15E+00    1.6     0.00170956       -15.2390443506 -2.30E-03
     5 OT DIIS     0.15E+00    1.6     0.00041782       -15.2392599524 -2.16E-04
     6 OT DIIS     0.15E+00    1.6     0.00011042       -15.2392730996 -1.31E-05
     7 OT DIIS     0.15E+00    1.6     0.00003031       -15.2392738341 -7.34E-07
     8 OT DIIS     0.15E+00    1.7     0.00001191       -15.2392738905 -5.64E-08
     9 OT DIIS     0.15E+00    1.6     0.00000151       -15.2392738973 -6.79E-09
    10 OT DIIS     0.15E+00    1.6     0.00000031       -15.2392738975 -1.95E-10

  Leaving inner SCF loop after reaching    10 steps.


  Electronic density on regular grids:         -8.0000000000        0.0000000000
  Core density on regular grids:                8.0000000000        0.0000000000
  Total charge density on r-space grids:        0.0000000000
  Total charge density g-space grids:           0.0000000000

  Overlap energy of the core charge distribution:               0.00000016322338
  Self energy of the core charge distribution:                -33.78726312771659
  Core Hamiltonian energy:                                      7.83828786498516
  Hartree energy:                                              13.83586469322368
  Exchange-correlation energy:                                 -2.40629624829262
  Hartree-Fock Exchange energy:                                -0.71986724290311

  Total energy:                                               -15.23927389748011

  outer SCF iter =    1 RMS gradient =   0.31E-06 energy =        -15.2392738975

  ----------------------------------- OT ---------------------------------------
  Minimizer      : DIIS                : direct inversion
                                         in the iterative subspace
                                         using   7 DIIS vectors
                                         safer DIIS on
  Preconditioner : FULL_ALL            : diagonalization, state selective
  Precond_solver : DEFAULT
  stepsize       :    0.15000000                  energy_gap     :    0.08000000
  eps_taylor     :   0.10000E-15                  max_taylor     :             4
  ----------------------------------- OT ---------------------------------------

  Step     Update method      Time    Convergence         Total energy    Change
  ------------------------------------------------------------------------------
     1 OT DIIS     0.15E+00    3.3     0.00000007       -15.2392738975 -8.02E-12

  *** SCF run converged in     1 steps ***


  Electronic density on regular grids:         -8.0000000000        0.0000000000
  Core density on regular grids:                8.0000000000        0.0000000000
  Total charge density on r-space grids:        0.0000000000
  Total charge density g-space grids:           0.0000000000

  Overlap energy of the core charge distribution:               0.00000016322338
  Self energy of the core charge distribution:                -33.78726312771659
  Core Hamiltonian energy:                                      7.83828434392874
  Hartree energy:                                              13.83586808298053
  Exchange-correlation energy:                                 -2.40629614366226
  Hartree-Fock Exchange energy:                                -0.71986721624192

  Total energy:                                               -15.23927389748812

  outer SCF iter =    2 RMS gradient =   0.70E-07 energy =        -15.2392738975
  outer SCF loop converged in   2 iterations or   11 steps


 ENERGY| Total FORCE_EVAL ( QS ) energy [a.u.]:              -15.239273897488124

 -------------------------------------------------------------------------------
 -                                                                             -
 -                                DBCSR STATISTICS                             -
 -                                                                             -
 -------------------------------------------------------------------------------
 COUNTER                                    TOTAL       BLAS       SMM       ACC
 flops     4 x     4 x     4                10880       0.0%    100.0%      0.0%
 flops     4 x     4 x    51                75072       0.0%    100.0%      0.0%
 flops    51 x     4 x     4                93024       0.0%    100.0%      0.0%
 flops     4 x     4 x   116               170752       0.0%    100.0%      0.0%
 flops   116 x     4 x     4               211584       0.0%    100.0%      0.0%
 flops    51 x    51 x     4               249696       0.0%    100.0%      0.0%
 flops   116 x    51 x     4               567936       0.0%    100.0%      0.0%
 flops    51 x     4 x    51              1290096       0.0%    100.0%      0.0%
 flops   116 x   116 x     4              1291776       0.0%    100.0%      0.0%
 flops   116 x     4 x    51              2934336       0.0%    100.0%      0.0%
 flops    51 x     4 x   116              2934336       0.0%    100.0%      0.0%
 flops   116 x     4 x   116              6674176       0.0%    100.0%      0.0%
 flops inhomo. stacks                           0       0.0%      0.0%      0.0%
 flops total                        16.503664E+06       0.0%    100.0%      0.0%
 flops max/rank                     11.368576E+06       0.0%    100.0%      0.0%
 matmuls inhomo. stacks                         0       0.0%      0.0%      0.0%
 matmuls total                                575       0.0%    100.0%      0.0%
 number of processed stacks                   575       0.0%    100.0%      0.0%
 average stack size                                     0.0       1.0       0.0
 marketing flops                    17.082288E+06
 -------------------------------------------------------------------------------
 # multiplications                            264
 max memory usage/rank               1.374945E+09
 # max total images/rank                        1
 # max 3D layers                                1
 # MPI messages exchanged                   25344
 MPI messages size (bytes):
  total size                        45.353520E+06
  min size                           0.000000E+00
  max size                         107.648000E+03
  average size                       1.789517E+03
 MPI breakdown and total messages size (bytes):
             size <=      128               23190                    87168
       128 < size <=     8192                1410                  3767520
      8192 < size <=    32768                 186                  3870288
     32768 < size <=   131072                 558                 37628544
    131072 < size <=  4194304                   0                        0
   4194304 < size <= 16777216                   0                        0
  16777216 < size                               0                        0
 -------------------------------------------------------------------------------
 -                                                                             -
 -                      DBCSR MESSAGE PASSING PERFORMANCE                      -
 -                                                                             -
 -------------------------------------------------------------------------------
 ROUTINE             CALLS      AVE VOLUME [Bytes]
 MP_Bcast               13                     12.
 MP_Allreduce         1417                      8.
 MP_Alltoall          1254                   2922.
 MP_ISend             4216                   2606.
 MP_IRecv             4216                    808.
 -------------------------------------------------------------------------------

 -------------------------------------------------------------------------------
 -                                                                             -
 -                                GRID STATISTICS                              -
 -                                                                             -
 -------------------------------------------------------------------------------
 LP    KERNEL    OPERATION                                     COUNT     PERCENT
 0     general   collocate                                         2       0.03%
 0     ortho     integrate                                       396       5.17%
 0     ortho     collocate                                       432       5.64%
 1     ortho     integrate                                       528       6.89%
 1     ortho     collocate                                       576       7.52%
 2     ortho     integrate                                       704       9.19%
 2     ortho     collocate                                       768      10.02%
 3     ortho     integrate                                       396       5.17%
 3     ortho     collocate                                       432       5.64%
 4     ortho     integrate                                       528       6.89%
 4     ortho     collocate                                       576       7.52%
 5     ortho     integrate                                       704       9.19%
 5     ortho     collocate                                       768      10.02%
 6     ortho     integrate                                        99       1.29%
 6     ortho     collocate                                       108       1.41%
 7     ortho     integrate                                       132       1.72%
 7     ortho     collocate                                       144       1.88%
 8     ortho     integrate                                       176       2.30%
 8     ortho     collocate                                       192       2.51%
 -------------------------------------------------------------------------------

 MEMORY| Estimated peak process memory [MiB]                                1314

 -------------------------------------------------------------------------------
 -                                                                             -
 -                         MESSAGE PASSING PERFORMANCE                         -
 -                                                                             -
 -------------------------------------------------------------------------------

 ROUTINE             CALLS      AVE VOLUME [Bytes]
 MP_Group                5
 MP_Bcast              149                1118077.
 MP_Allreduce          477                   2902.
 MP_Sync                62
 MP_Alltoall           194               15826124.
 MP_ISendRecv         1755                 815454.
 MP_Wait              1755
 MP_Recv                 3                   1336.
 -------------------------------------------------------------------------------


 -------------------------------------------------------------------------------
 -                                                                             -
 -                           R E F E R E N C E S                               -
 -                                                                             -
 -------------------------------------------------------------------------------
 
 CP2K version 8.0 (Development Version), the CP2K developers group (2020).
 CP2K is freely available from https://www.cp2k.org/ .

 Kuehne,Thomas D.; Iannuzzi,Marcella; Del Ben,Mauro;
 Rybkin,Vladimir V.; Seewald,Patrick; Stein,Frederick; Laino,Teodoro;
 Khaliullin,Rustam Z.; Schuett,Ole; Schiffmann,Florian; Golze,Dorothea;
 Wilhelm,Jan; Chulkov,Sergey; Bani-Hashemian,Mohammad Hossein;
 Weber,Valery; Borstnik,Urban; Taillefumier,Mathieu;
 Jakobovits,Alice Shoshana; Lazzaro,Alfio; Pabst,Hans; Mueller,Tiziano;
 Schade,Robert; Guidon,Manuel; Andermatt,Samuel; Holmberg,Nico;
 Schenter,Gregory K.; Hehn,Anna; Bussy,Augustin; Belleflamme,Fabian;
 Tabacchi,Gloria; Gloess,Andreas; Lass,Michael; Bethune,Iain;
 Mundy,Christopher J.; Plessl,Christian; Watkins,Matt;
 VandeVondele,Joost; Krack,Matthias; Hutter,Juerg. 
 The Journal of Chemical Physics, 152 (19), (2020). 
 CP2K: An electronic structure and molecular dynamics software package -
 Quickstep: Efficient and accurate electronic structure calculations.
 https://doi.org/10.1063/5.0007045

 Schuett, Ole; Messmer, Peter; Hutter, Juerg; VandeVondele, Joost. 
 Electronic Structure Calculations on Graphics Processing Units, John
 Wiley & Sons, Ltd, 173-190 (2016). 
 GPU-Accelerated Sparse Matrix-Matrix Multiplication for
 Linear Scaling Density Functional Theory.
 https://doi.org/10.1002/9781118670712.ch8

 Borstnik, U; VandeVondele, J; Weber, V; Hutter, J. 
 PARALLEL COMPUTING, 40 (5-6), 47-58 (2014). 
 Sparse matrix multiplication: The distributed block-compressed sparse
 row library.
 https://doi.org/10.1016/j.parco.2014.03.012

 Hutter, J; Iannuzzi, M; Schiffmann, F; VandeVondele, J. 
 WIREs Comput Mol Sci., 4 (1), 15-25 (2014). 
 CP2K: atomistic simulations of condensed matter systems.
 https://doi.org/10.1002/wcms.1159

 Marek, A; Blum, V; Johanni, R; Havu, V; Lang, B; Auckenthaler, T;
 Heinecke, A; Bungartz, H; Lederer, H. 
 Journal of Physics: Condensed Matter, 26 (21), (2014). 
 The ELPA library: scalable parallel eigenvalue solutions for
 electronic structure
 theory and computational science.
 https://doi.org/10.1088/0953-8984/26/21/213201

 Guidon, M; Hutter, J; VandeVondele, J. 
 JOURNAL OF CHEMICAL THEORY AND COMPUTATION, 5 (11), 3010-3021 (2009). 
 Robust Periodic Hartree-Fock Exchange for Large-Scale Simulations Using
 Gaussian Basis Sets.
 https://doi.org/10.1021/ct900494g

 Guidon, M; Schiffmann, F; Hutter, J; VandeVondele, J. 
 JOURNAL OF CHEMICAL PHYSICS, 128 (21), 214104 (2008). 
 Ab initio molecular dynamics using hybrid density functionals.
 https://doi.org/10.1063/1.2931945

 Krack, M. 
 THEORETICAL CHEMISTRY ACCOUNTS, 114 (1-3), 145-152 (2005). 
 Pseudopotentials for H to Kr optimized for gradient-corrected
 exchange-correlation functionals.
 https://doi.org/10.1007/s00214-005-0655-y

 VandeVondele, J; Krack, M; Mohamed, F; Parrinello, M; Chassaing, T;
 Hutter, J. COMPUTER PHYSICS COMMUNICATIONS, 167 (2), 103-128 (2005). 
 QUICKSTEP: Fast and accurate density functional calculations using a
 mixed Gaussian and plane waves approach.
 https://doi.org/10.1016/j.cpc.2004.12.014

 Frigo, M; Johnson, SG. 
 PROCEEDINGS OF THE IEEE, 93 (2), 216-231 (2005). 
 The design and implementation of FFTW3.
 https://doi.org/10.1109/JPROC.2004.840301

 VandeVondele, J; Hutter, J. 
 JOURNAL OF CHEMICAL PHYSICS, 118 (10), 4365-4369 (2003). 
 An efficient orbital transformation method for electronic structure
 calculations.
 https://doi.org/10.1063/1.1543154

 Martyna, GJ; Tuckerman, ME. 
 JOURNAL OF CHEMICAL PHYSICS, 110 (6), 2810-2821 (1999). 
 A reciprocal space based method for treating long range interactions in
 ab initio and force-field-based calculations in clusters.
 https://doi.org/10.1063/1.477923

 Hartwigsen, C; Goedecker, S; Hutter, J. 
 PHYSICAL REVIEW B, 58 (7), 3641-3662 (1998). 
 Relativistic separable dual-space Gaussian pseudopotentials from H to Rn.
 https://doi.org/10.1103/PhysRevB.58.3641

 Lippert, G; Hutter, J; Parrinello, M. 
 MOLECULAR PHYSICS, 92 (3), 477-487 (1997). 
 A hybrid Gaussian and plane wave density functional scheme.
 https://doi.org/10.1080/002689797170220

 Perdew, JP; Burke, K; Ernzerhof, M. 
 PHYSICAL REVIEW LETTERS, 77 (18), 3865-3868 (1996). 
 Generalized gradient approximation made simple.
 https://doi.org/10.1103/PhysRevLett.77.3865

 Goedecker, S; Teter, M; Hutter, J. 
 PHYSICAL REVIEW B, 54 (3), 1703-1710 (1996). 
 Separable dual-space Gaussian pseudopotentials.
 https://doi.org/10.1103/PhysRevB.54.1703


 -------------------------------------------------------------------------------
 -                                                                             -
 -                                T I M I N G                                  -
 -                                                                             -
 -------------------------------------------------------------------------------
 SUBROUTINE                       CALLS  ASD         SELF TIME        TOTAL TIME
                                MAXIMUM       AVERAGE  MAXIMUM  AVERAGE  MAXIMUM
 CP2K                                 1  1.0    0.012    0.063   48.560   48.561
 qs_energies                          1  2.0    0.000    0.000   48.041   48.042
 scf_env_do_scf                       1  3.0    0.000    0.000   47.676   47.677
 qs_ks_update_qs_env                 13  5.0    0.000    0.000   45.111   45.112
 rebuild_ks_matrix                   11  6.0    0.000    0.000   45.110   45.111
 qs_ks_build_kohn_sham_matrix        11  7.0    0.002    0.002   45.110   45.111
 hfx_ks_matrix                       11  8.0    0.000    0.000   37.535   37.538
 integrate_four_center               11  9.0    0.082    0.099   37.535   37.537
 init_scf_loop                        2  4.0    0.000    0.000   32.375   32.376
 mp_sync                             62 10.7   14.860   18.857   14.860   18.857
 integrate_four_center_main          11 10.0    0.002    0.002    4.005   18.844
 integrate_four_center_bin         1408 11.0    4.003   18.842    4.003   18.842
 calc_screening_functions             1 10.0   16.608   17.099   16.927   17.423
 scf_env_do_scf_inner_loop           11  4.0    0.001    0.001   15.300   15.300
 qs_vxc_create                       11  8.0    0.000    0.000    5.026    5.035
 xc_vxc_pw_create                    11  9.0    0.042    0.046    5.026    5.035
 pw_transfer                        216  9.6    0.023    0.027    4.785    5.026
 fft_wrap_pw1pw2                    194 10.6    0.003    0.003    4.732    4.971
 fft_wrap_pw1pw2_300                124 11.8    0.222    0.233    4.315    4.562
 fft3d_ps                           194 12.6    2.091    2.183    3.582    3.860
 xc_rho_set_and_dset_create          11 10.0    0.015    0.016    3.199    3.416
 qs_rho_update_rho                   12  5.0    0.000    0.000    2.558    2.558
 calculate_rho_elec                  12  6.0    0.020    0.021    2.558    2.558
 xc_functional_eval                  11 11.0    0.000    0.000    1.945    2.164
 pbe_lda_eval                        11 12.0    1.945    2.163    1.945    2.163
 rs_pw_transfer                      93  9.4    0.002    0.003    1.864    1.962
 density_rs2pw                       12  7.0    0.001    0.001    1.806    1.907
 sum_up_and_integrate                11  8.0    0.007    0.009    1.477    1.704
 integrate_v_rspace_low              11  9.0    0.047    0.273    1.469    1.698
 potential_pw2rs                     11 10.0    0.001    0.001    1.422    1.424
 mp_waitall_1                     14427 13.9    1.133    1.292    1.133    1.292
 mp_sum_l                          1360 10.4    0.769    1.247    0.769    1.247
 mp_alltoall_z22v                   194 14.6    0.894    1.236    0.894    1.236
 yz_to_x                             94 13.1    0.298    0.336    0.852    1.123
 calc_pair_dist_radii                 1 10.0    0.969    0.978    1.094    1.103
 -------------------------------------------------------------------------------

 The number of warnings for this run is : 0
 
 -------------------------------------------------------------------------------
  **** **** ******  **  PROGRAM ENDED AT                 2020-12-04 20:57:46.739
 ***** ** ***  *** **   PROGRAM RAN ON                                   tcopt10
 **    ****   ******    PROGRAM RAN BY                                    hutter
 ***** **    ** ** **   PROGRAM PROCESS ID                                 56593
  **** **  *******  **  PROGRAM STOPPED IN /data/hutter/GITHUB/BASIS/MOLOPT/PBE0
                                           /K
