SIRIUS 7.0.0, git hash: https://api.github.com/repos/electronic-structure/SIRIUS/git/ref/tags/v7.0.0

  **** **** ******  **  PROGRAM STARTED AT               2020-12-18 12:53:38.528
 ***** ** ***  *** **   PROGRAM STARTED ON                               tcopt10
 **    ****   ******    PROGRAM STARTED BY                                hutter
 ***** **    ** ** **   PROGRAM PROCESS ID                                 97940
  **** **  *******  **  PROGRAM STARTED IN /data/hutter/GITHUB/BASIS/MOLOPT/PBE0
                                           /K

 CP2K| version string:                    CP2K version 8.0 (Development Version)
 CP2K| source code revision number:                                  git:7416431
 CP2K| cp2kflags: omp libint fftw3 libxc elpa parallel mpi3 scalapack xsmm spgli
 CP2K|            b sirius
 CP2K| is freely available from                            https://www.cp2k.org/
 CP2K| Program compiled at                          Thu Dec 10 17:08:57 CET 2020
 CP2K| Program compiled on                                               tcopt10
 CP2K| Program compiled for                                                local
 CP2K| Data directory path                 /data/hutter/GITHUB/CURRENT/cp2k/data
 CP2K| Input file name                                              opt-dzvp.inp

 GLOBAL| Method name                                              OPTIMIZE_BASIS
 GLOBAL| Project name                                                     molopt
 GLOBAL| Preferred FFT library                                             FFTW3
 GLOBAL| Preferred diagonalization lib.                                     ELPA
 GLOBAL| Run type                                                   ENERGY_FORCE
 GLOBAL| All-to-all communication in single precision                          F
 GLOBAL| FFTs using library dependent lengths                                  F
 GLOBAL| Global print level                                               MEDIUM
 GLOBAL| MPI I/O enabled                                                       T
 GLOBAL| Total number of message passing processes                            25
 GLOBAL| Number of threads for this process                                    1
 GLOBAL| This output is from process                                           0
 GLOBAL| CPU model name                          AMD EPYC 7401 24-Core Processor
 GLOBAL| CPUID                                                              1002

 MEMORY| system memory details [Kb]
 MEMORY|                        rank 0           min           max       average
 MEMORY| MemTotal            263987256     263987256     263987256     263987256
 MEMORY| MemFree             188345648     188345648     188345648     188345648
 MEMORY| Buffers                    32            32            32            32
 MEMORY| Cached                 292648        292648        292648        292648
 MEMORY| Slab                   772300        772300        772300        772300
 MEMORY| SReclaimable           278488        278488        278488        278488
 MEMORY| MemLikelyFree       188916816     188916816     188916816     188916816


 *** Fundamental physical constants (SI units) ***

 *** Literature: B. J. Mohr and B. N. Taylor,
 ***             CODATA recommended values of the fundamental physical
 ***             constants: 2006, Web Version 5.1
 ***             http://physics.nist.gov/constants

 Speed of light in vacuum [m/s]                             2.99792458000000E+08
 Magnetic constant or permeability of vacuum [N/A**2]       1.25663706143592E-06
 Electric constant or permittivity of vacuum [F/m]          8.85418781762039E-12
 Planck constant (h) [J*s]                                  6.62606896000000E-34
 Planck constant (h-bar) [J*s]                              1.05457162825177E-34
 Elementary charge [C]                                      1.60217648700000E-19
 Electron mass [kg]                                         9.10938215000000E-31
 Electron g factor [ ]                                     -2.00231930436220E+00
 Proton mass [kg]                                           1.67262163700000E-27
 Fine-structure constant                                    7.29735253760000E-03
 Rydberg constant [1/m]                                     1.09737315685270E+07
 Avogadro constant [1/mol]                                  6.02214179000000E+23
 Boltzmann constant [J/K]                                   1.38065040000000E-23
 Atomic mass unit [kg]                                      1.66053878200000E-27
 Bohr radius [m]                                            5.29177208590000E-11

 *** Conversion factors ***

 [u] -> [a.u.]                                              1.82288848426455E+03
 [Angstrom] -> [Bohr] = [a.u.]                              1.88972613288564E+00
 [a.u.] = [Bohr] -> [Angstrom]                              5.29177208590000E-01
 [a.u.] -> [s]                                              2.41888432650478E-17
 [a.u.] -> [fs]                                             2.41888432650478E-02
 [a.u.] -> [J]                                              4.35974393937059E-18
 [a.u.] -> [N]                                              8.23872205491840E-08
 [a.u.] -> [K]                                              3.15774647902944E+05
 [a.u.] -> [kJ/mol]                                         2.62549961709828E+03
 [a.u.] -> [kcal/mol]                                       6.27509468713739E+02
 [a.u.] -> [Pa]                                             2.94210107994716E+13
 [a.u.] -> [bar]                                            2.94210107994716E+08
 [a.u.] -> [atm]                                            2.90362800883016E+08
 [a.u.] -> [eV]                                             2.72113838565563E+01
 [a.u.] -> [Hz]                                             6.57968392072181E+15
 [a.u.] -> [1/cm] (wave numbers)                            2.19474631370540E+05
 [a.u./Bohr**2] -> [1/cm]                                   5.14048714338585E+03
 
 DBCSR| CPU Multiplication driver                                           XSMM
 DBCSR| Multrec recursion limit                                              512
 DBCSR| Multiplication stack size                                           1000
 DBCSR| Maximum elements for images                                    UNLIMITED
 DBCSR| Multiplicative factor virtual images                                   1
 DBCSR| Use multiplication densification                                       T
 DBCSR| Multiplication size stacks                                             3
 DBCSR| Use memory pool for CPU allocation                                     F
 DBCSR| Number of 3D layers                                               SINGLE
 DBCSR| Use MPI memory allocation                                              F
 DBCSR| Use RMA algorithm                                                      F
 DBCSR| Use Communication thread                                               T
 DBCSR| Communication thread load                                             87
 DBCSR| MPI: My node id                                                        0
 DBCSR| MPI: Number of nodes                                                  25
 DBCSR| OMP: Current number of threads                                         1
 DBCSR| OMP: Max number of threads                                             1
 DBCSR| Split modifier for TAS multiplication algorithm                  1.0E+00

 BASOPT| Total number of calculations      5

 BASOPT| Content of basis combination      1
 BASOPT|     Element:    K    Basis set:    DZVP-MOLOPT-PBE0-GTH-Q9
 BASOPT|     Element:    H    Basis set:    DZVP-MOLOPT-PBE0-GTH-Q1
 BASOPT|     Element:    F    Basis set:    DZVP-MOLOPT-PBE0-GTH-Q7
 BASOPT|     Element:   CL    Basis set:    DZVP-MOLOPT-PBE0-GTH-Q7
 BASOPT|     Element:    S    Basis set:    DZVP-MOLOPT-PBE0-GTH-Q6
 BASOPT|     Element:    P    Basis set:    DZVP-MOLOPT-PBE0-GTH-Q5

 BASOPT| Information at iteration number:       0
 BASOPT| Training set | Combination | Rho difference | Condition num. | Time
 BASOPT| -----------------------------------------------------------------------
 BASOPT|        1     |       1     | 0.11983259E-01 | 0.58688794E+02 |    0.017
 BASOPT|        2     |       1     | 0.12445170E-01 | 0.99487995E+02 |    0.026
 BASOPT|        3     |       1     | 0.46499305E-02 | 0.19637312E+02 |    0.015
 BASOPT|        4     |       1     | 0.38342213E-02 | 0.19974036E+02 |    0.012
 BASOPT|        5     |       1     | 0.10384859E-01 | 0.14812762E+02 |    0.010
 BASOPT| -----------------------------------------------------------------------
 BASOPT| Total residuum value: -.70228161E+02

 BASOPT| Information at iteration number:     100
 BASOPT| Training set | Combination | Rho difference | Condition num. | Time
 BASOPT| -----------------------------------------------------------------------
 BASOPT|        1     |       1     | 0.10766646E-01 | 0.67807439E+02 |    1.551
 BASOPT|        2     |       1     | 0.10749926E-01 | 0.11733054E+03 |    2.358
 BASOPT|        3     |       1     | 0.44343106E-02 | 0.18870240E+02 |    1.042
 BASOPT|        4     |       1     | 0.37221468E-02 | 0.19642706E+02 |    0.841
 BASOPT|        5     |       1     | 0.89731283E-02 | 0.13565671E+02 |    0.740
 BASOPT| -----------------------------------------------------------------------
 BASOPT| Total residuum value: -.70305235E+02

 BASOPT| Information at iteration number:     200
 BASOPT| Training set | Combination | Rho difference | Condition num. | Time
 BASOPT| -----------------------------------------------------------------------
 BASOPT|        1     |       1     | 0.93691715E-02 | 0.88134222E+02 |    3.087
 BASOPT|        2     |       1     | 0.10764422E-01 | 0.15208782E+03 |    4.681
 BASOPT|        3     |       1     | 0.40631238E-02 | 0.22866966E+02 |    2.069
 BASOPT|        4     |       1     | 0.33701741E-02 | 0.21937612E+02 |    1.666
 BASOPT|        5     |       1     | 0.73505974E-02 | 0.13136763E+02 |    1.470
 BASOPT| -----------------------------------------------------------------------
 BASOPT| Total residuum value: -.70389845E+02

 BASOPT| Information at iteration number:     300
 BASOPT| Training set | Combination | Rho difference | Condition num. | Time
 BASOPT| -----------------------------------------------------------------------
 BASOPT|        1     |       1     | 0.69841346E-02 | 0.18477819E+03 |    4.623
 BASOPT|        2     |       1     | 0.75624349E-02 | 0.39387620E+03 |    6.997
 BASOPT|        3     |       1     | 0.38727717E-02 | 0.25179936E+02 |    3.093
 BASOPT|        4     |       1     | 0.35750427E-02 | 0.22655893E+02 |    2.491
 BASOPT|        5     |       1     | 0.55849638E-02 | 0.17809977E+02 |    2.201
 BASOPT| -----------------------------------------------------------------------
 BASOPT| Total residuum value: -.70478165E+02

 BASOPT| Information at iteration number:     400
 BASOPT| Training set | Combination | Rho difference | Condition num. | Time
 BASOPT| -----------------------------------------------------------------------
 BASOPT|        1     |       1     | 0.62776311E-02 | 0.15447222E+03 |    6.157
 BASOPT|        2     |       1     | 0.69394626E-02 | 0.29826542E+03 |    9.336
 BASOPT|        3     |       1     | 0.36610380E-02 | 0.23345062E+02 |    4.118
 BASOPT|        4     |       1     | 0.31848210E-02 | 0.20676510E+02 |    3.316
 BASOPT|        5     |       1     | 0.47622700E-02 | 0.13757959E+02 |    2.930
 BASOPT| -----------------------------------------------------------------------
 BASOPT| Total residuum value: -.70561868E+02

 BASOPT| Information at iteration number:     500
 BASOPT| Training set | Combination | Rho difference | Condition num. | Time
 BASOPT| -----------------------------------------------------------------------
 BASOPT|        1     |       1     | 0.61055874E-02 | 0.14596105E+03 |    7.697
 BASOPT|        2     |       1     | 0.66937488E-02 | 0.26937501E+03 |   11.667
 BASOPT|        3     |       1     | 0.36483735E-02 | 0.23268935E+02 |    5.143
 BASOPT|        4     |       1     | 0.31333592E-02 | 0.21131658E+02 |    4.140
 BASOPT|        5     |       1     | 0.45870699E-02 | 0.10667293E+02 |    3.659
 BASOPT| -----------------------------------------------------------------------
 BASOPT| Total residuum value: -.70580161E+02

 BASOPT| Information at iteration number:     600
 BASOPT| Training set | Combination | Rho difference | Condition num. | Time
 BASOPT| -----------------------------------------------------------------------
 BASOPT|        1     |       1     | 0.57788869E-02 | 0.14544039E+03 |    9.233
 BASOPT|        2     |       1     | 0.59955516E-02 | 0.26694954E+03 |   14.011
 BASOPT|        3     |       1     | 0.36633122E-02 | 0.21086244E+02 |    6.167
 BASOPT|        4     |       1     | 0.32504587E-02 | 0.19225784E+02 |    4.963
 BASOPT|        5     |       1     | 0.44881151E-02 | 0.83600418E+01 |    4.388
 BASOPT| -----------------------------------------------------------------------
 BASOPT| Total residuum value: -.70600780E+02

 BASOPT| Information at iteration number:     700
 BASOPT| Training set | Combination | Rho difference | Condition num. | Time
 BASOPT| -----------------------------------------------------------------------
 BASOPT|        1     |       1     | 0.58182327E-02 | 0.12818013E+03 |   10.769
 BASOPT|        2     |       1     | 0.60851512E-02 | 0.22106520E+03 |   16.349
 BASOPT|        3     |       1     | 0.36492138E-02 | 0.20756289E+02 |    7.191
 BASOPT|        4     |       1     | 0.32275840E-02 | 0.19170799E+02 |    5.787
 BASOPT|        5     |       1     | 0.44066405E-02 | 0.65983606E+01 |    5.118
 BASOPT| -----------------------------------------------------------------------
 BASOPT| Total residuum value: -.70610848E+02

 BASOPT| Information at iteration number:     800
 BASOPT| Training set | Combination | Rho difference | Condition num. | Time
 BASOPT| -----------------------------------------------------------------------
 BASOPT|        1     |       1     | 0.56583015E-02 | 0.12746135E+03 |   12.303
 BASOPT|        2     |       1     | 0.60708280E-02 | 0.21585330E+03 |   18.680
 BASOPT|        3     |       1     | 0.36395503E-02 | 0.20622276E+02 |    8.214
 BASOPT|        4     |       1     | 0.32530183E-02 | 0.18936225E+02 |    6.610
 BASOPT|        5     |       1     | 0.42704420E-02 | 0.62520396E+01 |    5.848
 BASOPT| -----------------------------------------------------------------------
 BASOPT| Total residuum value: -.70619399E+02

 BASOPT| Information at iteration number:     900
 BASOPT| Training set | Combination | Rho difference | Condition num. | Time
 BASOPT| -----------------------------------------------------------------------
 BASOPT|        1     |       1     | 0.55820274E-02 | 0.13105978E+03 |   13.840
 BASOPT|        2     |       1     | 0.56776694E-02 | 0.22859848E+03 |   21.012
 BASOPT|        3     |       1     | 0.36129374E-02 | 0.20409669E+02 |    9.239
 BASOPT|        4     |       1     | 0.32283065E-02 | 0.18741988E+02 |    7.438
 BASOPT|        5     |       1     | 0.43070912E-02 | 0.61058127E+01 |    6.580
 BASOPT| -----------------------------------------------------------------------
 BASOPT| Total residuum value: -.70626595E+02

 BASOPT| Information at iteration number:    1000
 BASOPT| Training set | Combination | Rho difference | Condition num. | Time
 BASOPT| -----------------------------------------------------------------------
 BASOPT|        1     |       1     | 0.55158658E-02 | 0.12896292E+03 |   15.376
 BASOPT|        2     |       1     | 0.56785759E-02 | 0.22557592E+03 |   23.355
 BASOPT|        3     |       1     | 0.35755514E-02 | 0.20382659E+02 |   10.265
 BASOPT|        4     |       1     | 0.32010365E-02 | 0.18674748E+02 |    8.266
 BASOPT|        5     |       1     | 0.42774273E-02 | 0.57868547E+01 |    7.312
 BASOPT| -----------------------------------------------------------------------
 BASOPT| Total residuum value: -.70632142E+02

 BASOPT| Information at iteration number:    1100
 BASOPT| Training set | Combination | Rho difference | Condition num. | Time
 BASOPT| -----------------------------------------------------------------------
 BASOPT|        1     |       1     | 0.55933765E-02 | 0.12547874E+03 |   16.912
 BASOPT|        2     |       1     | 0.53440240E-02 | 0.21801321E+03 |   25.685
 BASOPT|        3     |       1     | 0.35461572E-02 | 0.19929306E+02 |   11.292
 BASOPT|        4     |       1     | 0.31629295E-02 | 0.18518834E+02 |    9.095
 BASOPT|        5     |       1     | 0.43961861E-02 | 0.52644017E+01 |    8.044
 BASOPT| -----------------------------------------------------------------------
 BASOPT| Total residuum value: -.70636675E+02

 BASOPT| Information at iteration number:    1200
 BASOPT| Training set | Combination | Rho difference | Condition num. | Time
 BASOPT| -----------------------------------------------------------------------
 BASOPT|        1     |       1     | 0.53824886E-02 | 0.13877295E+03 |   18.450
 BASOPT|        2     |       1     | 0.50744620E-02 | 0.25466188E+03 |   28.019
 BASOPT|        3     |       1     | 0.35244040E-02 | 0.19120692E+02 |   12.319
 BASOPT|        4     |       1     | 0.32190776E-02 | 0.17710161E+02 |    9.925
 BASOPT|        5     |       1     | 0.43802094E-02 | 0.51998426E+01 |    8.779
 BASOPT| -----------------------------------------------------------------------
 BASOPT| Total residuum value: -.70639542E+02

 BASOPT| Information at iteration number:    1300
 BASOPT| Training set | Combination | Rho difference | Condition num. | Time
 BASOPT| -----------------------------------------------------------------------
 BASOPT|        1     |       1     | 0.53556532E-02 | 0.13093426E+03 |   19.986
 BASOPT|        2     |       1     | 0.50906831E-02 | 0.24217090E+03 |   30.343
 BASOPT|        3     |       1     | 0.34469556E-02 | 0.19924117E+02 |   13.347
 BASOPT|        4     |       1     | 0.30637323E-02 | 0.18520459E+02 |   10.753
 BASOPT|        5     |       1     | 0.42315488E-02 | 0.51778541E+01 |    9.512
 BASOPT| -----------------------------------------------------------------------
 BASOPT| Total residuum value: -.70648021E+02

 BASOPT| Information at iteration number:    1400
 BASOPT| Training set | Combination | Rho difference | Condition num. | Time
 BASOPT| -----------------------------------------------------------------------
 BASOPT|        1     |       1     | 0.52898129E-02 | 0.13157151E+03 |   21.526
 BASOPT|        2     |       1     | 0.50903516E-02 | 0.24527262E+03 |   32.686
 BASOPT|        3     |       1     | 0.34158947E-02 | 0.20032742E+02 |   14.375
 BASOPT|        4     |       1     | 0.30275725E-02 | 0.18604482E+02 |   11.584
 BASOPT|        5     |       1     | 0.41361242E-02 | 0.51667383E+01 |   10.246
 BASOPT| -----------------------------------------------------------------------
 BASOPT| Total residuum value: -.70651266E+02

 BASOPT| Information at iteration number:    1500
 BASOPT| Training set | Combination | Rho difference | Condition num. | Time
 BASOPT| -----------------------------------------------------------------------
 BASOPT|        1     |       1     | 0.52913553E-02 | 0.12574061E+03 |   23.065
 BASOPT|        2     |       1     | 0.50751042E-02 | 0.23228098E+03 |   35.034
 BASOPT|        3     |       1     | 0.33987308E-02 | 0.19924451E+02 |   15.405
 BASOPT|        4     |       1     | 0.29619961E-02 | 0.18557444E+02 |   12.414
 BASOPT|        5     |       1     | 0.41696515E-02 | 0.50556975E+01 |   10.980
 BASOPT| -----------------------------------------------------------------------
 BASOPT| Total residuum value: -.70653751E+02

 BASOPT| Information at iteration number:    1600
 BASOPT| Training set | Combination | Rho difference | Condition num. | Time
 BASOPT| -----------------------------------------------------------------------
 BASOPT|        1     |       1     | 0.52365639E-02 | 0.12747184E+03 |   24.605
 BASOPT|        2     |       1     | 0.49308710E-02 | 0.23323316E+03 |   37.370
 BASOPT|        3     |       1     | 0.33727762E-02 | 0.19398720E+02 |   16.434
 BASOPT|        4     |       1     | 0.29347314E-02 | 0.18107044E+02 |   13.245
 BASOPT|        5     |       1     | 0.41660682E-02 | 0.48707762E+01 |   11.715
 BASOPT| -----------------------------------------------------------------------
 BASOPT| Total residuum value: -.70657859E+02

 BASOPT| Information at iteration number:    1700
 BASOPT| Training set | Combination | Rho difference | Condition num. | Time
 BASOPT| -----------------------------------------------------------------------
 BASOPT|        1     |       1     | 0.51753922E-02 | 0.12604355E+03 |   26.146
 BASOPT|        2     |       1     | 0.49213835E-02 | 0.22747717E+03 |   39.723
 BASOPT|        3     |       1     | 0.33526658E-02 | 0.19623222E+02 |   17.464
 BASOPT|        4     |       1     | 0.28741342E-02 | 0.18257358E+02 |   14.075
 BASOPT|        5     |       1     | 0.41112559E-02 | 0.48621397E+01 |   12.451
 BASOPT| -----------------------------------------------------------------------
 BASOPT| Total residuum value: -.70660987E+02

 BASOPT| Information at iteration number:    1800
 BASOPT| Training set | Combination | Rho difference | Condition num. | Time
 BASOPT| -----------------------------------------------------------------------
 BASOPT|        1     |       1     | 0.51553451E-02 | 0.12490584E+03 |   27.686
 BASOPT|        2     |       1     | 0.48501883E-02 | 0.22367933E+03 |   42.068
 BASOPT|        3     |       1     | 0.33464081E-02 | 0.19495031E+02 |   18.494
 BASOPT|        4     |       1     | 0.28369360E-02 | 0.18239792E+02 |   14.905
 BASOPT|        5     |       1     | 0.41358121E-02 | 0.49277859E+01 |   13.187
 BASOPT| -----------------------------------------------------------------------
 BASOPT| Total residuum value: -.70663131E+02

 BASOPT| Information at iteration number:    1900
 BASOPT| Training set | Combination | Rho difference | Condition num. | Time
 BASOPT| -----------------------------------------------------------------------
 BASOPT|        1     |       1     | 0.51824087E-02 | 0.12275053E+03 |   29.227
 BASOPT|        2     |       1     | 0.48410666E-02 | 0.21826419E+03 |   44.409
 BASOPT|        3     |       1     | 0.33286055E-02 | 0.19550230E+02 |   19.525
 BASOPT|        4     |       1     | 0.28214677E-02 | 0.18304238E+02 |   15.736
 BASOPT|        5     |       1     | 0.41023864E-02 | 0.49353465E+01 |   13.923
 BASOPT| -----------------------------------------------------------------------
 BASOPT| Total residuum value: -.70665795E+02

 BASOPT| Information at iteration number:    2000
 BASOPT| Training set | Combination | Rho difference | Condition num. | Time
 BASOPT| -----------------------------------------------------------------------
 BASOPT|        1     |       1     | 0.52389583E-02 | 0.11956855E+03 |   30.769
 BASOPT|        2     |       1     | 0.48804016E-02 | 0.21061033E+03 |   46.766
 BASOPT|        3     |       1     | 0.33166497E-02 | 0.19902042E+02 |   20.555
 BASOPT|        4     |       1     | 0.27807787E-02 | 0.18576221E+02 |   16.565
 BASOPT|        5     |       1     | 0.40971947E-02 | 0.49381097E+01 |   14.659
 BASOPT| -----------------------------------------------------------------------
 BASOPT| Total residuum value: -.70666687E+02

 BASOPT| Information at iteration number:    2100
 BASOPT| Training set | Combination | Rho difference | Condition num. | Time
 BASOPT| -----------------------------------------------------------------------
 BASOPT|        1     |       1     | 0.51717574E-02 | 0.12462185E+03 |   32.311
 BASOPT|        2     |       1     | 0.48071854E-02 | 0.22742811E+03 |   49.103
 BASOPT|        3     |       1     | 0.32968305E-02 | 0.19539532E+02 |   21.587
 BASOPT|        4     |       1     | 0.27982902E-02 | 0.18173428E+02 |   17.396
 BASOPT|        5     |       1     | 0.40917549E-02 | 0.48984209E+01 |   15.397
 BASOPT| -----------------------------------------------------------------------
 BASOPT| Total residuum value: -.70669838E+02

 BASOPT| Information at iteration number:    2200
 BASOPT| Training set | Combination | Rho difference | Condition num. | Time
 BASOPT| -----------------------------------------------------------------------
 BASOPT|        1     |       1     | 0.52025985E-02 | 0.13296190E+03 |   33.853
 BASOPT|        2     |       1     | 0.42612588E-02 | 0.24969975E+03 |   51.437
 BASOPT|        3     |       1     | 0.32960753E-02 | 0.18276386E+02 |   22.618
 BASOPT|        4     |       1     | 0.28756440E-02 | 0.17221760E+02 |   18.228
 BASOPT|        5     |       1     | 0.43015902E-02 | 0.47313918E+01 |   16.135
 BASOPT| -----------------------------------------------------------------------
 BASOPT| Total residuum value: -.70670885E+02

 BASOPT| Information at iteration number:    2300
 BASOPT| Training set | Combination | Rho difference | Condition num. | Time
 BASOPT| -----------------------------------------------------------------------
 BASOPT|        1     |       1     | 0.51487109E-02 | 0.12910726E+03 |   35.396
 BASOPT|        2     |       1     | 0.44349502E-02 | 0.24034630E+03 |   53.788
 BASOPT|        3     |       1     | 0.32797562E-02 | 0.19010993E+02 |   23.650
 BASOPT|        4     |       1     | 0.28120369E-02 | 0.17716918E+02 |   19.059
 BASOPT|        5     |       1     | 0.41412338E-02 | 0.48377205E+01 |   16.873
 BASOPT| -----------------------------------------------------------------------
 BASOPT| Total residuum value: -.70675937E+02

 BASOPT| Information at iteration number:    2400
 BASOPT| Training set | Combination | Rho difference | Condition num. | Time
 BASOPT| -----------------------------------------------------------------------
 BASOPT|        1     |       1     | 0.52230668E-02 | 0.12675723E+03 |   36.940
 BASOPT|        2     |       1     | 0.43569204E-02 | 0.22971165E+03 |   56.139
 BASOPT|        3     |       1     | 0.32821451E-02 | 0.18710734E+02 |   24.682
 BASOPT|        4     |       1     | 0.28257223E-02 | 0.17571693E+02 |   19.891
 BASOPT|        5     |       1     | 0.41540065E-02 | 0.48095679E+01 |   17.612
 BASOPT| -----------------------------------------------------------------------
 BASOPT| Total residuum value: -.70678496E+02

 BASOPT| Information at iteration number:    2500
 BASOPT| Training set | Combination | Rho difference | Condition num. | Time
 BASOPT| -----------------------------------------------------------------------
 BASOPT|        1     |       1     | 0.52167827E-02 | 0.12722366E+03 |   38.484
 BASOPT|        2     |       1     | 0.42858608E-02 | 0.23072541E+03 |   58.487
 BASOPT|        3     |       1     | 0.32835330E-02 | 0.18682879E+02 |   25.714
 BASOPT|        4     |       1     | 0.28279796E-02 | 0.17562097E+02 |   20.723
 BASOPT|        5     |       1     | 0.41627467E-02 | 0.48576230E+01 |   18.350
 BASOPT| -----------------------------------------------------------------------
 BASOPT| Total residuum value: -.70679797E+02

 BASOPT| Information at iteration number:    2600
 BASOPT| Training set | Combination | Rho difference | Condition num. | Time
 BASOPT| -----------------------------------------------------------------------
 BASOPT|        1     |       1     | 0.52028724E-02 | 0.12730315E+03 |   40.028
 BASOPT|        2     |       1     | 0.42113588E-02 | 0.23289190E+03 |   60.841
 BASOPT|        3     |       1     | 0.32675225E-02 | 0.18521244E+02 |   26.745
 BASOPT|        4     |       1     | 0.27950739E-02 | 0.17426523E+02 |   21.553
 BASOPT|        5     |       1     | 0.42347312E-02 | 0.48717859E+01 |   19.088
 BASOPT| -----------------------------------------------------------------------
 BASOPT| Total residuum value: -.70680492E+02

 BASOPT| Information at iteration number:    2700
 BASOPT| Training set | Combination | Rho difference | Condition num. | Time
 BASOPT| -----------------------------------------------------------------------
 BASOPT|        1     |       1     | 0.51614841E-02 | 0.12829260E+03 |   41.572
 BASOPT|        2     |       1     | 0.42599178E-02 | 0.23488996E+03 |   63.186
 BASOPT|        3     |       1     | 0.32564954E-02 | 0.18565138E+02 |   27.776
 BASOPT|        4     |       1     | 0.27957692E-02 | 0.17432378E+02 |   22.384
 BASOPT|        5     |       1     | 0.41675361E-02 | 0.48492327E+01 |   19.827
 BASOPT| -----------------------------------------------------------------------
 BASOPT| Total residuum value: -.70681757E+02

 BASOPT| Information at iteration number:    2800
 BASOPT| Training set | Combination | Rho difference | Condition num. | Time
 BASOPT| -----------------------------------------------------------------------
 BASOPT|        1     |       1     | 0.51472699E-02 | 0.13072398E+03 |   43.115
 BASOPT|        2     |       1     | 0.42010999E-02 | 0.24043037E+03 |   65.540
 BASOPT|        3     |       1     | 0.32537035E-02 | 0.18613986E+02 |   28.808
 BASOPT|        4     |       1     | 0.28026162E-02 | 0.17448200E+02 |   23.216
 BASOPT|        5     |       1     | 0.41324380E-02 | 0.48259981E+01 |   20.566
 BASOPT| -----------------------------------------------------------------------
 BASOPT| Total residuum value: -.70682846E+02

 BASOPT| Information at iteration number:    2900
 BASOPT| Training set | Combination | Rho difference | Condition num. | Time
 BASOPT| -----------------------------------------------------------------------
 BASOPT|        1     |       1     | 0.51025602E-02 | 0.13318623E+03 |   44.658
 BASOPT|        2     |       1     | 0.41657918E-02 | 0.24928918E+03 |   67.871
 BASOPT|        3     |       1     | 0.32440044E-02 | 0.18595645E+02 |   29.838
 BASOPT|        4     |       1     | 0.28088901E-02 | 0.17407912E+02 |   24.047
 BASOPT|        5     |       1     | 0.40891167E-02 | 0.48117458E+01 |   21.305
 BASOPT| -----------------------------------------------------------------------
 BASOPT| Total residuum value: -.70684073E+02

 BASOPT| Information at iteration number:    3000
 BASOPT| Training set | Combination | Rho difference | Condition num. | Time
 BASOPT| -----------------------------------------------------------------------
 BASOPT|        1     |       1     | 0.51079056E-02 | 0.13252089E+03 |   46.203
 BASOPT|        2     |       1     | 0.41262962E-02 | 0.25035381E+03 |   70.229
 BASOPT|        3     |       1     | 0.32369060E-02 | 0.18605399E+02 |   30.870
 BASOPT|        4     |       1     | 0.27974623E-02 | 0.17422121E+02 |   24.879
 BASOPT|        5     |       1     | 0.40808476E-02 | 0.48225910E+01 |   22.045
 BASOPT| -----------------------------------------------------------------------
 BASOPT| Total residuum value: -.70685855E+02

 BASOPT| Information at iteration number:    3100
 BASOPT| Training set | Combination | Rho difference | Condition num. | Time
 BASOPT| -----------------------------------------------------------------------
 BASOPT|        1     |       1     | 0.51099262E-02 | 0.13466000E+03 |   47.751
 BASOPT|        2     |       1     | 0.39980914E-02 | 0.25566917E+03 |   72.574
 BASOPT|        3     |       1     | 0.32256732E-02 | 0.18570741E+02 |   31.902
 BASOPT|        4     |       1     | 0.27932633E-02 | 0.17405181E+02 |   25.711
 BASOPT|        5     |       1     | 0.40869162E-02 | 0.48516887E+01 |   22.785
 BASOPT| -----------------------------------------------------------------------
 BASOPT| Total residuum value: -.70688965E+02

 BASOPT| Information at iteration number:    3200
 BASOPT| Training set | Combination | Rho difference | Condition num. | Time
 BASOPT| -----------------------------------------------------------------------
 BASOPT|        1     |       1     | 0.51221859E-02 | 0.13382930E+03 |   49.297
 BASOPT|        2     |       1     | 0.39514759E-02 | 0.25233400E+03 |   74.924
 BASOPT|        3     |       1     | 0.32202884E-02 | 0.18629943E+02 |   32.934
 BASOPT|        4     |       1     | 0.27725085E-02 | 0.17455091E+02 |   26.542
 BASOPT|        5     |       1     | 0.40663151E-02 | 0.48696198E+01 |   23.525
 BASOPT| -----------------------------------------------------------------------
 BASOPT| Total residuum value: -.70690962E+02

 BASOPT| Information at iteration number:    3300
 BASOPT| Training set | Combination | Rho difference | Condition num. | Time
 BASOPT| -----------------------------------------------------------------------
 BASOPT|        1     |       1     | 0.51220207E-02 | 0.13612229E+03 |   50.845
 BASOPT|        2     |       1     | 0.38660378E-02 | 0.25571567E+03 |   77.266
 BASOPT|        3     |       1     | 0.32198710E-02 | 0.18678199E+02 |   33.966
 BASOPT|        4     |       1     | 0.27776599E-02 | 0.17466324E+02 |   27.373
 BASOPT|        5     |       1     | 0.40480026E-02 | 0.48712358E+01 |   24.264
 BASOPT| -----------------------------------------------------------------------
 BASOPT| Total residuum value: -.70692772E+02

 BASOPT| Information at iteration number:    3400
 BASOPT| Training set | Combination | Rho difference | Condition num. | Time
 BASOPT| -----------------------------------------------------------------------
 BASOPT|        1     |       1     | 0.50701400E-02 | 0.13876048E+03 |   52.392
 BASOPT|        2     |       1     | 0.37854901E-02 | 0.26037655E+03 |   79.609
 BASOPT|        3     |       1     | 0.32062816E-02 | 0.18742179E+02 |   34.997
 BASOPT|        4     |       1     | 0.27777806E-02 | 0.17499617E+02 |   28.204
 BASOPT|        5     |       1     | 0.39957202E-02 | 0.48752554E+01 |   25.004
 BASOPT| -----------------------------------------------------------------------
 BASOPT| Total residuum value: -.70695559E+02

 BASOPT| Information at iteration number:    3500
 BASOPT| Training set | Combination | Rho difference | Condition num. | Time
 BASOPT| -----------------------------------------------------------------------
 BASOPT|        1     |       1     | 0.50577587E-02 | 0.13757229E+03 |   53.941
 BASOPT|        2     |       1     | 0.37793859E-02 | 0.25890322E+03 |   81.953
 BASOPT|        3     |       1     | 0.31958923E-02 | 0.18695098E+02 |   36.029
 BASOPT|        4     |       1     | 0.27608967E-02 | 0.17472177E+02 |   29.036
 BASOPT|        5     |       1     | 0.40012876E-02 | 0.48587066E+01 |   25.744
 BASOPT| -----------------------------------------------------------------------
 BASOPT| Total residuum value: -.70696414E+02

 BASOPT| Information at iteration number:    3600
 BASOPT| Training set | Combination | Rho difference | Condition num. | Time
 BASOPT| -----------------------------------------------------------------------
 BASOPT|        1     |       1     | 0.50580865E-02 | 0.13555224E+03 |   55.490
 BASOPT|        2     |       1     | 0.37370693E-02 | 0.25515496E+03 |   84.302
 BASOPT|        3     |       1     | 0.31863593E-02 | 0.18615863E+02 |   37.063
 BASOPT|        4     |       1     | 0.27491974E-02 | 0.17419691E+02 |   29.869
 BASOPT|        5     |       1     | 0.40257459E-02 | 0.48352231E+01 |   26.485
 BASOPT| -----------------------------------------------------------------------
 BASOPT| Total residuum value: -.70697310E+02

 BASOPT| Information at iteration number:    3700
 BASOPT| Training set | Combination | Rho difference | Condition num. | Time
 BASOPT| -----------------------------------------------------------------------
 BASOPT|        1     |       1     | 0.50655573E-02 | 0.13469893E+03 |   57.039
 BASOPT|        2     |       1     | 0.37381421E-02 | 0.25256915E+03 |   86.644
 BASOPT|        3     |       1     | 0.31854426E-02 | 0.18681845E+02 |   38.095
 BASOPT|        4     |       1     | 0.27473011E-02 | 0.17474174E+02 |   30.701
 BASOPT|        5     |       1     | 0.40156573E-02 | 0.48389083E+01 |   27.226
 BASOPT| -----------------------------------------------------------------------
 BASOPT| Total residuum value: -.70697904E+02

 BASOPT| Information at iteration number:    3800
 BASOPT| Training set | Combination | Rho difference | Condition num. | Time
 BASOPT| -----------------------------------------------------------------------
 BASOPT|        1     |       1     | 0.50457859E-02 | 0.13680853E+03 |   58.588
 BASOPT|        2     |       1     | 0.36856418E-02 | 0.25849672E+03 |   89.009
 BASOPT|        3     |       1     | 0.31815530E-02 | 0.18573244E+02 |   39.128
 BASOPT|        4     |       1     | 0.27605822E-02 | 0.17369508E+02 |   31.532
 BASOPT|        5     |       1     | 0.40248969E-02 | 0.48251609E+01 |   27.965
 BASOPT| -----------------------------------------------------------------------
 BASOPT| Total residuum value: -.70698393E+02

 BASOPT| Information at iteration number:    3900
 BASOPT| Training set | Combination | Rho difference | Condition num. | Time
 BASOPT| -----------------------------------------------------------------------
 BASOPT|        1     |       1     | 0.50628142E-02 | 0.13548856E+03 |   60.135
 BASOPT|        2     |       1     | 0.36746349E-02 | 0.25485206E+03 |   91.359
 BASOPT|        3     |       1     | 0.31812493E-02 | 0.18626575E+02 |   40.161
 BASOPT|        4     |       1     | 0.27516081E-02 | 0.17410248E+02 |   32.364
 BASOPT|        5     |       1     | 0.40222931E-02 | 0.48295677E+01 |   28.706
 BASOPT| -----------------------------------------------------------------------
 BASOPT| Total residuum value: -.70698955E+02

 BASOPT| Information at iteration number:    4000
 BASOPT| Training set | Combination | Rho difference | Condition num. | Time
 BASOPT| -----------------------------------------------------------------------
 BASOPT|        1     |       1     | 0.50568430E-02 | 0.13517990E+03 |   61.686
 BASOPT|        2     |       1     | 0.36709969E-02 | 0.25417748E+03 |   93.695
 BASOPT|        3     |       1     | 0.31781477E-02 | 0.18604746E+02 |   41.195
 BASOPT|        4     |       1     | 0.27488536E-02 | 0.17392340E+02 |   33.196
 BASOPT|        5     |       1     | 0.40156701E-02 | 0.48174111E+01 |   29.447
 BASOPT| -----------------------------------------------------------------------
 BASOPT| Total residuum value: -.70699366E+02

 BASOPT| Information at iteration number:    4100
 BASOPT| Training set | Combination | Rho difference | Condition num. | Time
 BASOPT| -----------------------------------------------------------------------
 BASOPT|        1     |       1     | 0.50486607E-02 | 0.13481296E+03 |   63.236
 BASOPT|        2     |       1     | 0.36625706E-02 | 0.25363515E+03 |   96.044
 BASOPT|        3     |       1     | 0.31748972E-02 | 0.18649511E+02 |   42.229
 BASOPT|        4     |       1     | 0.27408474E-02 | 0.17421980E+02 |   34.027
 BASOPT|        5     |       1     | 0.40100407E-02 | 0.48248859E+01 |   30.187
 BASOPT| -----------------------------------------------------------------------
 BASOPT| Total residuum value: -.70699822E+02

 BASOPT| Information at iteration number:    4200
 BASOPT| Training set | Combination | Rho difference | Condition num. | Time
 BASOPT| -----------------------------------------------------------------------
 BASOPT|        1     |       1     | 0.50625960E-02 | 0.13483187E+03 |   64.785
 BASOPT|        2     |       1     | 0.36275854E-02 | 0.25322212E+03 |   98.391
 BASOPT|        3     |       1     | 0.31733389E-02 | 0.18610300E+02 |   43.261
 BASOPT|        4     |       1     | 0.27459862E-02 | 0.17388391E+02 |   34.859
 BASOPT|        5     |       1     | 0.40214079E-02 | 0.48223232E+01 |   30.928
 BASOPT| -----------------------------------------------------------------------
 BASOPT| Total residuum value: -.70700124E+02

 BASOPT| Information at iteration number:    4300
 BASOPT| Training set | Combination | Rho difference | Condition num. | Time
 BASOPT| -----------------------------------------------------------------------
 BASOPT|        1     |       1     | 0.50504957E-02 | 0.13366293E+03 |   66.334
 BASOPT|        2     |       1     | 0.36377024E-02 | 0.25128451E+03 |  100.729
 BASOPT|        3     |       1     | 0.31681785E-02 | 0.18663477E+02 |   44.294
 BASOPT|        4     |       1     | 0.27317050E-02 | 0.17432519E+02 |   35.691
 BASOPT|        5     |       1     | 0.40142938E-02 | 0.48252171E+01 |   31.670
 BASOPT| -----------------------------------------------------------------------
 BASOPT| Total residuum value: -.70700514E+02

 BASOPT| Information at iteration number:    4400
 BASOPT| Training set | Combination | Rho difference | Condition num. | Time
 BASOPT| -----------------------------------------------------------------------
 BASOPT|        1     |       1     | 0.50558046E-02 | 0.13436683E+03 |   67.886
 BASOPT|        2     |       1     | 0.35950475E-02 | 0.25239945E+03 |  103.072
 BASOPT|        3     |       1     | 0.31659516E-02 | 0.18554759E+02 |   45.328
 BASOPT|        4     |       1     | 0.27466728E-02 | 0.17345153E+02 |   36.523
 BASOPT|        5     |       1     | 0.40316208E-02 | 0.48137298E+01 |   32.412
 BASOPT| -----------------------------------------------------------------------
 BASOPT| Total residuum value: -.70700720E+02

 BASOPT| Information at iteration number:    4500
 BASOPT| Training set | Combination | Rho difference | Condition num. | Time
 BASOPT| -----------------------------------------------------------------------
 BASOPT|        1     |       1     | 0.50425247E-02 | 0.13313615E+03 |   69.434
 BASOPT|        2     |       1     | 0.36049178E-02 | 0.24968341E+03 |  105.419
 BASOPT|        3     |       1     | 0.31614302E-02 | 0.18671423E+02 |   46.360
 BASOPT|        4     |       1     | 0.27273444E-02 | 0.17442975E+02 |   37.354
 BASOPT|        5     |       1     | 0.40200375E-02 | 0.48324370E+01 |   33.154
 BASOPT| -----------------------------------------------------------------------
 BASOPT| Total residuum value: -.70701209E+02

 BASOPT| Information at iteration number:    4600
 BASOPT| Training set | Combination | Rho difference | Condition num. | Time
 BASOPT| -----------------------------------------------------------------------
 BASOPT|        1     |       1     | 0.50414911E-02 | 0.13230760E+03 |   70.986
 BASOPT|        2     |       1     | 0.36391254E-02 | 0.24644249E+03 |  107.758
 BASOPT|        3     |       1     | 0.31638472E-02 | 0.18861077E+02 |   47.393
 BASOPT|        4     |       1     | 0.27173600E-02 | 0.17584181E+02 |   38.186
 BASOPT|        5     |       1     | 0.39884052E-02 | 0.48486199E+01 |   33.897
 BASOPT| -----------------------------------------------------------------------
 BASOPT| Total residuum value: -.70701446E+02

 BASOPT| Information at iteration number:    4700
 BASOPT| Training set | Combination | Rho difference | Condition num. | Time
 BASOPT| -----------------------------------------------------------------------
 BASOPT|        1     |       1     | 0.50123898E-02 | 0.13565151E+03 |   72.538
 BASOPT|        2     |       1     | 0.35639253E-02 | 0.25366990E+03 |  110.096
 BASOPT|        3     |       1     | 0.31586068E-02 | 0.18596877E+02 |   48.423
 BASOPT|        4     |       1     | 0.27523327E-02 | 0.17355220E+02 |   39.020
 BASOPT|        5     |       1     | 0.40031393E-02 | 0.47997276E+01 |   34.639
 BASOPT| -----------------------------------------------------------------------
 BASOPT| Total residuum value: -.70701966E+02

 BASOPT| Information at iteration number:    4800
 BASOPT| Training set | Combination | Rho difference | Condition num. | Time
 BASOPT| -----------------------------------------------------------------------
 BASOPT|        1     |       1     | 0.50189492E-02 | 0.13432550E+03 |   74.090
 BASOPT|        2     |       1     | 0.35641519E-02 | 0.24942625E+03 |  112.437
 BASOPT|        3     |       1     | 0.31575108E-02 | 0.18719977E+02 |   49.447
 BASOPT|        4     |       1     | 0.27371953E-02 | 0.17456177E+02 |   39.855
 BASOPT|        5     |       1     | 0.39911196E-02 | 0.48050762E+01 |   35.382
 BASOPT| -----------------------------------------------------------------------
 BASOPT| Total residuum value: -.70702504E+02

 BASOPT| Information at iteration number:    4900
 BASOPT| Training set | Combination | Rho difference | Condition num. | Time
 BASOPT| -----------------------------------------------------------------------
 BASOPT|        1     |       1     | 0.50317102E-02 | 0.13318902E+03 |   75.641
 BASOPT|        2     |       1     | 0.35378158E-02 | 0.24530380E+03 |  114.774
 BASOPT|        3     |       1     | 0.31553313E-02 | 0.18828393E+02 |   50.470
 BASOPT|        4     |       1     | 0.27315943E-02 | 0.17533863E+02 |   40.690
 BASOPT|        5     |       1     | 0.39913515E-02 | 0.48216038E+01 |   36.126
 BASOPT| -----------------------------------------------------------------------
 BASOPT| Total residuum value: -.70703120E+02

 BASOPT| Information at iteration number:    5000
 BASOPT| Training set | Combination | Rho difference | Condition num. | Time
 BASOPT| -----------------------------------------------------------------------
 BASOPT|        1     |       1     | 0.50279904E-02 | 0.13322440E+03 |   77.196
 BASOPT|        2     |       1     | 0.35209843E-02 | 0.24512530E+03 |  117.127
 BASOPT|        3     |       1     | 0.31518364E-02 | 0.18775886E+02 |   51.494
 BASOPT|        4     |       1     | 0.27326366E-02 | 0.17493030E+02 |   41.526
 BASOPT|        5     |       1     | 0.39938481E-02 | 0.48063535E+01 |   36.869
 BASOPT| -----------------------------------------------------------------------
 BASOPT| Total residuum value: -.70703448E+02

 BASOPT| Information at iteration number:    5100
 BASOPT| Training set | Combination | Rho difference | Condition num. | Time
 BASOPT| -----------------------------------------------------------------------
 BASOPT|        1     |       1     | 0.49993078E-02 | 0.13415822E+03 |   78.749
 BASOPT|        2     |       1     | 0.35083183E-02 | 0.24804035E+03 |  119.479
 BASOPT|        3     |       1     | 0.31464260E-02 | 0.18691556E+02 |   52.517
 BASOPT|        4     |       1     | 0.27389266E-02 | 0.17425287E+02 |   42.361
 BASOPT|        5     |       1     | 0.39953997E-02 | 0.47849182E+01 |   37.614
 BASOPT| -----------------------------------------------------------------------
 BASOPT| Total residuum value: -.70703777E+02

 BASOPT| Information at iteration number:    5200
 BASOPT| Training set | Combination | Rho difference | Condition num. | Time
 BASOPT| -----------------------------------------------------------------------
 BASOPT|        1     |       1     | 0.50128164E-02 | 0.13283943E+03 |   80.303
 BASOPT|        2     |       1     | 0.34993168E-02 | 0.24442430E+03 |  121.842
 BASOPT|        3     |       1     | 0.31458290E-02 | 0.18781796E+02 |   53.541
 BASOPT|        4     |       1     | 0.27258998E-02 | 0.17504535E+02 |   43.195
 BASOPT|        5     |       1     | 0.39968202E-02 | 0.47920273E+01 |   38.358
 BASOPT| -----------------------------------------------------------------------
 BASOPT| Total residuum value: -.70704118E+02

 BASOPT| Information at iteration number:    5300
 BASOPT| Training set | Combination | Rho difference | Condition num. | Time
 BASOPT| -----------------------------------------------------------------------
 BASOPT|        1     |       1     | 0.50100240E-02 | 0.13336817E+03 |   81.857
 BASOPT|        2     |       1     | 0.34888216E-02 | 0.24533468E+03 |  124.181
 BASOPT|        3     |       1     | 0.31454560E-02 | 0.18757076E+02 |   54.564
 BASOPT|        4     |       1     | 0.27327219E-02 | 0.17473224E+02 |   44.031
 BASOPT|        5     |       1     | 0.39918275E-02 | 0.47861509E+01 |   39.105
 BASOPT| -----------------------------------------------------------------------
 BASOPT| Total residuum value: -.70704398E+02

 BASOPT| Information at iteration number:    5400
 BASOPT| Training set | Combination | Rho difference | Condition num. | Time
 BASOPT| -----------------------------------------------------------------------
 BASOPT|        1     |       1     | 0.50164373E-02 | 0.13244183E+03 |   83.409
 BASOPT|        2     |       1     | 0.34880242E-02 | 0.24296043E+03 |  126.526
 BASOPT|        3     |       1     | 0.31448533E-02 | 0.18839122E+02 |   55.586
 BASOPT|        4     |       1     | 0.27226101E-02 | 0.17528979E+02 |   44.866
 BASOPT|        5     |       1     | 0.39862989E-02 | 0.47918277E+01 |   39.849
 BASOPT| -----------------------------------------------------------------------
 BASOPT| Total residuum value: -.70704844E+02

 BASOPT| Information at iteration number:    5500
 BASOPT| Training set | Combination | Rho difference | Condition num. | Time
 BASOPT| -----------------------------------------------------------------------
 BASOPT|        1     |       1     | 0.50318711E-02 | 0.13206297E+03 |   84.963
 BASOPT|        2     |       1     | 0.34801778E-02 | 0.24129024E+03 |  128.881
 BASOPT|        3     |       1     | 0.31464542E-02 | 0.18879215E+02 |   56.609
 BASOPT|        4     |       1     | 0.27253733E-02 | 0.17562627E+02 |   45.698
 BASOPT|        5     |       1     | 0.39825448E-02 | 0.47971667E+01 |   40.592
 BASOPT| -----------------------------------------------------------------------
 BASOPT| Total residuum value: -.70705133E+02

 BASOPT| Information at iteration number:    5600
 BASOPT| Training set | Combination | Rho difference | Condition num. | Time
 BASOPT| -----------------------------------------------------------------------
 BASOPT|        1     |       1     | 0.49914450E-02 | 0.13308702E+03 |   86.517
 BASOPT|        2     |       1     | 0.34785213E-02 | 0.24476616E+03 |  131.234
 BASOPT|        3     |       1     | 0.31426663E-02 | 0.18816229E+02 |   57.632
 BASOPT|        4     |       1     | 0.27298451E-02 | 0.17507419E+02 |   46.529
 BASOPT|        5     |       1     | 0.39720253E-02 | 0.47787784E+01 |   41.334
 BASOPT| -----------------------------------------------------------------------
 BASOPT| Total residuum value: -.70705409E+02

 BASOPT| Information at iteration number:    5700
 BASOPT| Training set | Combination | Rho difference | Condition num. | Time
 BASOPT| -----------------------------------------------------------------------
 BASOPT|        1     |       1     | 0.49803256E-02 | 0.13407567E+03 |   88.072
 BASOPT|        2     |       1     | 0.34422893E-02 | 0.24769223E+03 |  133.586
 BASOPT|        3     |       1     | 0.31379999E-02 | 0.18696203E+02 |   58.656
 BASOPT|        4     |       1     | 0.27401199E-02 | 0.17420177E+02 |   47.360
 BASOPT|        5     |       1     | 0.39901635E-02 | 0.47664880E+01 |   42.076
 BASOPT| -----------------------------------------------------------------------
 BASOPT| Total residuum value: -.70705703E+02

 BASOPT| Information at iteration number:    5800
 BASOPT| Training set | Combination | Rho difference | Condition num. | Time
 BASOPT| -----------------------------------------------------------------------
 BASOPT|        1     |       1     | 0.50016237E-02 | 0.13252015E+03 |   89.626
 BASOPT|        2     |       1     | 0.34530544E-02 | 0.24365717E+03 |  135.939
 BASOPT|        3     |       1     | 0.31387989E-02 | 0.18818322E+02 |   59.679
 BASOPT|        4     |       1     | 0.27255894E-02 | 0.17527841E+02 |   48.191
 BASOPT|        5     |       1     | 0.39856506E-02 | 0.47832172E+01 |   42.818
 BASOPT| -----------------------------------------------------------------------
 BASOPT| Total residuum value: -.70706063E+02

 BASOPT| Information at iteration number:    5900
 BASOPT| Training set | Combination | Rho difference | Condition num. | Time
 BASOPT| -----------------------------------------------------------------------
 BASOPT|        1     |       1     | 0.50092496E-02 | 0.13247633E+03 |   91.182
 BASOPT|        2     |       1     | 0.34464572E-02 | 0.24299152E+03 |  138.294
 BASOPT|        3     |       1     | 0.31394463E-02 | 0.18871583E+02 |   60.702
 BASOPT|        4     |       1     | 0.27266536E-02 | 0.17565571E+02 |   49.022
 BASOPT|        5     |       1     | 0.39825059E-02 | 0.47904949E+01 |   43.560
 BASOPT| -----------------------------------------------------------------------
 BASOPT| Total residuum value: -.70706372E+02

 BASOPT| Information at iteration number:    6000
 BASOPT| Training set | Combination | Rho difference | Condition num. | Time
 BASOPT| -----------------------------------------------------------------------
 BASOPT|        1     |       1     | 0.49819679E-02 | 0.13351881E+03 |   92.738
 BASOPT|        2     |       1     | 0.34246955E-02 | 0.24609491E+03 |  140.654
 BASOPT|        3     |       1     | 0.31346497E-02 | 0.18794604E+02 |   61.728
 BASOPT|        4     |       1     | 0.27351866E-02 | 0.17488456E+02 |   49.856
 BASOPT|        5     |       1     | 0.39804080E-02 | 0.47784026E+01 |   44.303
 BASOPT| -----------------------------------------------------------------------
 BASOPT| Total residuum value: -.70706775E+02

 BASOPT| Information at iteration number:    6100
 BASOPT| Training set | Combination | Rho difference | Condition num. | Time
 BASOPT| -----------------------------------------------------------------------
 BASOPT|        1     |       1     | 0.49730050E-02 | 0.13389679E+03 |   94.294
 BASOPT|        2     |       1     | 0.34171268E-02 | 0.24689444E+03 |  143.000
 BASOPT|        3     |       1     | 0.31329662E-02 | 0.18789815E+02 |   62.754
 BASOPT|        4     |       1     | 0.27377729E-02 | 0.17480220E+02 |   50.689
 BASOPT|        5     |       1     | 0.39757514E-02 | 0.47754937E+01 |   45.045
 BASOPT| -----------------------------------------------------------------------
 BASOPT| Total residuum value: -.70707021E+02

 BASOPT| Information at iteration number:    6200
 BASOPT| Training set | Combination | Rho difference | Condition num. | Time
 BASOPT| -----------------------------------------------------------------------
 BASOPT|        1     |       1     | 0.49890871E-02 | 0.13312291E+03 |   95.850
 BASOPT|        2     |       1     | 0.34170435E-02 | 0.24414386E+03 |  145.355
 BASOPT|        3     |       1     | 0.31334752E-02 | 0.18873567E+02 |   63.778
 BASOPT|        4     |       1     | 0.27341937E-02 | 0.17547060E+02 |   51.521
 BASOPT|        5     |       1     | 0.39721936E-02 | 0.47888520E+01 |   45.788
 BASOPT| -----------------------------------------------------------------------
 BASOPT| Total residuum value: -.70707227E+02

 BASOPT| Information at iteration number:    6300
 BASOPT| Training set | Combination | Rho difference | Condition num. | Time
 BASOPT| -----------------------------------------------------------------------
 BASOPT|        1     |       1     | 0.49940931E-02 | 0.13295982E+03 |   97.406
 BASOPT|        2     |       1     | 0.33975702E-02 | 0.24337827E+03 |  147.705
 BASOPT|        3     |       1     | 0.31313281E-02 | 0.18872062E+02 |   64.802
 BASOPT|        4     |       1     | 0.27373524E-02 | 0.17545411E+02 |   52.354
 BASOPT|        5     |       1     | 0.39784257E-02 | 0.47911478E+01 |   46.532
 BASOPT| -----------------------------------------------------------------------
 BASOPT| Total residuum value: -.70707480E+02

 BASOPT| Information at iteration number:    6400
 BASOPT| Training set | Combination | Rho difference | Condition num. | Time
 BASOPT| -----------------------------------------------------------------------
 BASOPT|        1     |       1     | 0.49814774E-02 | 0.13267852E+03 |   98.963
 BASOPT|        2     |       1     | 0.33907390E-02 | 0.24358714E+03 |  150.045
 BASOPT|        3     |       1     | 0.31271448E-02 | 0.18813926E+02 |   65.826
 BASOPT|        4     |       1     | 0.27362466E-02 | 0.17496034E+02 |   53.186
 BASOPT|        5     |       1     | 0.39833115E-02 | 0.47741066E+01 |   47.277
 BASOPT| -----------------------------------------------------------------------
 BASOPT| Total residuum value: -.70707715E+02

 BASOPT| Information at iteration number:    6500
 BASOPT| Training set | Combination | Rho difference | Condition num. | Time
 BASOPT| -----------------------------------------------------------------------
 BASOPT|        1     |       1     | 0.49727416E-02 | 0.13247991E+03 |  100.518
 BASOPT|        2     |       1     | 0.33782844E-02 | 0.24337427E+03 |  152.388
 BASOPT|        3     |       1     | 0.31247367E-02 | 0.18809632E+02 |   66.850
 BASOPT|        4     |       1     | 0.27368057E-02 | 0.17481624E+02 |   54.019
 BASOPT|        5     |       1     | 0.39845544E-02 | 0.47684441E+01 |   48.021
 BASOPT| -----------------------------------------------------------------------
 BASOPT| Total residuum value: -.70707992E+02

 BASOPT| Information at iteration number:    6600
 BASOPT| Training set | Combination | Rho difference | Condition num. | Time
 BASOPT| -----------------------------------------------------------------------
 BASOPT|        1     |       1     | 0.49857585E-02 | 0.13321402E+03 |  102.072
 BASOPT|        2     |       1     | 0.33585303E-02 | 0.24361375E+03 |  154.737
 BASOPT|        3     |       1     | 0.31252364E-02 | 0.18785016E+02 |   67.874
 BASOPT|        4     |       1     | 0.27530722E-02 | 0.17449658E+02 |   54.852
 BASOPT|        5     |       1     | 0.39895724E-02 | 0.47639946E+01 |   48.768
 BASOPT| -----------------------------------------------------------------------
 BASOPT| Total residuum value: -.70708162E+02

 BASOPT| Information at iteration number:    6700
 BASOPT| Training set | Combination | Rho difference | Condition num. | Time
 BASOPT| -----------------------------------------------------------------------
 BASOPT|        1     |       1     | 0.49616243E-02 | 0.13233500E+03 |  103.627
 BASOPT|        2     |       1     | 0.33835681E-02 | 0.24159788E+03 |  157.090
 BASOPT|        3     |       1     | 0.31237122E-02 | 0.18885899E+02 |   68.897
 BASOPT|        4     |       1     | 0.27367884E-02 | 0.17522041E+02 |   55.681
 BASOPT|        5     |       1     | 0.39648680E-02 | 0.47586949E+01 |   49.513
 BASOPT| -----------------------------------------------------------------------
 BASOPT| Total residuum value: -.70708414E+02

 BASOPT| Information at iteration number:    6800
 BASOPT| Training set | Combination | Rho difference | Condition num. | Time
 BASOPT| -----------------------------------------------------------------------
 BASOPT|        1     |       1     | 0.49783909E-02 | 0.13250548E+03 |  105.182
 BASOPT|        2     |       1     | 0.33644220E-02 | 0.24092668E+03 |  159.429
 BASOPT|        3     |       1     | 0.31249818E-02 | 0.18915718E+02 |   69.921
 BASOPT|        4     |       1     | 0.27422709E-02 | 0.17541426E+02 |   56.510
 BASOPT|        5     |       1     | 0.39712656E-02 | 0.47668859E+01 |   50.258
 BASOPT| -----------------------------------------------------------------------
 BASOPT| Total residuum value: -.70708568E+02

 BASOPT| Information at iteration number:    6900
 BASOPT| Training set | Combination | Rho difference | Condition num. | Time
 BASOPT| -----------------------------------------------------------------------
 BASOPT|        1     |       1     | 0.49572816E-02 | 0.13279745E+03 |  106.738
 BASOPT|        2     |       1     | 0.33526482E-02 | 0.24166822E+03 |  161.773
 BASOPT|        3     |       1     | 0.31209945E-02 | 0.18890262E+02 |   70.944
 BASOPT|        4     |       1     | 0.27416921E-02 | 0.17516604E+02 |   57.343
 BASOPT|        5     |       1     | 0.39691781E-02 | 0.47589536E+01 |   51.005
 BASOPT| -----------------------------------------------------------------------
 BASOPT| Total residuum value: -.70708777E+02

 BASOPT| Information at iteration number:    7000
 BASOPT| Training set | Combination | Rho difference | Condition num. | Time
 BASOPT| -----------------------------------------------------------------------
 BASOPT|        1     |       1     | 0.49855624E-02 | 0.13135113E+03 |  108.295
 BASOPT|        2     |       1     | 0.33579499E-02 | 0.23644272E+03 |  164.126
 BASOPT|        3     |       1     | 0.31231298E-02 | 0.19019983E+02 |   71.969
 BASOPT|        4     |       1     | 0.27315432E-02 | 0.17632511E+02 |   58.176
 BASOPT|        5     |       1     | 0.39613127E-02 | 0.47769685E+01 |   51.750
 BASOPT| -----------------------------------------------------------------------
 BASOPT| Total residuum value: -.70708922E+02

 BASOPT| Information at iteration number:    7100
 BASOPT| Training set | Combination | Rho difference | Condition num. | Time
 BASOPT| -----------------------------------------------------------------------
 BASOPT|        1     |       1     | 0.49572059E-02 | 0.13263380E+03 |  109.852
 BASOPT|        2     |       1     | 0.33357341E-02 | 0.23954819E+03 |  166.491
 BASOPT|        3     |       1     | 0.31198593E-02 | 0.18946947E+02 |   72.994
 BASOPT|        4     |       1     | 0.27390887E-02 | 0.17561555E+02 |   59.008
 BASOPT|        5     |       1     | 0.39581606E-02 | 0.47615098E+01 |   52.495
 BASOPT| -----------------------------------------------------------------------
 BASOPT| Total residuum value: -.70709173E+02

 BASOPT| Information at iteration number:    7200
 BASOPT| Training set | Combination | Rho difference | Condition num. | Time
 BASOPT| -----------------------------------------------------------------------
 BASOPT|        1     |       1     | 0.49321991E-02 | 0.13353651E+03 |  111.408
 BASOPT|        2     |       1     | 0.33285166E-02 | 0.24168327E+03 |  168.832
 BASOPT|        3     |       1     | 0.31171088E-02 | 0.18887201E+02 |   74.020
 BASOPT|        4     |       1     | 0.27449796E-02 | 0.17511367E+02 |   59.841
 BASOPT|        5     |       1     | 0.39520505E-02 | 0.47465860E+01 |   53.239
 BASOPT| -----------------------------------------------------------------------
 BASOPT| Total residuum value: -.70709305E+02

 BASOPT| Information at iteration number:    7300
 BASOPT| Training set | Combination | Rho difference | Condition num. | Time
 BASOPT| -----------------------------------------------------------------------
 BASOPT|        1     |       1     | 0.49588702E-02 | 0.13222611E+03 |  112.972
 BASOPT|        2     |       1     | 0.33268293E-02 | 0.23746749E+03 |  171.187
 BASOPT|        3     |       1     | 0.31178390E-02 | 0.18998405E+02 |   75.045
 BASOPT|        4     |       1     | 0.27385301E-02 | 0.17611498E+02 |   60.675
 BASOPT|        5     |       1     | 0.39537137E-02 | 0.47599154E+01 |   53.984
 BASOPT| -----------------------------------------------------------------------
 BASOPT| Total residuum value: -.70709558E+02

 BASOPT| Information at iteration number:    7400
 BASOPT| Training set | Combination | Rho difference | Condition num. | Time
 BASOPT| -----------------------------------------------------------------------
 BASOPT|        1     |       1     | 0.49386883E-02 | 0.13227115E+03 |  114.538
 BASOPT|        2     |       1     | 0.33115723E-02 | 0.23813223E+03 |  173.544
 BASOPT|        3     |       1     | 0.31140108E-02 | 0.18949822E+02 |   76.068
 BASOPT|        4     |       1     | 0.27380058E-02 | 0.17572635E+02 |   61.508
 BASOPT|        5     |       1     | 0.39549494E-02 | 0.47483024E+01 |   54.728
 BASOPT| -----------------------------------------------------------------------
 BASOPT| Total residuum value: -.70709723E+02

 BASOPT| Information at iteration number:    7500
 BASOPT| Training set | Combination | Rho difference | Condition num. | Time
 BASOPT| -----------------------------------------------------------------------
 BASOPT|        1     |       1     | 0.49423856E-02 | 0.13178201E+03 |  116.102
 BASOPT|        2     |       1     | 0.33101886E-02 | 0.23688594E+03 |  175.876
 BASOPT|        3     |       1     | 0.31134145E-02 | 0.18989648E+02 |   77.091
 BASOPT|        4     |       1     | 0.27337134E-02 | 0.17603028E+02 |   62.340
 BASOPT|        5     |       1     | 0.39536692E-02 | 0.47507535E+01 |   55.473
 BASOPT| -----------------------------------------------------------------------
 BASOPT| Total residuum value: -.70709867E+02

 BASOPT| Information at iteration number:    7600
 BASOPT| Training set | Combination | Rho difference | Condition num. | Time
 BASOPT| -----------------------------------------------------------------------
 BASOPT|        1     |       1     | 0.49350942E-02 | 0.13126957E+03 |  117.661
 BASOPT|        2     |       1     | 0.33103115E-02 | 0.23605195E+03 |  178.217
 BASOPT|        3     |       1     | 0.31124311E-02 | 0.19026973E+02 |   78.115
 BASOPT|        4     |       1     | 0.27233849E-02 | 0.17636805E+02 |   63.174
 BASOPT|        5     |       1     | 0.39530406E-02 | 0.47515784E+01 |   56.217
 BASOPT| -----------------------------------------------------------------------
 BASOPT| Total residuum value: -.70709972E+02

 BASOPT| Information at iteration number:    7700
 BASOPT| Training set | Combination | Rho difference | Condition num. | Time
 BASOPT| -----------------------------------------------------------------------
 BASOPT|        1     |       1     | 0.49326359E-02 | 0.13138781E+03 |  119.218
 BASOPT|        2     |       1     | 0.32996762E-02 | 0.23587163E+03 |  180.560
 BASOPT|        3     |       1     | 0.31117459E-02 | 0.19022163E+02 |   79.139
 BASOPT|        4     |       1     | 0.27271362E-02 | 0.17628456E+02 |   64.006
 BASOPT|        5     |       1     | 0.39508290E-02 | 0.47491790E+01 |   56.962
 BASOPT| -----------------------------------------------------------------------
 BASOPT| Total residuum value: -.70710127E+02

 BASOPT| Information at iteration number:    7800
 BASOPT| Training set | Combination | Rho difference | Condition num. | Time
 BASOPT| -----------------------------------------------------------------------
 BASOPT|        1     |       1     | 0.49299466E-02 | 0.13196436E+03 |  120.780
 BASOPT|        2     |       1     | 0.32817838E-02 | 0.23702961E+03 |  182.909
 BASOPT|        3     |       1     | 0.31100539E-02 | 0.18950089E+02 |   80.163
 BASOPT|        4     |       1     | 0.27375941E-02 | 0.17563750E+02 |   64.839
 BASOPT|        5     |       1     | 0.39564539E-02 | 0.47383531E+01 |   57.708
 BASOPT| -----------------------------------------------------------------------
 BASOPT| Total residuum value: -.70710256E+02

 BASOPT| Information at iteration number:    7900
 BASOPT| Training set | Combination | Rho difference | Condition num. | Time
 BASOPT| -----------------------------------------------------------------------
 BASOPT|        1     |       1     | 0.49174518E-02 | 0.13203894E+03 |  122.351
 BASOPT|        2     |       1     | 0.32853674E-02 | 0.23699905E+03 |  185.265
 BASOPT|        3     |       1     | 0.31099423E-02 | 0.18978372E+02 |   81.188
 BASOPT|        4     |       1     | 0.27378186E-02 | 0.17575250E+02 |   65.673
 BASOPT|        5     |       1     | 0.39421342E-02 | 0.47334719E+01 |   58.453
 BASOPT| -----------------------------------------------------------------------
 BASOPT| Total residuum value: -.70710438E+02

 BASOPT| Information at iteration number:    8000
 BASOPT| Training set | Combination | Rho difference | Condition num. | Time
 BASOPT| -----------------------------------------------------------------------
 BASOPT|        1     |       1     | 0.49189106E-02 | 0.13174553E+03 |  123.915
 BASOPT|        2     |       1     | 0.32819088E-02 | 0.23621621E+03 |  187.631
 BASOPT|        3     |       1     | 0.31093938E-02 | 0.19004906E+02 |   82.212
 BASOPT|        4     |       1     | 0.27351204E-02 | 0.17596628E+02 |   66.506
 BASOPT|        5     |       1     | 0.39417134E-02 | 0.47350099E+01 |   59.198
 BASOPT| -----------------------------------------------------------------------
 BASOPT| Total residuum value: -.70710532E+02

 BASOPT| Information at iteration number:    8100
 BASOPT| Training set | Combination | Rho difference | Condition num. | Time
 BASOPT| -----------------------------------------------------------------------
 BASOPT|        1     |       1     | 0.49279428E-02 | 0.13146261E+03 |  125.479
 BASOPT|        2     |       1     | 0.32663976E-02 | 0.23529329E+03 |  189.974
 BASOPT|        3     |       1     | 0.31088056E-02 | 0.19014374E+02 |   83.236
 BASOPT|        4     |       1     | 0.27359053E-02 | 0.17604601E+02 |   67.337
 BASOPT|        5     |       1     | 0.39527028E-02 | 0.47373755E+01 |   59.943
 BASOPT| -----------------------------------------------------------------------
 BASOPT| Total residuum value: -.70710604E+02

 BASOPT| Information at iteration number:    8200
 BASOPT| Training set | Combination | Rho difference | Condition num. | Time
 BASOPT| -----------------------------------------------------------------------
 BASOPT|        1     |       1     | 0.49147406E-02 | 0.13204927E+03 |  127.046
 BASOPT|        2     |       1     | 0.32555950E-02 | 0.23677358E+03 |  192.326
 BASOPT|        3     |       1     | 0.31063128E-02 | 0.18929421E+02 |   84.261
 BASOPT|        4     |       1     | 0.27443095E-02 | 0.17537439E+02 |   68.171
 BASOPT|        5     |       1     | 0.39578424E-02 | 0.47235446E+01 |   60.688
 BASOPT| -----------------------------------------------------------------------
 BASOPT| Total residuum value: -.70710617E+02

 BASOPT| Information at iteration number:    8300
 BASOPT| Training set | Combination | Rho difference | Condition num. | Time
 BASOPT| -----------------------------------------------------------------------
 BASOPT|        1     |       1     | 0.49238117E-02 | 0.13085428E+03 |  128.602
 BASOPT|        2     |       1     | 0.32649842E-02 | 0.23390536E+03 |  194.676
 BASOPT|        3     |       1     | 0.31067641E-02 | 0.19018751E+02 |   85.287
 BASOPT|        4     |       1     | 0.27340616E-02 | 0.17608930E+02 |   69.004
 BASOPT|        5     |       1     | 0.39534478E-02 | 0.47341272E+01 |   61.434
 BASOPT| -----------------------------------------------------------------------
 BASOPT| Total residuum value: -.70710740E+02

 BASOPT| Information at iteration number:    8400
 BASOPT| Training set | Combination | Rho difference | Condition num. | Time
 BASOPT| -----------------------------------------------------------------------
 BASOPT|        1     |       1     | 0.49289646E-02 | 0.13066503E+03 |  130.161
 BASOPT|        2     |       1     | 0.32636968E-02 | 0.23303733E+03 |  197.034
 BASOPT|        3     |       1     | 0.31065979E-02 | 0.19047764E+02 |   86.314
 BASOPT|        4     |       1     | 0.27347453E-02 | 0.17620373E+02 |   69.837
 BASOPT|        5     |       1     | 0.39523404E-02 | 0.47375318E+01 |   62.179
 BASOPT| -----------------------------------------------------------------------
 BASOPT| Total residuum value: -.70710820E+02

 BASOPT| Information at iteration number:    8500
 BASOPT| Training set | Combination | Rho difference | Condition num. | Time
 BASOPT| -----------------------------------------------------------------------
 BASOPT|        1     |       1     | 0.49224855E-02 | 0.13070708E+03 |  131.718
 BASOPT|        2     |       1     | 0.32585655E-02 | 0.23288787E+03 |  199.392
 BASOPT|        3     |       1     | 0.31051302E-02 | 0.19042122E+02 |   87.342
 BASOPT|        4     |       1     | 0.27351189E-02 | 0.17613531E+02 |   70.671
 BASOPT|        5     |       1     | 0.39525101E-02 | 0.47358010E+01 |   62.928
 BASOPT| -----------------------------------------------------------------------
 BASOPT| Total residuum value: -.70710914E+02

 BASOPT| Information at iteration number:    8600
 BASOPT| Training set | Combination | Rho difference | Condition num. | Time
 BASOPT| -----------------------------------------------------------------------
 BASOPT|        1     |       1     | 0.49195956E-02 | 0.13079072E+03 |  133.278
 BASOPT|        2     |       1     | 0.32527846E-02 | 0.23281387E+03 |  201.744
 BASOPT|        3     |       1     | 0.31039870E-02 | 0.19036792E+02 |   88.369
 BASOPT|        4     |       1     | 0.27331687E-02 | 0.17614272E+02 |   71.504
 BASOPT|        5     |       1     | 0.39537881E-02 | 0.47349473E+01 |   63.674
 BASOPT| -----------------------------------------------------------------------
 BASOPT| Total residuum value: -.70711018E+02

 BASOPT| Information at iteration number:    8700
 BASOPT| Training set | Combination | Rho difference | Condition num. | Time
 BASOPT| -----------------------------------------------------------------------
 BASOPT|        1     |       1     | 0.49265283E-02 | 0.13031396E+03 |  134.836
 BASOPT|        2     |       1     | 0.32524367E-02 | 0.23095515E+03 |  204.095
 BASOPT|        3     |       1     | 0.31038937E-02 | 0.19086897E+02 |   89.396
 BASOPT|        4     |       1     | 0.27255669E-02 | 0.17666857E+02 |   72.337
 BASOPT|        5     |       1     | 0.39532118E-02 | 0.47422533E+01 |   64.423
 BASOPT| -----------------------------------------------------------------------
 BASOPT| Total residuum value: -.70711132E+02

 BASOPT| Information at iteration number:    8800
 BASOPT| Training set | Combination | Rho difference | Condition num. | Time
 BASOPT| -----------------------------------------------------------------------
 BASOPT|        1     |       1     | 0.49136535E-02 | 0.13093167E+03 |  136.394
 BASOPT|        2     |       1     | 0.32444656E-02 | 0.23184939E+03 |  206.459
 BASOPT|        3     |       1     | 0.31021362E-02 | 0.19034280E+02 |   90.421
 BASOPT|        4     |       1     | 0.27346511E-02 | 0.17624118E+02 |   73.169
 BASOPT|        5     |       1     | 0.39512816E-02 | 0.47327556E+01 |   65.171
 BASOPT| -----------------------------------------------------------------------
 BASOPT| Total residuum value: -.70711218E+02

 BASOPT| Information at iteration number:    8900
 BASOPT| Training set | Combination | Rho difference | Condition num. | Time
 BASOPT| -----------------------------------------------------------------------
 BASOPT|        1     |       1     | 0.49139381E-02 | 0.13096091E+03 |  137.951
 BASOPT|        2     |       1     | 0.32401606E-02 | 0.23061118E+03 |  208.812
 BASOPT|        3     |       1     | 0.31019820E-02 | 0.19083350E+02 |   91.445
 BASOPT|        4     |       1     | 0.27355389E-02 | 0.17659936E+02 |   74.002
 BASOPT|        5     |       1     | 0.39419393E-02 | 0.47393164E+01 |   65.919
 BASOPT| -----------------------------------------------------------------------
 BASOPT| Total residuum value: -.70711290E+02

 BASOPT| Information at iteration number:    9000
 BASOPT| Training set | Combination | Rho difference | Condition num. | Time
 BASOPT| -----------------------------------------------------------------------
 BASOPT|        1     |       1     | 0.48799369E-02 | 0.13147613E+03 |  139.510
 BASOPT|        2     |       1     | 0.32402243E-02 | 0.23239595E+03 |  211.181
 BASOPT|        3     |       1     | 0.30989518E-02 | 0.19021191E+02 |   92.471
 BASOPT|        4     |       1     | 0.27368931E-02 | 0.17609689E+02 |   74.834
 BASOPT|        5     |       1     | 0.39329787E-02 | 0.47246055E+01 |   66.668
 BASOPT| -----------------------------------------------------------------------
 BASOPT| Total residuum value: -.70711319E+02

 BASOPT| Information at iteration number:    9100
 BASOPT| Training set | Combination | Rho difference | Condition num. | Time
 BASOPT| -----------------------------------------------------------------------
 BASOPT|        1     |       1     | 0.49056515E-02 | 0.13088315E+03 |  141.066
 BASOPT|        2     |       1     | 0.32386636E-02 | 0.22977657E+03 |  213.541
 BASOPT|        3     |       1     | 0.31005752E-02 | 0.19088756E+02 |   93.497
 BASOPT|        4     |       1     | 0.27372917E-02 | 0.17662022E+02 |   75.668
 BASOPT|        5     |       1     | 0.39343244E-02 | 0.47367370E+01 |   67.415
 BASOPT| -----------------------------------------------------------------------
 BASOPT| Total residuum value: -.70711432E+02

 BASOPT| Information at iteration number:    9200
 BASOPT| Training set | Combination | Rho difference | Condition num. | Time
 BASOPT| -----------------------------------------------------------------------
 BASOPT|        1     |       1     | 0.49030732E-02 | 0.13106584E+03 |  142.622
 BASOPT|        2     |       1     | 0.32360411E-02 | 0.23021056E+03 |  215.908
 BASOPT|        3     |       1     | 0.30999403E-02 | 0.19073628E+02 |   94.523
 BASOPT|        4     |       1     | 0.27352975E-02 | 0.17650853E+02 |   76.502
 BASOPT|        5     |       1     | 0.39356170E-02 | 0.47333969E+01 |   68.159
 BASOPT| -----------------------------------------------------------------------
 BASOPT| Total residuum value: -.70711508E+02

 BASOPT| Information at iteration number:    9300
 BASOPT| Training set | Combination | Rho difference | Condition num. | Time
 BASOPT| -----------------------------------------------------------------------
 BASOPT|        1     |       1     | 0.49131414E-02 | 0.13083677E+03 |  144.180
 BASOPT|        2     |       1     | 0.32362502E-02 | 0.22924947E+03 |  218.269
 BASOPT|        3     |       1     | 0.30991377E-02 | 0.19086594E+02 |   95.549
 BASOPT|        4     |       1     | 0.27305224E-02 | 0.17667490E+02 |   77.335
 BASOPT|        5     |       1     | 0.39394743E-02 | 0.47341465E+01 |   68.903
 BASOPT| -----------------------------------------------------------------------
 BASOPT| Total residuum value: -.70711559E+02

 BASOPT| Information at iteration number:    9400
 BASOPT| Training set | Combination | Rho difference | Condition num. | Time
 BASOPT| -----------------------------------------------------------------------
 BASOPT|        1     |       1     | 0.48895431E-02 | 0.13142157E+03 |  145.739
 BASOPT|        2     |       1     | 0.32282414E-02 | 0.23119373E+03 |  220.631
 BASOPT|        3     |       1     | 0.30964797E-02 | 0.19018272E+02 |   96.575
 BASOPT|        4     |       1     | 0.27321711E-02 | 0.17610445E+02 |   78.168
 BASOPT|        5     |       1     | 0.39397120E-02 | 0.47214168E+01 |   69.646
 BASOPT| -----------------------------------------------------------------------
 BASOPT| Total residuum value: -.70711597E+02

 BASOPT| Information at iteration number:    9500
 BASOPT| Training set | Combination | Rho difference | Condition num. | Time
 BASOPT| -----------------------------------------------------------------------
 BASOPT|        1     |       1     | 0.49016391E-02 | 0.13102656E+03 |  147.297
 BASOPT|        2     |       1     | 0.32273841E-02 | 0.22958073E+03 |  222.987
 BASOPT|        3     |       1     | 0.30973179E-02 | 0.19087107E+02 |   97.601
 BASOPT|        4     |       1     | 0.27291403E-02 | 0.17664208E+02 |   79.002
 BASOPT|        5     |       1     | 0.39392246E-02 | 0.47311745E+01 |   70.389
 BASOPT| -----------------------------------------------------------------------
 BASOPT| Total residuum value: -.70711685E+02

 BASOPT| Information at iteration number:    9600
 BASOPT| Training set | Combination | Rho difference | Condition num. | Time
 BASOPT| -----------------------------------------------------------------------
 BASOPT|        1     |       1     | 0.48991283E-02 | 0.13123450E+03 |  148.853
 BASOPT|        2     |       1     | 0.32225115E-02 | 0.22973357E+03 |  225.333
 BASOPT|        3     |       1     | 0.30959899E-02 | 0.19059266E+02 |   98.627
 BASOPT|        4     |       1     | 0.27341994E-02 | 0.17637214E+02 |   79.836
 BASOPT|        5     |       1     | 0.39410489E-02 | 0.47249972E+01 |   71.132
 BASOPT| -----------------------------------------------------------------------
 BASOPT| Total residuum value: -.70711730E+02

 BASOPT| Information at iteration number:    9700
 BASOPT| Training set | Combination | Rho difference | Condition num. | Time
[...]
 BASOPT| Training set | Combination | Rho difference | Condition num. | Time
 BASOPT| -----------------------------------------------------------------------
 BASOPT|        1     |       1     | 0.47449682E-02 | 0.12386832E+03 | 1139.984
 BASOPT|        2     |       1     | 0.31006965E-02 | 0.20968636E+03 | 1726.925
 BASOPT|        3     |       1     | 0.30246496E-02 | 0.18926524E+02 |  764.429
 BASOPT|        4     |       1     | 0.27386543E-02 | 0.17850454E+02 |  618.417
 BASOPT|        5     |       1     | 0.38611561E-02 | 0.48394779E+01 |  551.380
 BASOPT| -----------------------------------------------------------------------
 BASOPT| Total residuum value: -.70719012E+02

 BASOPT| Information at iteration number:   74000
 BASOPT| Training set | Combination | Rho difference | Condition num. | Time
 BASOPT| -----------------------------------------------------------------------
 BASOPT|        1     |       1     | 0.47449396E-02 | 0.12394207E+03 | 1141.520
 BASOPT|        2     |       1     | 0.31010847E-02 | 0.20982066E+03 | 1729.276
 BASOPT|        3     |       1     | 0.30246617E-02 | 0.18926299E+02 |  765.466
 BASOPT|        4     |       1     | 0.27380017E-02 | 0.17851017E+02 |  619.256
 BASOPT|        5     |       1     | 0.38603729E-02 | 0.48396275E+01 |  552.128
 BASOPT| -----------------------------------------------------------------------
 BASOPT| Total residuum value: -.70719014E+02

 BASOPT| Information at iteration number:   74100
 BASOPT| Training set | Combination | Rho difference | Condition num. | Time
 BASOPT| -----------------------------------------------------------------------
 BASOPT|        1     |       1     | 0.47446875E-02 | 0.12394858E+03 | 1143.053
 BASOPT|        2     |       1     | 0.31007710E-02 | 0.20990974E+03 | 1731.614
 BASOPT|        3     |       1     | 0.30247368E-02 | 0.18925575E+02 |  766.503
 BASOPT|        4     |       1     | 0.27377945E-02 | 0.17849609E+02 |  620.095
 BASOPT|        5     |       1     | 0.38605538E-02 | 0.48403644E+01 |  552.876
 BASOPT| -----------------------------------------------------------------------
 BASOPT| Total residuum value: -.70719017E+02

 BASOPT| Information at iteration number:   74200
 BASOPT| Training set | Combination | Rho difference | Condition num. | Time
 BASOPT| -----------------------------------------------------------------------
 BASOPT|        1     |       1     | 0.47442342E-02 | 0.12389688E+03 | 1144.586
 BASOPT|        2     |       1     | 0.31010649E-02 | 0.20992348E+03 | 1733.956
 BASOPT|        3     |       1     | 0.30246751E-02 | 0.18927838E+02 |  767.541
 BASOPT|        4     |       1     | 0.27373320E-02 | 0.17851023E+02 |  620.934
 BASOPT|        5     |       1     | 0.38609521E-02 | 0.48409695E+01 |  553.623
 BASOPT| -----------------------------------------------------------------------
 BASOPT| Total residuum value: -.70719019E+02

 BASOPT| Information at iteration number:   74300
 BASOPT| Training set | Combination | Rho difference | Condition num. | Time
 BASOPT| -----------------------------------------------------------------------
 BASOPT|        1     |       1     | 0.47446099E-02 | 0.12387981E+03 | 1146.117
 BASOPT|        2     |       1     | 0.31005618E-02 | 0.20991320E+03 | 1736.313
 BASOPT|        3     |       1     | 0.30244782E-02 | 0.18925369E+02 |  768.579
 BASOPT|        4     |       1     | 0.27385517E-02 | 0.17849280E+02 |  621.772
 BASOPT|        5     |       1     | 0.38619041E-02 | 0.48405128E+01 |  554.371
 BASOPT| -----------------------------------------------------------------------
 BASOPT| Total residuum value: -.70719020E+02

 BASOPT| Information at iteration number:   74400
 BASOPT| Training set | Combination | Rho difference | Condition num. | Time
 BASOPT| -----------------------------------------------------------------------
 BASOPT|        1     |       1     | 0.47440484E-02 | 0.12390629E+03 | 1147.649
 BASOPT|        2     |       1     | 0.31007415E-02 | 0.20999804E+03 | 1738.661
 BASOPT|        3     |       1     | 0.30246553E-02 | 0.18923887E+02 |  769.616
 BASOPT|        4     |       1     | 0.27391735E-02 | 0.17846700E+02 |  622.612
 BASOPT|        5     |       1     | 0.38616652E-02 | 0.48401748E+01 |  555.119
 BASOPT| -----------------------------------------------------------------------
 BASOPT| Total residuum value: -.70719021E+02

 BASOPT| Information at iteration number:   74500
 BASOPT| Training set | Combination | Rho difference | Condition num. | Time
 BASOPT| -----------------------------------------------------------------------
 BASOPT|        1     |       1     | 0.47440614E-02 | 0.12391350E+03 | 1149.196
 BASOPT|        2     |       1     | 0.31004081E-02 | 0.20990532E+03 | 1741.014
 BASOPT|        3     |       1     | 0.30245567E-02 | 0.18924265E+02 |  770.653
 BASOPT|        4     |       1     | 0.27387151E-02 | 0.17847319E+02 |  623.451
 BASOPT|        5     |       1     | 0.38609807E-02 | 0.48403164E+01 |  555.870
 BASOPT| -----------------------------------------------------------------------
 BASOPT| Total residuum value: -.70719023E+02

 BASOPT| Information at iteration number:   74600
 BASOPT| Training set | Combination | Rho difference | Condition num. | Time
 BASOPT| -----------------------------------------------------------------------
 BASOPT|        1     |       1     | 0.47441805E-02 | 0.12396193E+03 | 1150.731
 BASOPT|        2     |       1     | 0.30999934E-02 | 0.20987816E+03 | 1743.373
 BASOPT|        3     |       1     | 0.30245870E-02 | 0.18927294E+02 |  771.691
 BASOPT|        4     |       1     | 0.27372626E-02 | 0.17850173E+02 |  624.295
 BASOPT|        5     |       1     | 0.38597713E-02 | 0.48409698E+01 |  556.619
 BASOPT| -----------------------------------------------------------------------
 BASOPT| Total residuum value: -.70719028E+02

 BASOPT| Information at iteration number:   74700
 BASOPT| Training set | Combination | Rho difference | Condition num. | Time
 BASOPT| -----------------------------------------------------------------------
 BASOPT|        1     |       1     | 0.47441145E-02 | 0.12390892E+03 | 1152.267
 BASOPT|        2     |       1     | 0.30999680E-02 | 0.20989004E+03 | 1745.716
 BASOPT|        3     |       1     | 0.30244946E-02 | 0.18926899E+02 |  772.729
 BASOPT|        4     |       1     | 0.27379146E-02 | 0.17851084E+02 |  625.135
 BASOPT|        5     |       1     | 0.38606953E-02 | 0.48405824E+01 |  557.368
 BASOPT| -----------------------------------------------------------------------
 BASOPT| Total residuum value: -.70719030E+02

 BASOPT| Information at iteration number:   74800
 BASOPT| Training set | Combination | Rho difference | Condition num. | Time
 BASOPT| -----------------------------------------------------------------------
 BASOPT|        1     |       1     | 0.47439049E-02 | 0.12390268E+03 | 1153.800
 BASOPT|        2     |       1     | 0.30992818E-02 | 0.20992642E+03 | 1748.069
 BASOPT|        3     |       1     | 0.30244289E-02 | 0.18925970E+02 |  773.767
 BASOPT|        4     |       1     | 0.27384884E-02 | 0.17850142E+02 |  625.974
 BASOPT|        5     |       1     | 0.38614572E-02 | 0.48411074E+01 |  558.116
 BASOPT| -----------------------------------------------------------------------
 BASOPT| Total residuum value: -.70719032E+02

 BASOPT| Information at iteration number:   74900
 BASOPT| Training set | Combination | Rho difference | Condition num. | Time
 BASOPT| -----------------------------------------------------------------------
 BASOPT|        1     |       1     | 0.47413948E-02 | 0.12399227E+03 | 1155.332
 BASOPT|        2     |       1     | 0.31002094E-02 | 0.21031202E+03 | 1750.415
 BASOPT|        3     |       1     | 0.30243884E-02 | 0.18924851E+02 |  774.805
 BASOPT|        4     |       1     | 0.27369885E-02 | 0.17848254E+02 |  626.813
 BASOPT|        5     |       1     | 0.38607873E-02 | 0.48404526E+01 |  558.865
 BASOPT| -----------------------------------------------------------------------
 BASOPT| Total residuum value: -.70719035E+02

 BASOPT| Information at iteration number:   75000
 BASOPT| Training set | Combination | Rho difference | Condition num. | Time
 BASOPT| -----------------------------------------------------------------------
 BASOPT|        1     |       1     | 0.47424126E-02 | 0.12406877E+03 | 1156.867
 BASOPT|        2     |       1     | 0.30977858E-02 | 0.21024437E+03 | 1752.778
 BASOPT|        3     |       1     | 0.30245419E-02 | 0.18916011E+02 |  775.843
 BASOPT|        4     |       1     | 0.27400491E-02 | 0.17838787E+02 |  627.652
 BASOPT|        5     |       1     | 0.38612520E-02 | 0.48397766E+01 |  559.612
 BASOPT| -----------------------------------------------------------------------
 BASOPT| Total residuum value: -.70719036E+02

 BASOPT| Information at iteration number:   75100
 BASOPT| Training set | Combination | Rho difference | Condition num. | Time
 BASOPT| -----------------------------------------------------------------------
 BASOPT|        1     |       1     | 0.47439970E-02 | 0.12387947E+03 | 1158.400
 BASOPT|        2     |       1     | 0.30993619E-02 | 0.20993196E+03 | 1755.119
 BASOPT|        3     |       1     | 0.30243763E-02 | 0.18926769E+02 |  776.885
 BASOPT|        4     |       1     | 0.27378968E-02 | 0.17852836E+02 |  628.492
 BASOPT|        5     |       1     | 0.38612565E-02 | 0.48420447E+01 |  560.361
 BASOPT| -----------------------------------------------------------------------
 BASOPT| Total residuum value: -.70719039E+02

 BASOPT| Information at iteration number:   75200
 BASOPT| Training set | Combination | Rho difference | Condition num. | Time
 BASOPT| -----------------------------------------------------------------------
 BASOPT|        1     |       1     | 0.47446757E-02 | 0.12383443E+03 | 1159.933
 BASOPT|        2     |       1     | 0.31002351E-02 | 0.20994127E+03 | 1757.464
 BASOPT|        3     |       1     | 0.30245564E-02 | 0.18926029E+02 |  777.925
 BASOPT|        4     |       1     | 0.27384825E-02 | 0.17851572E+02 |  629.339
 BASOPT|        5     |       1     | 0.38613649E-02 | 0.48436760E+01 |  561.109
 BASOPT| -----------------------------------------------------------------------
 BASOPT| Total residuum value: -.70719042E+02

 BASOPT| Information at iteration number:   75300
 BASOPT| Training set | Combination | Rho difference | Condition num. | Time
 BASOPT| -----------------------------------------------------------------------
 BASOPT|        1     |       1     | 0.47439487E-02 | 0.12391642E+03 | 1161.467
 BASOPT|        2     |       1     | 0.31005896E-02 | 0.21007426E+03 | 1759.800
 BASOPT|        3     |       1     | 0.30246559E-02 | 0.18924645E+02 |  778.962
 BASOPT|        4     |       1     | 0.27395097E-02 | 0.17847323E+02 |  630.179
 BASOPT|        5     |       1     | 0.38604746E-02 | 0.48440325E+01 |  561.857
 BASOPT| -----------------------------------------------------------------------
 BASOPT| Total residuum value: -.70719043E+02

 BASOPT| Information at iteration number:   75400
 BASOPT| Training set | Combination | Rho difference | Condition num. | Time
 BASOPT| -----------------------------------------------------------------------
 BASOPT|        1     |       1     | 0.47440731E-02 | 0.12384944E+03 | 1163.000
 BASOPT|        2     |       1     | 0.31014844E-02 | 0.20992726E+03 | 1762.147
 BASOPT|        3     |       1     | 0.30244811E-02 | 0.18931229E+02 |  779.999
 BASOPT|        4     |       1     | 0.27381063E-02 | 0.17854290E+02 |  631.019
 BASOPT|        5     |       1     | 0.38601199E-02 | 0.48450102E+01 |  562.605
 BASOPT| -----------------------------------------------------------------------
 BASOPT| Total residuum value: -.70719045E+02

 BASOPT| Information at iteration number:   75500
 BASOPT| Training set | Combination | Rho difference | Condition num. | Time
 BASOPT| -----------------------------------------------------------------------
 BASOPT|        1     |       1     | 0.47445417E-02 | 0.12379258E+03 | 1164.538
 BASOPT|        2     |       1     | 0.31009980E-02 | 0.20978495E+03 | 1764.493
 BASOPT|        3     |       1     | 0.30243004E-02 | 0.18932055E+02 |  781.037
 BASOPT|        4     |       1     | 0.27370512E-02 | 0.17856016E+02 |  631.858
 BASOPT|        5     |       1     | 0.38611679E-02 | 0.48430697E+01 |  563.353
 BASOPT| -----------------------------------------------------------------------
 BASOPT| Total residuum value: -.70719048E+02

 BASOPT| Information at iteration number:   75600
 BASOPT| Training set | Combination | Rho difference | Condition num. | Time
 BASOPT| -----------------------------------------------------------------------
 BASOPT|        1     |       1     | 0.47426226E-02 | 0.12391963E+03 | 1166.070
 BASOPT|        2     |       1     | 0.31001601E-02 | 0.20987648E+03 | 1766.831
 BASOPT|        3     |       1     | 0.30243801E-02 | 0.18930605E+02 |  782.073
 BASOPT|        4     |       1     | 0.27380225E-02 | 0.17851257E+02 |  632.696
 BASOPT|        5     |       1     | 0.38600104E-02 | 0.48405830E+01 |  564.099
 BASOPT| -----------------------------------------------------------------------
 BASOPT| Total residuum value: -.70719052E+02

 BASOPT| Information at iteration number:   75700
 BASOPT| Training set | Combination | Rho difference | Condition num. | Time
 BASOPT| -----------------------------------------------------------------------
 BASOPT|        1     |       1     | 0.47426400E-02 | 0.12386004E+03 | 1167.602
 BASOPT|        2     |       1     | 0.31005326E-02 | 0.20977025E+03 | 1769.178
 BASOPT|        3     |       1     | 0.30242372E-02 | 0.18931802E+02 |  783.114
 BASOPT|        4     |       1     | 0.27374339E-02 | 0.17856400E+02 |  633.536
 BASOPT|        5     |       1     | 0.38596806E-02 | 0.48418710E+01 |  564.850
 BASOPT| -----------------------------------------------------------------------
 BASOPT| Total residuum value: -.70719054E+02

 BASOPT| Information at iteration number:   75800
 BASOPT| Training set | Combination | Rho difference | Condition num. | Time
 BASOPT| -----------------------------------------------------------------------
 BASOPT|        1     |       1     | 0.47424428E-02 | 0.12384619E+03 | 1169.135
 BASOPT|        2     |       1     | 0.30988706E-02 | 0.20948092E+03 | 1771.519
 BASOPT|        3     |       1     | 0.30239182E-02 | 0.18934267E+02 |  784.155
 BASOPT|        4     |       1     | 0.27377515E-02 | 0.17856290E+02 |  634.375
 BASOPT|        5     |       1     | 0.38597322E-02 | 0.48409554E+01 |  565.599
 BASOPT| -----------------------------------------------------------------------
 BASOPT| Total residuum value: -.70719058E+02

 BASOPT| Information at iteration number:   75900
 BASOPT| Training set | Combination | Rho difference | Condition num. | Time
 BASOPT| -----------------------------------------------------------------------
 BASOPT|        1     |       1     | 0.47427591E-02 | 0.12384844E+03 | 1170.668
 BASOPT|        2     |       1     | 0.30992094E-02 | 0.20956027E+03 | 1773.859
 BASOPT|        3     |       1     | 0.30238470E-02 | 0.18930792E+02 |  785.192
 BASOPT|        4     |       1     | 0.27376481E-02 | 0.17855466E+02 |  635.215
 BASOPT|        5     |       1     | 0.38600412E-02 | 0.48409530E+01 |  566.347
 BASOPT| -----------------------------------------------------------------------
 BASOPT| Total residuum value: -.70719059E+02

 BASOPT| Information at iteration number:   76000
 BASOPT| Training set | Combination | Rho difference | Condition num. | Time
 BASOPT| -----------------------------------------------------------------------
 BASOPT|        1     |       1     | 0.47429669E-02 | 0.12392148E+03 | 1172.218
 BASOPT|        2     |       1     | 0.30994717E-02 | 0.20979740E+03 | 1776.212
 BASOPT|        3     |       1     | 0.30239575E-02 | 0.18927970E+02 |  786.231
 BASOPT|        4     |       1     | 0.27385588E-02 | 0.17852523E+02 |  636.054
 BASOPT|        5     |       1     | 0.38599854E-02 | 0.48411761E+01 |  567.094
 BASOPT| -----------------------------------------------------------------------
 BASOPT| Total residuum value: -.70719062E+02

 BASOPT| Information at iteration number:   76100
 BASOPT| Training set | Combination | Rho difference | Condition num. | Time
 BASOPT| -----------------------------------------------------------------------
 BASOPT|        1     |       1     | 0.47484536E-02 | 0.12379755E+03 | 1173.753
 BASOPT|        2     |       1     | 0.30991442E-02 | 0.20923890E+03 | 1778.558
 BASOPT|        3     |       1     | 0.30241617E-02 | 0.18947663E+02 |  787.269
 BASOPT|        4     |       1     | 0.27389026E-02 | 0.17868731E+02 |  636.893
 BASOPT|        5     |       1     | 0.38601993E-02 | 0.48434812E+01 |  567.843
 BASOPT| -----------------------------------------------------------------------
 BASOPT| Total residuum value: -.70719059E+02

 BASOPT| Information at iteration number:   76200
 BASOPT| Training set | Combination | Rho difference | Condition num. | Time
 BASOPT| -----------------------------------------------------------------------
 BASOPT|        1     |       1     | 0.47422507E-02 | 0.12387711E+03 | 1175.285
 BASOPT|        2     |       1     | 0.30987683E-02 | 0.20966091E+03 | 1780.884
 BASOPT|        3     |       1     | 0.30235283E-02 | 0.18929470E+02 |  788.307
 BASOPT|        4     |       1     | 0.27380285E-02 | 0.17855611E+02 |  637.732
 BASOPT|        5     |       1     | 0.38598134E-02 | 0.48405534E+01 |  568.592
 BASOPT| -----------------------------------------------------------------------
 BASOPT| Total residuum value: -.70719065E+02

 BASOPT| Information at iteration number:   76300
 BASOPT| Training set | Combination | Rho difference | Condition num. | Time
 BASOPT| -----------------------------------------------------------------------
 BASOPT|        1     |       1     | 0.47421063E-02 | 0.12393489E+03 | 1176.818
 BASOPT|        2     |       1     | 0.30991012E-02 | 0.20975953E+03 | 1783.227
 BASOPT|        3     |       1     | 0.30235280E-02 | 0.18928966E+02 |  789.347
 BASOPT|        4     |       1     | 0.27377367E-02 | 0.17853138E+02 |  638.572
 BASOPT|        5     |       1     | 0.38591729E-02 | 0.48396084E+01 |  569.341
 BASOPT| -----------------------------------------------------------------------
 BASOPT| Total residuum value: -.70719068E+02

 BASOPT| Information at iteration number:   76400
 BASOPT| Training set | Combination | Rho difference | Condition num. | Time
 BASOPT| -----------------------------------------------------------------------
 BASOPT|        1     |       1     | 0.47431715E-02 | 0.12390744E+03 | 1178.351
 BASOPT|        2     |       1     | 0.30992392E-02 | 0.20975794E+03 | 1785.578
 BASOPT|        3     |       1     | 0.30234060E-02 | 0.18928058E+02 |  790.384
 BASOPT|        4     |       1     | 0.27368928E-02 | 0.17854238E+02 |  639.412
 BASOPT|        5     |       1     | 0.38599821E-02 | 0.48389320E+01 |  570.093
 BASOPT| -----------------------------------------------------------------------
 BASOPT| Total residuum value: -.70719070E+02

 BASOPT| Information at iteration number:   76500
 BASOPT| Training set | Combination | Rho difference | Condition num. | Time
 BASOPT| -----------------------------------------------------------------------
 BASOPT|        1     |       1     | 0.47421662E-02 | 0.12390821E+03 | 1179.883
 BASOPT|        2     |       1     | 0.30985905E-02 | 0.20971687E+03 | 1787.942
 BASOPT|        3     |       1     | 0.30231869E-02 | 0.18930003E+02 |  791.422
 BASOPT|        4     |       1     | 0.27371586E-02 | 0.17857437E+02 |  640.256
 BASOPT|        5     |       1     | 0.38595404E-02 | 0.48376208E+01 |  570.841
 BASOPT| -----------------------------------------------------------------------
 BASOPT| Total residuum value: -.70719072E+02

