SIRIUS 7.0.0, git hash: https://api.github.com/repos/electronic-structure/SIRIUS/git/ref/tags/v7.0.0

  **** **** ******  **  PROGRAM STARTED AT               2020-12-08 10:54:00.381
 ***** ** ***  *** **   PROGRAM STARTED ON                               tcopt10
 **    ****   ******    PROGRAM STARTED BY                                hutter
 ***** **    ** ** **   PROGRAM PROCESS ID                                 25681
  **** **  *******  **  PROGRAM STARTED IN /data/hutter/GITHUB/BASIS/MOLOPT/PBE0
                                           /K

 CP2K| version string:                    CP2K version 8.0 (Development Version)
 CP2K| source code revision number:                                  git:afc71fa
 CP2K| cp2kflags: omp libint fftw3 libxc elpa parallel mpi3 scalapack xsmm spgli
 CP2K|            b sirius
 CP2K| is freely available from                            https://www.cp2k.org/
 CP2K| Program compiled at                          Tue Nov 17 10:27:14 CET 2020
 CP2K| Program compiled on                                               tcopt10
 CP2K| Program compiled for                                                local
 CP2K| Data directory path                 /data/hutter/GITHUB/CURRENT/cp2k/data
 CP2K| Input file name                                              opt-dzvp.inp

 GLOBAL| Method name                                              OPTIMIZE_BASIS
 GLOBAL| Project name                                                     molopt
 GLOBAL| Preferred FFT library                                             FFTW3
 GLOBAL| Preferred diagonalization lib.                                     ELPA
 GLOBAL| Run type                                                   ENERGY_FORCE
 GLOBAL| All-to-all communication in single precision                          F
 GLOBAL| FFTs using library dependent lengths                                  F
 GLOBAL| Global print level                                               MEDIUM
 GLOBAL| MPI I/O enabled                                                       T
 GLOBAL| Total number of message passing processes                            24
 GLOBAL| Number of threads for this process                                    1
 GLOBAL| This output is from process                                           0
 GLOBAL| CPU model name                          AMD EPYC 7401 24-Core Processor
 GLOBAL| CPUID                                                              1002

 MEMORY| system memory details [Kb]
 MEMORY|                        rank 0           min           max       average
 MEMORY| MemTotal            263987256     263987256     263987256     263987256
 MEMORY| MemFree             192384328     192384328     192384328     192384328
 MEMORY| Buffers                   148           148           148           148
 MEMORY| Cached               12948600      12948600      12948600      12948600
 MEMORY| Slab                  1267452       1267452       1267452       1267452
 MEMORY| SReclaimable           616852        616852        616852        616852
 MEMORY| MemLikelyFree       205949928     205949928     205949928     205949928


 *** Fundamental physical constants (SI units) ***

 *** Literature: B. J. Mohr and B. N. Taylor,
 ***             CODATA recommended values of the fundamental physical
 ***             constants: 2006, Web Version 5.1
 ***             http://physics.nist.gov/constants

 Speed of light in vacuum [m/s]                             2.99792458000000E+08
 Magnetic constant or permeability of vacuum [N/A**2]       1.25663706143592E-06
 Electric constant or permittivity of vacuum [F/m]          8.85418781762039E-12
 Planck constant (h) [J*s]                                  6.62606896000000E-34
 Planck constant (h-bar) [J*s]                              1.05457162825177E-34
 Elementary charge [C]                                      1.60217648700000E-19
 Electron mass [kg]                                         9.10938215000000E-31
 Electron g factor [ ]                                     -2.00231930436220E+00
 Proton mass [kg]                                           1.67262163700000E-27
 Fine-structure constant                                    7.29735253760000E-03
 Rydberg constant [1/m]                                     1.09737315685270E+07
 Avogadro constant [1/mol]                                  6.02214179000000E+23
 Boltzmann constant [J/K]                                   1.38065040000000E-23
 Atomic mass unit [kg]                                      1.66053878200000E-27
 Bohr radius [m]                                            5.29177208590000E-11

 *** Conversion factors ***

 [u] -> [a.u.]                                              1.82288848426455E+03
 [Angstrom] -> [Bohr] = [a.u.]                              1.88972613288564E+00
 [a.u.] = [Bohr] -> [Angstrom]                              5.29177208590000E-01
 [a.u.] -> [s]                                              2.41888432650478E-17
 [a.u.] -> [fs]                                             2.41888432650478E-02
 [a.u.] -> [J]                                              4.35974393937059E-18
 [a.u.] -> [N]                                              8.23872205491840E-08
 [a.u.] -> [K]                                              3.15774647902944E+05
 [a.u.] -> [kJ/mol]                                         2.62549961709828E+03
 [a.u.] -> [kcal/mol]                                       6.27509468713739E+02
 [a.u.] -> [Pa]                                             2.94210107994716E+13
 [a.u.] -> [bar]                                            2.94210107994716E+08
 [a.u.] -> [atm]                                            2.90362800883016E+08
 [a.u.] -> [eV]                                             2.72113838565563E+01
 [a.u.] -> [Hz]                                             6.57968392072181E+15
 [a.u.] -> [1/cm] (wave numbers)                            2.19474631370540E+05
 [a.u./Bohr**2] -> [1/cm]                                   5.14048714338585E+03
 
 DBCSR| CPU Multiplication driver                                           XSMM
 DBCSR| Multrec recursion limit                                              512
 DBCSR| Multiplication stack size                                           1000
 DBCSR| Maximum elements for images                                    UNLIMITED
 DBCSR| Multiplicative factor virtual images                                   1
 DBCSR| Use multiplication densification                                       T
 DBCSR| Multiplication size stacks                                             3
 DBCSR| Use memory pool for CPU allocation                                     F
 DBCSR| Number of 3D layers                                               SINGLE
 DBCSR| Use MPI memory allocation                                              F
 DBCSR| Use RMA algorithm                                                      F
 DBCSR| Use Communication thread                                               T
 DBCSR| Communication thread load                                             87
 DBCSR| Split modifier for TAS multiplication algorithm                  1.0E+00

 BASOPT| Total number of calculations      5

 BASOPT| Content of basis combination      1
 BASOPT|     Element:    K    Basis set:    DZVP-MOLOPT-PBE0-GTH-Q9
 BASOPT|     Element:    H    Basis set:    DZVP-MOLOPT-PBE0-GTH-Q1
 BASOPT|     Element:    F    Basis set:    DZVP-MOLOPT-PBE0-GTH-Q7
 BASOPT|     Element:   CL    Basis set:    DZVP-MOLOPT-PBE0-GTH-Q7
 BASOPT|     Element:    S    Basis set:    DZVP-MOLOPT-PBE0-GTH-Q6
 BASOPT|     Element:    P    Basis set:    DZVP-MOLOPT-PBE0-GTH-Q5

 BASOPT| Information at iteration number:       0
 BASOPT| Training set | Combination | Rho difference | Condition num. | Time
 BASOPT| -----------------------------------------------------------------------
 BASOPT|        1     |       1     | 0.83729977E-01 | 0.35100342E+02 |    0.017
 BASOPT|        2     |       1     | 0.22533048E+00 | 0.45098115E+02 |    0.025
 BASOPT|        3     |       1     | 0.87273596E-02 | 0.31538241E+02 |    0.012
 BASOPT|        4     |       1     | 0.57880021E-02 | 0.46109952E+02 |    0.010
 BASOPT|        5     |       1     | 0.98112787E-01 | 0.19044744E+02 |    0.007
 BASOPT| -----------------------------------------------------------------------
 BASOPT| Total residuum value: -.63782975E+02

 BASOPT| Information at iteration number:     100
 BASOPT| Training set | Combination | Rho difference | Condition num. | Time
 BASOPT| -----------------------------------------------------------------------
 BASOPT|        1     |       1     | 0.34390261E-01 | 0.38608328E+02 |    1.684
 BASOPT|        2     |       1     | 0.67208692E-01 | 0.42993550E+02 |    2.581
 BASOPT|        3     |       1     | 0.66441430E-02 | 0.20162768E+02 |    1.187
 BASOPT|        4     |       1     | 0.49226198E-02 | 0.21827325E+02 |    0.955
 BASOPT|        5     |       1     | 0.34826835E-01 | 0.13177489E+02 |    0.676
 BASOPT| -----------------------------------------------------------------------
 BASOPT| Total residuum value: -.67942944E+02

 BASOPT| Information at iteration number:     200
 BASOPT| Training set | Combination | Rho difference | Condition num. | Time
 BASOPT| -----------------------------------------------------------------------
 BASOPT|        1     |       1     | 0.26738029E-01 | 0.43859821E+02 |    3.218
 BASOPT|        2     |       1     | 0.51788063E-01 | 0.51579969E+02 |    4.942
 BASOPT|        3     |       1     | 0.58244516E-02 | 0.19933455E+02 |    2.228
 BASOPT|        4     |       1     | 0.43670539E-02 | 0.22485448E+02 |    1.796
 BASOPT|        5     |       1     | 0.26162044E-01 | 0.11248637E+02 |    1.299
 BASOPT| -----------------------------------------------------------------------
 BASOPT| Total residuum value: -.68655479E+02

 BASOPT| Information at iteration number:     300
 BASOPT| Training set | Combination | Rho difference | Condition num. | Time
 BASOPT| -----------------------------------------------------------------------
 BASOPT|        1     |       1     | 0.94373572E-02 | 0.77209109E+02 |    4.732
 BASOPT|        2     |       1     | 0.12833321E-01 | 0.93594800E+02 |    7.208
 BASOPT|        3     |       1     | 0.47059271E-02 | 0.16325133E+02 |    3.236
 BASOPT|        4     |       1     | 0.43387323E-02 | 0.15536989E+02 |    2.623
 BASOPT|        5     |       1     | 0.85586687E-02 | 0.75056737E+01 |    1.885
 BASOPT| -----------------------------------------------------------------------
 BASOPT| Total residuum value: -.70230313E+02

 BASOPT| Information at iteration number:     400
 BASOPT| Training set | Combination | Rho difference | Condition num. | Time
 BASOPT| -----------------------------------------------------------------------
 BASOPT|        1     |       1     | 0.85673051E-02 | 0.88256735E+02 |    6.248
 BASOPT|        2     |       1     | 0.12065954E-01 | 0.10137890E+03 |    9.458
 BASOPT|        3     |       1     | 0.44709286E-02 | 0.18621348E+02 |    4.239
 BASOPT|        4     |       1     | 0.40644078E-02 | 0.17400070E+02 |    3.449
 BASOPT|        5     |       1     | 0.74296713E-02 | 0.76813874E+01 |    2.451
 BASOPT| -----------------------------------------------------------------------
 BASOPT| Total residuum value: -.70310521E+02

 BASOPT| Information at iteration number:     500
 BASOPT| Training set | Combination | Rho difference | Condition num. | Time
 BASOPT| -----------------------------------------------------------------------
 BASOPT|        1     |       1     | 0.80804891E-02 | 0.10995557E+03 |    7.764
 BASOPT|        2     |       1     | 0.99031631E-02 | 0.12506252E+03 |   11.709
 BASOPT|        3     |       1     | 0.44592430E-02 | 0.20536018E+02 |    5.245
 BASOPT|        4     |       1     | 0.40503897E-02 | 0.18777343E+02 |    4.275
 BASOPT|        5     |       1     | 0.66119760E-02 | 0.80057437E+01 |    3.019
 BASOPT| -----------------------------------------------------------------------
 BASOPT| Total residuum value: -.70373231E+02

 BASOPT| Information at iteration number:     600
 BASOPT| Training set | Combination | Rho difference | Condition num. | Time
 BASOPT| -----------------------------------------------------------------------
 BASOPT|        1     |       1     | 0.78499573E-02 | 0.12037728E+03 |    9.282
 BASOPT|        2     |       1     | 0.86395672E-02 | 0.13433806E+03 |   13.960
 BASOPT|        3     |       1     | 0.44343380E-02 | 0.21462666E+02 |    6.250
 BASOPT|        4     |       1     | 0.40127866E-02 | 0.19556313E+02 |    5.102
 BASOPT|        5     |       1     | 0.61619792E-02 | 0.81249673E+01 |    3.585
 BASOPT| -----------------------------------------------------------------------
 BASOPT| Total residuum value: -.70410515E+02

 BASOPT| Information at iteration number:     700
 BASOPT| Training set | Combination | Rho difference | Condition num. | Time
 BASOPT| -----------------------------------------------------------------------
 BASOPT|        1     |       1     | 0.69049662E-02 | 0.11860795E+03 |   10.799
 BASOPT|        2     |       1     | 0.10447166E-01 | 0.13867663E+03 |   16.212
 BASOPT|        3     |       1     | 0.40922739E-02 | 0.24152799E+02 |    7.253
 BASOPT|        4     |       1     | 0.36659416E-02 | 0.21214494E+02 |    5.929
 BASOPT|        5     |       1     | 0.51705168E-02 | 0.82019190E+01 |    4.153
 BASOPT| -----------------------------------------------------------------------
 BASOPT| Total residuum value: -.70453544E+02

 BASOPT| Information at iteration number:     800
 BASOPT| Training set | Combination | Rho difference | Condition num. | Time
 BASOPT| -----------------------------------------------------------------------
 BASOPT|        1     |       1     | 0.65429078E-02 | 0.12380365E+03 |   12.317
 BASOPT|        2     |       1     | 0.70630763E-02 | 0.14771928E+03 |   18.464
 BASOPT|        3     |       1     | 0.41560279E-02 | 0.21097353E+02 |    8.258
 BASOPT|        4     |       1     | 0.37893992E-02 | 0.19141249E+02 |    6.759
 BASOPT|        5     |       1     | 0.50930756E-02 | 0.74172030E+01 |    4.721
 BASOPT| -----------------------------------------------------------------------
 BASOPT| Total residuum value: -.70512864E+02

 BASOPT| Information at iteration number:     900
 BASOPT| Training set | Combination | Rho difference | Condition num. | Time
 BASOPT| -----------------------------------------------------------------------
 BASOPT|        1     |       1     | 0.59971335E-02 | 0.11872461E+03 |   14.117
 BASOPT|        2     |       1     | 0.70011516E-02 | 0.14772053E+03 |   21.081
 BASOPT|        3     |       1     | 0.39969728E-02 | 0.21077643E+02 |    9.439
 BASOPT|        4     |       1     | 0.36291034E-02 | 0.19074441E+02 |    7.738
 BASOPT|        5     |       1     | 0.47062856E-02 | 0.70909079E+01 |    5.405
 BASOPT| -----------------------------------------------------------------------
 BASOPT| Total residuum value: -.70546665E+02

 BASOPT| Information at iteration number:    1000
 BASOPT| Training set | Combination | Rho difference | Condition num. | Time
 BASOPT| -----------------------------------------------------------------------
 BASOPT|        1     |       1     | 0.56463533E-02 | 0.10966033E+03 |   15.680
 BASOPT|        2     |       1     | 0.82917390E-02 | 0.14196431E+03 |   23.458
 BASOPT|        3     |       1     | 0.38041747E-02 | 0.21991786E+02 |   10.507
 BASOPT|        4     |       1     | 0.34118844E-02 | 0.19621367E+02 |    8.591
 BASOPT|        5     |       1     | 0.45285751E-02 | 0.70683014E+01 |    5.983
 BASOPT| -----------------------------------------------------------------------
 BASOPT| Total residuum value: -.70554920E+02

 BASOPT| Information at iteration number:    1100
 BASOPT| Training set | Combination | Rho difference | Condition num. | Time
 BASOPT| -----------------------------------------------------------------------
 BASOPT|        1     |       1     | 0.57055969E-02 | 0.11378664E+03 |   17.198
 BASOPT|        2     |       1     | 0.67436221E-02 | 0.14681157E+03 |   25.734
 BASOPT|        3     |       1     | 0.39013325E-02 | 0.21303964E+02 |   11.515
 BASOPT|        4     |       1     | 0.34850127E-02 | 0.19279877E+02 |    9.428
 BASOPT|        5     |       1     | 0.45985738E-02 | 0.70352122E+01 |    6.556
 BASOPT| -----------------------------------------------------------------------
 BASOPT| Total residuum value: -.70568495E+02

 BASOPT| Information at iteration number:    1200
 BASOPT| Training set | Combination | Rho difference | Condition num. | Time
 BASOPT| -----------------------------------------------------------------------
 BASOPT|        1     |       1     | 0.57550828E-02 | 0.11197633E+03 |   18.710
 BASOPT|        2     |       1     | 0.71073824E-02 | 0.14031665E+03 |   27.991
 BASOPT|        3     |       1     | 0.38560289E-02 | 0.22028985E+02 |   12.523
 BASOPT|        4     |       1     | 0.34074664E-02 | 0.19937035E+02 |   10.264
 BASOPT|        5     |       1     | 0.45439569E-02 | 0.72205496E+01 |    7.125
 BASOPT| -----------------------------------------------------------------------
 BASOPT| Total residuum value: -.70566681E+02

 BASOPT| Information at iteration number:    1300
 BASOPT| Training set | Combination | Rho difference | Condition num. | Time
 BASOPT| -----------------------------------------------------------------------
 BASOPT|        1     |       1     | 0.56394434E-02 | 0.11232979E+03 |   20.222
 BASOPT|        2     |       1     | 0.69800110E-02 | 0.14595209E+03 |   30.248
 BASOPT|        3     |       1     | 0.38681560E-02 | 0.21678353E+02 |   13.531
 BASOPT|        4     |       1     | 0.34415716E-02 | 0.19540872E+02 |   11.101
 BASOPT|        5     |       1     | 0.45460295E-02 | 0.70707172E+01 |    7.694
 BASOPT| -----------------------------------------------------------------------
 BASOPT| Total residuum value: -.70570575E+02

 BASOPT| Information at iteration number:    1400
 BASOPT| Training set | Combination | Rho difference | Condition num. | Time
 BASOPT| -----------------------------------------------------------------------
 BASOPT|        1     |       1     | 0.56537091E-02 | 0.11330447E+03 |   21.732
 BASOPT|        2     |       1     | 0.68549954E-02 | 0.14693456E+03 |   32.508
 BASOPT|        3     |       1     | 0.38801786E-02 | 0.21761284E+02 |   14.540
 BASOPT|        4     |       1     | 0.34505544E-02 | 0.19615238E+02 |   11.937
 BASOPT|        5     |       1     | 0.45411888E-02 | 0.70941722E+01 |    8.264
 BASOPT| -----------------------------------------------------------------------
 BASOPT| Total residuum value: -.70571791E+02

 BASOPT| Information at iteration number:    1500
 BASOPT| Training set | Combination | Rho difference | Condition num. | Time
 BASOPT| -----------------------------------------------------------------------
 BASOPT|        1     |       1     | 0.56638607E-02 | 0.11445301E+03 |   23.246
 BASOPT|        2     |       1     | 0.67060135E-02 | 0.14775725E+03 |   34.763
 BASOPT|        3     |       1     | 0.38924322E-02 | 0.21810945E+02 |   15.549
 BASOPT|        4     |       1     | 0.34616407E-02 | 0.19665245E+02 |   12.775
 BASOPT|        5     |       1     | 0.45292562E-02 | 0.71123153E+01 |    8.834
 BASOPT| -----------------------------------------------------------------------
 BASOPT| Total residuum value: -.70573409E+02

 BASOPT| Information at iteration number:    1600
 BASOPT| Training set | Combination | Rho difference | Condition num. | Time
 BASOPT| -----------------------------------------------------------------------
 BASOPT|        1     |       1     | 0.56282487E-02 | 0.11485605E+03 |   24.916
 BASOPT|        2     |       1     | 0.67476395E-02 | 0.14829817E+03 |   37.302
 BASOPT|        3     |       1     | 0.38849379E-02 | 0.21959069E+02 |   16.697
 BASOPT|        4     |       1     | 0.34556417E-02 | 0.19750471E+02 |   13.713
 BASOPT|        5     |       1     | 0.44801784E-02 | 0.71092709E+01 |    9.464
 BASOPT| -----------------------------------------------------------------------
 BASOPT| Total residuum value: -.70575195E+02

 BASOPT| Information at iteration number:    1700
 BASOPT| Training set | Combination | Rho difference | Condition num. | Time
 BASOPT| -----------------------------------------------------------------------
 BASOPT|        1     |       1     | 0.55979477E-02 | 0.11613261E+03 |   26.678
 BASOPT|        2     |       1     | 0.65822627E-02 | 0.15038286E+03 |   39.810
 BASOPT|        3     |       1     | 0.39012604E-02 | 0.21787592E+02 |   17.798
 BASOPT|        4     |       1     | 0.34911016E-02 | 0.19578482E+02 |   14.595
 BASOPT|        5     |       1     | 0.44591607E-02 | 0.70558792E+01 |   10.106
 BASOPT| -----------------------------------------------------------------------
 BASOPT| Total residuum value: -.70577526E+02

 BASOPT| Information at iteration number:    1800
 BASOPT| Training set | Combination | Rho difference | Condition num. | Time
 BASOPT| -----------------------------------------------------------------------
 BASOPT|        1     |       1     | 0.55613560E-02 | 0.11691571E+03 |   28.390
 BASOPT|        2     |       1     | 0.64901498E-02 | 0.15212838E+03 |   42.117
 BASOPT|        3     |       1     | 0.39095411E-02 | 0.21658145E+02 |   18.823
 BASOPT|        4     |       1     | 0.35152241E-02 | 0.19435965E+02 |   15.441
 BASOPT|        5     |       1     | 0.44393576E-02 | 0.69959603E+01 |   10.688
 BASOPT| -----------------------------------------------------------------------
 BASOPT| Total residuum value: -.70579418E+02

 BASOPT| Information at iteration number:    1900
 BASOPT| Training set | Combination | Rho difference | Condition num. | Time
 BASOPT| -----------------------------------------------------------------------
 BASOPT|        1     |       1     | 0.55316766E-02 | 0.11829590E+03 |   29.905
 BASOPT|        2     |       1     | 0.64219983E-02 | 0.15302632E+03 |   44.397
 BASOPT|        3     |       1     | 0.39069496E-02 | 0.21848440E+02 |   19.840
 BASOPT|        4     |       1     | 0.35092085E-02 | 0.19572224E+02 |   16.280
 BASOPT|        5     |       1     | 0.43733973E-02 | 0.70259629E+01 |   11.256
 BASOPT| -----------------------------------------------------------------------
 BASOPT| Total residuum value: -.70582153E+02

 BASOPT| Information at iteration number:    2000
 BASOPT| Training set | Combination | Rho difference | Condition num. | Time
 BASOPT| -----------------------------------------------------------------------
 BASOPT|        1     |       1     | 0.54812673E-02 | 0.11826212E+03 |   31.423
 BASOPT|        2     |       1     | 0.63578633E-02 | 0.15392792E+03 |   46.674
 BASOPT|        3     |       1     | 0.39046717E-02 | 0.21767147E+02 |   20.855
 BASOPT|        4     |       1     | 0.35094400E-02 | 0.19488138E+02 |   17.119
 BASOPT|        5     |       1     | 0.43461692E-02 | 0.69729861E+01 |   11.824
 BASOPT| -----------------------------------------------------------------------
 BASOPT| Total residuum value: -.70584718E+02

 BASOPT| Information at iteration number:    2100
 BASOPT| Training set | Combination | Rho difference | Condition num. | Time
 BASOPT| -----------------------------------------------------------------------
 BASOPT|        1     |       1     | 0.54719017E-02 | 0.11795211E+03 |   32.938
 BASOPT|        2     |       1     | 0.63136629E-02 | 0.15337473E+03 |   48.953
 BASOPT|        3     |       1     | 0.39019006E-02 | 0.21837059E+02 |   21.872
 BASOPT|        4     |       1     | 0.34995870E-02 | 0.19557348E+02 |   17.959
 BASOPT|        5     |       1     | 0.43292384E-02 | 0.69820946E+01 |   12.391
 BASOPT| -----------------------------------------------------------------------
 BASOPT| Total residuum value: -.70586401E+02

 BASOPT| Information at iteration number:    2200
 BASOPT| Training set | Combination | Rho difference | Condition num. | Time
 BASOPT| -----------------------------------------------------------------------
 BASOPT|        1     |       1     | 0.54510824E-02 | 0.11864514E+03 |   34.453
 BASOPT|        2     |       1     | 0.61340009E-02 | 0.15528173E+03 |   51.235
 BASOPT|        3     |       1     | 0.39098042E-02 | 0.21928428E+02 |   22.890
 BASOPT|        4     |       1     | 0.34929177E-02 | 0.19630442E+02 |   18.799
 BASOPT|        5     |       1     | 0.43110220E-02 | 0.69755973E+01 |   12.960
 BASOPT| -----------------------------------------------------------------------
 BASOPT| Total residuum value: -.70589923E+02

 BASOPT| Information at iteration number:    2300
 BASOPT| Training set | Combination | Rho difference | Condition num. | Time
 BASOPT| -----------------------------------------------------------------------
 BASOPT|        1     |       1     | 0.54307500E-02 | 0.11980090E+03 |   36.158
 BASOPT|        2     |       1     | 0.60122576E-02 | 0.15775829E+03 |   53.716
 BASOPT|        3     |       1     | 0.39155872E-02 | 0.22073737E+02 |   24.021
 BASOPT|        4     |       1     | 0.34890072E-02 | 0.19727239E+02 |   19.722
 BASOPT|        5     |       1     | 0.42811863E-02 | 0.69899856E+01 |   13.600
 BASOPT| -----------------------------------------------------------------------
 BASOPT| Total residuum value: -.70592592E+02

 BASOPT| Information at iteration number:    2400
 BASOPT| Training set | Combination | Rho difference | Condition num. | Time
 BASOPT| -----------------------------------------------------------------------
 BASOPT|        1     |       1     | 0.54296751E-02 | 0.12029498E+03 |   37.933
 BASOPT|        2     |       1     | 0.59895977E-02 | 0.15785509E+03 |   56.358
 BASOPT|        3     |       1     | 0.39096399E-02 | 0.22313529E+02 |   25.230
 BASOPT|        4     |       1     | 0.34661584E-02 | 0.19926421E+02 |   20.704
 BASOPT|        5     |       1     | 0.42500841E-02 | 0.70312069E+01 |   14.217
 BASOPT| -----------------------------------------------------------------------
 BASOPT| Total residuum value: -.70594090E+02

 BASOPT| Information at iteration number:    2500
 BASOPT| Training set | Combination | Rho difference | Condition num. | Time
 BASOPT| -----------------------------------------------------------------------
 BASOPT|        1     |       1     | 0.54187933E-02 | 0.12047479E+03 |   39.452
 BASOPT|        2     |       1     | 0.58325142E-02 | 0.15918065E+03 |   58.664
 BASOPT|        3     |       1     | 0.39167197E-02 | 0.22187690E+02 |   26.278
 BASOPT|        4     |       1     | 0.34637920E-02 | 0.19833166E+02 |   21.578
 BASOPT|        5     |       1     | 0.42600105E-02 | 0.69855077E+01 |   14.816
 BASOPT| -----------------------------------------------------------------------
 BASOPT| Total residuum value: -.70596148E+02

 BASOPT| Information at iteration number:    2600
 BASOPT| Training set | Combination | Rho difference | Condition num. | Time
 BASOPT| -----------------------------------------------------------------------
 BASOPT|        1     |       1     | 0.53924512E-02 | 0.11979596E+03 |   40.970
 BASOPT|        2     |       1     | 0.58581138E-02 | 0.15860879E+03 |   60.953
 BASOPT|        3     |       1     | 0.39019514E-02 | 0.22330111E+02 |   27.294
 BASOPT|        4     |       1     | 0.34321469E-02 | 0.19944899E+02 |   22.416
 BASOPT|        5     |       1     | 0.42240596E-02 | 0.69856076E+01 |   15.384
 BASOPT| -----------------------------------------------------------------------
 BASOPT| Total residuum value: -.70598130E+02

 BASOPT| Information at iteration number:    2700
 BASOPT| Training set | Combination | Rho difference | Condition num. | Time
 BASOPT| -----------------------------------------------------------------------
 BASOPT|        1     |       1     | 0.53845002E-02 | 0.11954866E+03 |   42.490
 BASOPT|        2     |       1     | 0.57838401E-02 | 0.15867756E+03 |   63.240
 BASOPT|        3     |       1     | 0.39042639E-02 | 0.22239561E+02 |   28.311
 BASOPT|        4     |       1     | 0.34347823E-02 | 0.19867821E+02 |   23.254
 BASOPT|        5     |       1     | 0.42279399E-02 | 0.69589552E+01 |   15.953
 BASOPT| -----------------------------------------------------------------------
 BASOPT| Total residuum value: -.70599457E+02

 BASOPT| Information at iteration number:    2800
 BASOPT| Training set | Combination | Rho difference | Condition num. | Time
 BASOPT| -----------------------------------------------------------------------
 BASOPT|        1     |       1     | 0.53414838E-02 | 0.11960633E+03 |   44.007
 BASOPT|        2     |       1     | 0.56981786E-02 | 0.15972570E+03 |   65.523
 BASOPT|        3     |       1     | 0.39052370E-02 | 0.22109610E+02 |   29.328
 BASOPT|        4     |       1     | 0.34482519E-02 | 0.19709257E+02 |   24.092
 BASOPT|        5     |       1     | 0.41984644E-02 | 0.69112240E+01 |   16.522
 BASOPT| -----------------------------------------------------------------------
 BASOPT| Total residuum value: -.70602757E+02

 BASOPT| Information at iteration number:    2900
 BASOPT| Training set | Combination | Rho difference | Condition num. | Time
 BASOPT| -----------------------------------------------------------------------
 BASOPT|        1     |       1     | 0.53113465E-02 | 0.12059663E+03 |   45.804
 BASOPT|        2     |       1     | 0.56492617E-02 | 0.16137880E+03 |   68.197
 BASOPT|        3     |       1     | 0.39071755E-02 | 0.22133159E+02 |   30.477
 BASOPT|        4     |       1     | 0.34593639E-02 | 0.19672101E+02 |   25.073
 BASOPT|        5     |       1     | 0.41539189E-02 | 0.68968515E+01 |   17.184
 BASOPT| -----------------------------------------------------------------------
 BASOPT| Total residuum value: -.70605410E+02

 BASOPT| Information at iteration number:    3000
 BASOPT| Training set | Combination | Rho difference | Condition num. | Time
 BASOPT| -----------------------------------------------------------------------
 BASOPT|        1     |       1     | 0.53048848E-02 | 0.12192739E+03 |   47.500
 BASOPT|        2     |       1     | 0.56361254E-02 | 0.16281154E+03 |   70.884
 BASOPT|        3     |       1     | 0.39085082E-02 | 0.22311503E+02 |   31.684
 BASOPT|        4     |       1     | 0.34607308E-02 | 0.19773107E+02 |   25.949
 BASOPT|        5     |       1     | 0.41155412E-02 | 0.69220812E+01 |   17.778
 BASOPT| -----------------------------------------------------------------------
 BASOPT| Total residuum value: -.70606797E+02

 BASOPT| Information at iteration number:    3100
 BASOPT| Training set | Combination | Rho difference | Condition num. | Time
 BASOPT| -----------------------------------------------------------------------
 BASOPT|        1     |       1     | 0.52836501E-02 | 0.12166707E+03 |   49.020
 BASOPT|        2     |       1     | 0.56095749E-02 | 0.16339435E+03 |   73.185
 BASOPT|        3     |       1     | 0.39108747E-02 | 0.22165204E+02 |   32.722
 BASOPT|        4     |       1     | 0.34743248E-02 | 0.19625292E+02 |   26.787
 BASOPT|        5     |       1     | 0.41144163E-02 | 0.68805075E+01 |   18.347
 BASOPT| -----------------------------------------------------------------------
 BASOPT| Total residuum value: -.70607708E+02

 BASOPT| Information at iteration number:    3200
 BASOPT| Training set | Combination | Rho difference | Condition num. | Time
 BASOPT| -----------------------------------------------------------------------
 BASOPT|        1     |       1     | 0.52929789E-02 | 0.12227271E+03 |   50.538
 BASOPT|        2     |       1     | 0.55021661E-02 | 0.16429257E+03 |   75.480
 BASOPT|        3     |       1     | 0.39215813E-02 | 0.22200611E+02 |   33.744
 BASOPT|        4     |       1     | 0.34846930E-02 | 0.19640577E+02 |   27.621
 BASOPT|        5     |       1     | 0.41168912E-02 | 0.68863406E+01 |   18.916
 BASOPT| -----------------------------------------------------------------------
 BASOPT| Total residuum value: -.70609025E+02

 BASOPT| Information at iteration number:    3300
 BASOPT| Training set | Combination | Rho difference | Condition num. | Time
 BASOPT| -----------------------------------------------------------------------
 BASOPT|        1     |       1     | 0.52757145E-02 | 0.12300295E+03 |   52.059
 BASOPT|        2     |       1     | 0.54975286E-02 | 0.16548631E+03 |   77.774
 BASOPT|        3     |       1     | 0.39215808E-02 | 0.22323635E+02 |   34.765
 BASOPT|        4     |       1     | 0.34858316E-02 | 0.19699632E+02 |   28.457
 BASOPT|        5     |       1     | 0.40868612E-02 | 0.68947188E+01 |   19.485
 BASOPT| -----------------------------------------------------------------------
 BASOPT| Total residuum value: -.70610262E+02

 BASOPT| Information at iteration number:    3400
 BASOPT| Training set | Combination | Rho difference | Condition num. | Time
 BASOPT| -----------------------------------------------------------------------
 BASOPT|        1     |       1     | 0.52795839E-02 | 0.12412893E+03 |   53.577
 BASOPT|        2     |       1     | 0.53432684E-02 | 0.16768288E+03 |   80.069
 BASOPT|        3     |       1     | 0.39379320E-02 | 0.22200086E+02 |   35.789
 BASOPT|        4     |       1     | 0.35044524E-02 | 0.19595311E+02 |   29.292
 BASOPT|        5     |       1     | 0.41083505E-02 | 0.68643529E+01 |   20.053
 BASOPT| -----------------------------------------------------------------------
 BASOPT| Total residuum value: -.70611133E+02

 BASOPT| Information at iteration number:    3500
 BASOPT| Training set | Combination | Rho difference | Condition num. | Time
 BASOPT| -----------------------------------------------------------------------
 BASOPT|        1     |       1     | 0.52512359E-02 | 0.12332868E+03 |   55.132
 BASOPT|        2     |       1     | 0.54283745E-02 | 0.16700518E+03 |   82.425
 BASOPT|        3     |       1     | 0.39243420E-02 | 0.22298799E+02 |   36.843
 BASOPT|        4     |       1     | 0.34881373E-02 | 0.19647976E+02 |   30.145
 BASOPT|        5     |       1     | 0.40730428E-02 | 0.68836531E+01 |   20.630
 BASOPT| -----------------------------------------------------------------------
 BASOPT| Total residuum value: -.70612136E+02

 BASOPT| Information at iteration number:    3600
 BASOPT| Training set | Combination | Rho difference | Condition num. | Time
 BASOPT| -----------------------------------------------------------------------
 BASOPT|        1     |       1     | 0.52529281E-02 | 0.12353035E+03 |   56.803
 BASOPT|        2     |       1     | 0.53415791E-02 | 0.16772364E+03 |   84.892
 BASOPT|        3     |       1     | 0.39279937E-02 | 0.22356851E+02 |   37.963
 BASOPT|        4     |       1     | 0.34822509E-02 | 0.19680498E+02 |   31.090
 BASOPT|        5     |       1     | 0.40810206E-02 | 0.68957868E+01 |   21.273
 BASOPT| -----------------------------------------------------------------------
 BASOPT| Total residuum value: -.70613503E+02

 BASOPT| Information at iteration number:    3700
 BASOPT| Training set | Combination | Rho difference | Condition num. | Time
 BASOPT| -----------------------------------------------------------------------
 BASOPT|        1     |       1     | 0.52423106E-02 | 0.12387069E+03 |   58.323
 BASOPT|        2     |       1     | 0.53342320E-02 | 0.16855535E+03 |   87.188
 BASOPT|        3     |       1     | 0.39271819E-02 | 0.22413679E+02 |   38.988
 BASOPT|        4     |       1     | 0.34793645E-02 | 0.19702767E+02 |   31.925
 BASOPT|        5     |       1     | 0.40693378E-02 | 0.69055643E+01 |   21.842
 BASOPT| -----------------------------------------------------------------------
 BASOPT| Total residuum value: -.70614161E+02

 BASOPT| Information at iteration number:    3800
 BASOPT| Training set | Combination | Rho difference | Condition num. | Time
 BASOPT| -----------------------------------------------------------------------
 BASOPT|        1     |       1     | 0.52395585E-02 | 0.12336592E+03 |   59.839
 BASOPT|        2     |       1     | 0.53196604E-02 | 0.16845045E+03 |   89.478
 BASOPT|        3     |       1     | 0.39280506E-02 | 0.22378783E+02 |   40.011
 BASOPT|        4     |       1     | 0.34836271E-02 | 0.19661831E+02 |   32.760
 BASOPT|        5     |       1     | 0.40749430E-02 | 0.69027524E+01 |   22.410
 BASOPT| -----------------------------------------------------------------------
 BASOPT| Total residuum value: -.70614781E+02

 BASOPT| Information at iteration number:    3900
 BASOPT| Training set | Combination | Rho difference | Condition num. | Time
 BASOPT| -----------------------------------------------------------------------
 BASOPT|        1     |       1     | 0.51999050E-02 | 0.12254797E+03 |   61.358
 BASOPT|        2     |       1     | 0.54734513E-02 | 0.16792775E+03 |   91.773
 BASOPT|        3     |       1     | 0.39090260E-02 | 0.22485534E+02 |   41.035
 BASOPT|        4     |       1     | 0.34618106E-02 | 0.19710755E+02 |   33.596
 BASOPT|        5     |       1     | 0.40211112E-02 | 0.69180080E+01 |   22.979
 BASOPT| -----------------------------------------------------------------------
 BASOPT| Total residuum value: -.70615450E+02

 BASOPT| Information at iteration number:    4000
 BASOPT| Training set | Combination | Rho difference | Condition num. | Time
 BASOPT| -----------------------------------------------------------------------
 BASOPT|        1     |       1     | 0.52148984E-02 | 0.12323893E+03 |   62.876
 BASOPT|        2     |       1     | 0.53748628E-02 | 0.16888207E+03 |   94.068
 BASOPT|        3     |       1     | 0.39180223E-02 | 0.22458814E+02 |   42.062
 BASOPT|        4     |       1     | 0.34643859E-02 | 0.19698811E+02 |   34.433
 BASOPT|        5     |       1     | 0.40299059E-02 | 0.69139365E+01 |   23.548
 BASOPT| -----------------------------------------------------------------------
 BASOPT| Total residuum value: -.70616157E+02

 BASOPT| Information at iteration number:    4100
 BASOPT| Training set | Combination | Rho difference | Condition num. | Time
 BASOPT| -----------------------------------------------------------------------
 BASOPT|        1     |       1     | 0.52694691E-02 | 0.12425059E+03 |   64.395
 BASOPT|        2     |       1     | 0.50388194E-02 | 0.17063368E+03 |   96.368
 BASOPT|        3     |       1     | 0.39501169E-02 | 0.22129214E+02 |   43.088
 BASOPT|        4     |       1     | 0.34893865E-02 | 0.19484281E+02 |   35.269
 BASOPT|        5     |       1     | 0.41327814E-02 | 0.68534138E+01 |   24.118
 BASOPT| -----------------------------------------------------------------------
 BASOPT| Total residuum value: -.70616617E+02

 BASOPT| Information at iteration number:    4200
 BASOPT| Training set | Combination | Rho difference | Condition num. | Time
 BASOPT| -----------------------------------------------------------------------
 BASOPT|        1     |       1     | 0.52291181E-02 | 0.12369303E+03 |   65.913
 BASOPT|        2     |       1     | 0.51908785E-02 | 0.17021619E+03 |   98.661
 BASOPT|        3     |       1     | 0.39300281E-02 | 0.22352596E+02 |   44.112
 BASOPT|        4     |       1     | 0.34646013E-02 | 0.19619116E+02 |   36.105
 BASOPT|        5     |       1     | 0.40699570E-02 | 0.68929147E+01 |   24.687
 BASOPT| -----------------------------------------------------------------------
 BASOPT| Total residuum value: -.70617427E+02

 BASOPT| Information at iteration number:    4300
 BASOPT| Training set | Combination | Rho difference | Condition num. | Time
 BASOPT| -----------------------------------------------------------------------
 BASOPT|        1     |       1     | 0.52302819E-02 | 0.12431945E+03 |   67.432
 BASOPT|        2     |       1     | 0.52015348E-02 | 0.17068370E+03 |  100.956
 BASOPT|        3     |       1     | 0.39264364E-02 | 0.22508687E+02 |   45.139
 BASOPT|        4     |       1     | 0.34501593E-02 | 0.19734023E+02 |   36.941
 BASOPT|        5     |       1     | 0.40500695E-02 | 0.69163449E+01 |   25.258
 BASOPT| -----------------------------------------------------------------------
 BASOPT| Total residuum value: -.70617825E+02

 BASOPT| Information at iteration number:    4400
 BASOPT| Training set | Combination | Rho difference | Condition num. | Time
 BASOPT| -----------------------------------------------------------------------
 BASOPT|        1     |       1     | 0.52236177E-02 | 0.12465523E+03 |   68.951
 BASOPT|        2     |       1     | 0.51803487E-02 | 0.17169393E+03 |  103.250
 BASOPT|        3     |       1     | 0.39262059E-02 | 0.22523427E+02 |   46.164
 BASOPT|        4     |       1     | 0.34472152E-02 | 0.19725194E+02 |   37.778
 BASOPT|        5     |       1     | 0.40483185E-02 | 0.69229964E+01 |   25.829
 BASOPT| -----------------------------------------------------------------------
 BASOPT| Total residuum value: -.70618385E+02

 BASOPT| Information at iteration number:    4500
 BASOPT| Training set | Combination | Rho difference | Condition num. | Time
 BASOPT| -----------------------------------------------------------------------
 BASOPT|        1     |       1     | 0.52075612E-02 | 0.12384707E+03 |   70.471
 BASOPT|        2     |       1     | 0.53496121E-02 | 0.17031755E+03 |  105.546
 BASOPT|        3     |       1     | 0.39071912E-02 | 0.22740730E+02 |   47.191
 BASOPT|        4     |       1     | 0.34230775E-02 | 0.19871220E+02 |   38.615
 BASOPT|        5     |       1     | 0.39991862E-02 | 0.69646891E+01 |   26.400
 BASOPT| -----------------------------------------------------------------------
 BASOPT| Total residuum value: -.70618610E+02

 BASOPT| Information at iteration number:    4600
 BASOPT| Training set | Combination | Rho difference | Condition num. | Time
 BASOPT| -----------------------------------------------------------------------
 BASOPT|        1     |       1     | 0.52260228E-02 | 0.12516979E+03 |   71.991
 BASOPT|        2     |       1     | 0.51210175E-02 | 0.17310051E+03 |  107.843
 BASOPT|        3     |       1     | 0.39295957E-02 | 0.22459311E+02 |   48.218
 BASOPT|        4     |       1     | 0.34501687E-02 | 0.19657540E+02 |   39.451
 BASOPT|        5     |       1     | 0.40572502E-02 | 0.69173107E+01 |   26.972
 BASOPT| -----------------------------------------------------------------------
 BASOPT| Total residuum value: -.70619228E+02

 BASOPT| Information at iteration number:    4700
 BASOPT| Training set | Combination | Rho difference | Condition num. | Time
 BASOPT| -----------------------------------------------------------------------
 BASOPT|        1     |       1     | 0.51909593E-02 | 0.12467744E+03 |   73.514
 BASOPT|        2     |       1     | 0.52331202E-02 | 0.17323556E+03 |  110.141
 BASOPT|        3     |       1     | 0.39174620E-02 | 0.22487575E+02 |   49.245
 BASOPT|        4     |       1     | 0.34441802E-02 | 0.19639412E+02 |   40.289
 BASOPT|        5     |       1     | 0.40184095E-02 | 0.69255087E+01 |   27.544
 BASOPT| -----------------------------------------------------------------------
 BASOPT| Total residuum value: -.70619638E+02

 BASOPT| Information at iteration number:    4800
 BASOPT| Training set | Combination | Rho difference | Condition num. | Time
 BASOPT| -----------------------------------------------------------------------
 BASOPT|        1     |       1     | 0.52136294E-02 | 0.12511820E+03 |   75.040
 BASOPT|        2     |       1     | 0.51750740E-02 | 0.17291246E+03 |  112.436
 BASOPT|        3     |       1     | 0.39226675E-02 | 0.22505371E+02 |   50.270
 BASOPT|        4     |       1     | 0.34425348E-02 | 0.19668300E+02 |   41.127
 BASOPT|        5     |       1     | 0.40222083E-02 | 0.69205261E+01 |   28.116
 BASOPT| -----------------------------------------------------------------------
 BASOPT| Total residuum value: -.70620000E+02

 BASOPT| Information at iteration number:    4900
 BASOPT| Training set | Combination | Rho difference | Condition num. | Time
 BASOPT| -----------------------------------------------------------------------
 BASOPT|        1     |       1     | 0.51924847E-02 | 0.12502035E+03 |   76.566
 BASOPT|        2     |       1     | 0.52456116E-02 | 0.17339069E+03 |  114.730
 BASOPT|        3     |       1     | 0.39148379E-02 | 0.22569218E+02 |   51.295
 BASOPT|        4     |       1     | 0.34345092E-02 | 0.19689104E+02 |   41.965
 BASOPT|        5     |       1     | 0.39921121E-02 | 0.69283490E+01 |   28.690
 BASOPT| -----------------------------------------------------------------------
 BASOPT| Total residuum value: -.70620484E+02

 BASOPT| Information at iteration number:    5000
 BASOPT| Training set | Combination | Rho difference | Condition num. | Time
 BASOPT| -----------------------------------------------------------------------
 BASOPT|        1     |       1     | 0.52139941E-02 | 0.12473528E+03 |   78.093
 BASOPT|        2     |       1     | 0.51438775E-02 | 0.17300352E+03 |  117.025
 BASOPT|        3     |       1     | 0.39239632E-02 | 0.22412414E+02 |   52.322
 BASOPT|        4     |       1     | 0.34411809E-02 | 0.19593223E+02 |   42.803
 BASOPT|        5     |       1     | 0.40259637E-02 | 0.68936630E+01 |   29.263
 BASOPT| -----------------------------------------------------------------------
 BASOPT| Total residuum value: -.70620793E+02

 BASOPT| Information at iteration number:    5100
 BASOPT| Training set | Combination | Rho difference | Condition num. | Time
 BASOPT| -----------------------------------------------------------------------
 BASOPT|        1     |       1     | 0.52279923E-02 | 0.12556917E+03 |   79.621
 BASOPT|        2     |       1     | 0.50597004E-02 | 0.17443568E+03 |  119.323
 BASOPT|        3     |       1     | 0.39331575E-02 | 0.22374033E+02 |   53.347
 BASOPT|        4     |       1     | 0.34474839E-02 | 0.19565404E+02 |   43.641
 BASOPT|        5     |       1     | 0.40454831E-02 | 0.68903807E+01 |   29.835
 BASOPT| -----------------------------------------------------------------------
 BASOPT| Total residuum value: -.70620955E+02

 BASOPT| Information at iteration number:    5200
 BASOPT| Training set | Combination | Rho difference | Condition num. | Time
 BASOPT| -----------------------------------------------------------------------
 BASOPT|        1     |       1     | 0.52104596E-02 | 0.12469442E+03 |   81.149
 BASOPT|        2     |       1     | 0.51726695E-02 | 0.17407217E+03 |  121.627
 BASOPT|        3     |       1     | 0.39191420E-02 | 0.22526474E+02 |   54.373
 BASOPT|        4     |       1     | 0.34224742E-02 | 0.19649416E+02 |   44.479
 BASOPT|        5     |       1     | 0.40013674E-02 | 0.69366139E+01 |   30.408
 BASOPT| -----------------------------------------------------------------------
 BASOPT| Total residuum value: -.70621915E+02

 BASOPT| Information at iteration number:    5300
 BASOPT| Training set | Combination | Rho difference | Condition num. | Time
 BASOPT| -----------------------------------------------------------------------
 BASOPT|        1     |       1     | 0.52047235E-02 | 0.12463342E+03 |   82.679
 BASOPT|        2     |       1     | 0.51470778E-02 | 0.17460376E+03 |  123.926
 BASOPT|        3     |       1     | 0.39216228E-02 | 0.22431484E+02 |   55.398
 BASOPT|        4     |       1     | 0.34278171E-02 | 0.19568472E+02 |   45.318
 BASOPT|        5     |       1     | 0.40071219E-02 | 0.69226923E+01 |   30.981
 BASOPT| -----------------------------------------------------------------------
 BASOPT| Total residuum value: -.70622197E+02

 BASOPT| Information at iteration number:    5400
 BASOPT| Training set | Combination | Rho difference | Condition num. | Time
 BASOPT| -----------------------------------------------------------------------
 BASOPT|        1     |       1     | 0.52160439E-02 | 0.12410027E+03 |   84.205
 BASOPT|        2     |       1     | 0.51590048E-02 | 0.17346075E+03 |  126.234
 BASOPT|        3     |       1     | 0.39199322E-02 | 0.22456800E+02 |   56.424
 BASOPT|        4     |       1     | 0.34217989E-02 | 0.19595725E+02 |   46.157
 BASOPT|        5     |       1     | 0.40059032E-02 | 0.69270691E+01 |   31.554
 BASOPT| -----------------------------------------------------------------------
 BASOPT| Total residuum value: -.70622366E+02

 BASOPT| Information at iteration number:    5500
 BASOPT| Training set | Combination | Rho difference | Condition num. | Time
 BASOPT| -----------------------------------------------------------------------
 BASOPT|        1     |       1     | 0.51970689E-02 | 0.12395587E+03 |   85.729
 BASOPT|        2     |       1     | 0.51459833E-02 | 0.17444254E+03 |  128.543
 BASOPT|        3     |       1     | 0.39210561E-02 | 0.22337166E+02 |   57.452
 BASOPT|        4     |       1     | 0.34305190E-02 | 0.19480083E+02 |   46.995
 BASOPT|        5     |       1     | 0.40126148E-02 | 0.69127927E+01 |   32.127
 BASOPT| -----------------------------------------------------------------------
 BASOPT| Total residuum value: -.70622589E+02

 BASOPT| Information at iteration number:    5600
 BASOPT| Training set | Combination | Rho difference | Condition num. | Time
 BASOPT| -----------------------------------------------------------------------
 BASOPT|        1     |       1     | 0.52294306E-02 | 0.12460670E+03 |   87.256
 BASOPT|        2     |       1     | 0.50333134E-02 | 0.17518077E+03 |  130.843
 BASOPT|        3     |       1     | 0.39335745E-02 | 0.22313419E+02 |   58.478
 BASOPT|        4     |       1     | 0.34372477E-02 | 0.19477060E+02 |   47.834
 BASOPT|        5     |       1     | 0.40419865E-02 | 0.69037608E+01 |   32.701
 BASOPT| -----------------------------------------------------------------------
 BASOPT| Total residuum value: -.70622858E+02

 BASOPT| Information at iteration number:    5700
 BASOPT| Training set | Combination | Rho difference | Condition num. | Time
 BASOPT| -----------------------------------------------------------------------
 BASOPT|        1     |       1     | 0.52000301E-02 | 0.12350410E+03 |   88.780
 BASOPT|        2     |       1     | 0.52514868E-02 | 0.17327381E+03 |  133.141
 BASOPT|        3     |       1     | 0.39104755E-02 | 0.22572446E+02 |   59.505
 BASOPT|        4     |       1     | 0.34130147E-02 | 0.19644918E+02 |   48.672
 BASOPT|        5     |       1     | 0.39715442E-02 | 0.69458404E+01 |   33.275
 BASOPT| -----------------------------------------------------------------------
 BASOPT| Total residuum value: -.70623203E+02

 BASOPT| Information at iteration number:    5800
 BASOPT| Training set | Combination | Rho difference | Condition num. | Time
 BASOPT| -----------------------------------------------------------------------
 BASOPT|        1     |       1     | 0.51934635E-02 | 0.12358882E+03 |   90.307
 BASOPT|        2     |       1     | 0.52300977E-02 | 0.17366342E+03 |  135.441
 BASOPT|        3     |       1     | 0.39120717E-02 | 0.22500780E+02 |   60.533
 BASOPT|        4     |       1     | 0.34201810E-02 | 0.19579630E+02 |   49.512
 BASOPT|        5     |       1     | 0.39724816E-02 | 0.69265751E+01 |   33.847
 BASOPT| -----------------------------------------------------------------------
 BASOPT| Total residuum value: -.70623554E+02

 BASOPT| Information at iteration number:    5900
 BASOPT| Training set | Combination | Rho difference | Condition num. | Time
 BASOPT| -----------------------------------------------------------------------
 BASOPT|        1     |       1     | 0.52184320E-02 | 0.12375782E+03 |   91.831
 BASOPT|        2     |       1     | 0.50911584E-02 | 0.17403919E+03 |  137.742
 BASOPT|        3     |       1     | 0.39260810E-02 | 0.22310292E+02 |   61.560
 BASOPT|        4     |       1     | 0.34366221E-02 | 0.19448207E+02 |   50.351
 BASOPT|        5     |       1     | 0.40158514E-02 | 0.68885230E+01 |   34.421
 BASOPT| -----------------------------------------------------------------------
 BASOPT| Total residuum value: -.70623922E+02

 BASOPT| Information at iteration number:    6000
 BASOPT| Training set | Combination | Rho difference | Condition num. | Time
 BASOPT| -----------------------------------------------------------------------
 BASOPT|        1     |       1     | 0.51991675E-02 | 0.12379089E+03 |   93.358
 BASOPT|        2     |       1     | 0.50991016E-02 | 0.17494770E+03 |  140.042
 BASOPT|        3     |       1     | 0.39235565E-02 | 0.22256236E+02 |   62.587
 BASOPT|        4     |       1     | 0.34370072E-02 | 0.19391331E+02 |   51.191
 BASOPT|        5     |       1     | 0.40127236E-02 | 0.68817733E+01 |   34.995
 BASOPT| -----------------------------------------------------------------------
 BASOPT| Total residuum value: -.70624159E+02

 BASOPT| Information at iteration number:    6100
 BASOPT| Training set | Combination | Rho difference | Condition num. | Time
 BASOPT| -----------------------------------------------------------------------
 BASOPT|        1     |       1     | 0.51991418E-02 | 0.12322834E+03 |   94.885
 BASOPT|        2     |       1     | 0.51856525E-02 | 0.17378822E+03 |  142.347
 BASOPT|        3     |       1     | 0.39116463E-02 | 0.22410327E+02 |   63.615
 BASOPT|        4     |       1     | 0.34139182E-02 | 0.19515688E+02 |   52.030
 BASOPT|        5     |       1     | 0.39864756E-02 | 0.69130819E+01 |   35.568
 BASOPT| -----------------------------------------------------------------------
 BASOPT| Total residuum value: -.70624467E+02

 BASOPT| Information at iteration number:    6200
 BASOPT| Training set | Combination | Rho difference | Condition num. | Time
 BASOPT| -----------------------------------------------------------------------
 BASOPT|        1     |       1     | 0.52097430E-02 | 0.12329471E+03 |   96.411
 BASOPT|        2     |       1     | 0.51143261E-02 | 0.17414982E+03 |  144.647
 BASOPT|        3     |       1     | 0.39179878E-02 | 0.22307437E+02 |   64.642
 BASOPT|        4     |       1     | 0.34186331E-02 | 0.19447296E+02 |   52.870
 BASOPT|        5     |       1     | 0.40087684E-02 | 0.68956371E+01 |   36.143
 BASOPT| -----------------------------------------------------------------------
 BASOPT| Total residuum value: -.70624679E+02

 BASOPT| Information at iteration number:    6300
 BASOPT| Training set | Combination | Rho difference | Condition num. | Time
 BASOPT| -----------------------------------------------------------------------
 BASOPT|        1     |       1     | 0.52038909E-02 | 0.12235886E+03 |   97.933
 BASOPT|        2     |       1     | 0.51975223E-02 | 0.17269350E+03 |  146.948
 BASOPT|        3     |       1     | 0.39072336E-02 | 0.22367792E+02 |   65.670
 BASOPT|        4     |       1     | 0.34023724E-02 | 0.19494409E+02 |   53.710
 BASOPT|        5     |       1     | 0.39896060E-02 | 0.69066780E+01 |   36.716
 BASOPT| -----------------------------------------------------------------------
 BASOPT| Total residuum value: -.70624871E+02

 BASOPT| Information at iteration number:    6400
 BASOPT| Training set | Combination | Rho difference | Condition num. | Time
 BASOPT| -----------------------------------------------------------------------
 BASOPT|        1     |       1     | 0.52057611E-02 | 0.12265124E+03 |   99.457
 BASOPT|        2     |       1     | 0.50987819E-02 | 0.17361376E+03 |  149.252
 BASOPT|        3     |       1     | 0.39142741E-02 | 0.22177584E+02 |   66.697
 BASOPT|        4     |       1     | 0.34116712E-02 | 0.19353911E+02 |   54.549
 BASOPT|        5     |       1     | 0.40179622E-02 | 0.68727374E+01 |   37.290
 BASOPT| -----------------------------------------------------------------------
 BASOPT| Total residuum value: -.70625256E+02

 BASOPT| Information at iteration number:    6500
 BASOPT| Training set | Combination | Rho difference | Condition num. | Time
 BASOPT| -----------------------------------------------------------------------
 BASOPT|        1     |       1     | 0.52195909E-02 | 0.12277598E+03 |  100.983
 BASOPT|        2     |       1     | 0.50839593E-02 | 0.17344191E+03 |  151.556
 BASOPT|        3     |       1     | 0.39134589E-02 | 0.22254288E+02 |   67.724
 BASOPT|        4     |       1     | 0.33964559E-02 | 0.19426782E+02 |   55.389
 BASOPT|        5     |       1     | 0.40142819E-02 | 0.68732680E+01 |   37.863
 BASOPT| -----------------------------------------------------------------------
 BASOPT| Total residuum value: -.70625610E+02

 BASOPT| Information at iteration number:    6600
 BASOPT| Training set | Combination | Rho difference | Condition num. | Time
 BASOPT| -----------------------------------------------------------------------
 BASOPT|        1     |       1     | 0.52095847E-02 | 0.12306041E+03 |  102.511
 BASOPT|        2     |       1     | 0.50466428E-02 | 0.17442273E+03 |  153.860
 BASOPT|        3     |       1     | 0.39158151E-02 | 0.22155670E+02 |   68.750
 BASOPT|        4     |       1     | 0.34008605E-02 | 0.19344095E+02 |   56.229
 BASOPT|        5     |       1     | 0.40202793E-02 | 0.68489731E+01 |   38.437
 BASOPT| -----------------------------------------------------------------------
 BASOPT| Total residuum value: -.70625900E+02

 BASOPT| Information at iteration number:    6700
 BASOPT| Training set | Combination | Rho difference | Condition num. | Time
 BASOPT| -----------------------------------------------------------------------
 BASOPT|        1     |       1     | 0.52116364E-02 | 0.12298174E+03 |  104.039
 BASOPT|        2     |       1     | 0.50415357E-02 | 0.17402252E+03 |  156.167
 BASOPT|        3     |       1     | 0.39107264E-02 | 0.22167657E+02 |   69.779
 BASOPT|        4     |       1     | 0.33812441E-02 | 0.19370294E+02 |   57.069
 BASOPT|        5     |       1     | 0.40106411E-02 | 0.68145239E+01 |   39.012
 BASOPT| -----------------------------------------------------------------------
 BASOPT| Total residuum value: -.70626630E+02

 BASOPT| Information at iteration number:    6800
 BASOPT| Training set | Combination | Rho difference | Condition num. | Time
 BASOPT| -----------------------------------------------------------------------
 BASOPT|        1     |       1     | 0.52118219E-02 | 0.12345323E+03 |  105.567
 BASOPT|        2     |       1     | 0.50498084E-02 | 0.17441805E+03 |  158.469
 BASOPT|        3     |       1     | 0.39080591E-02 | 0.22244940E+02 |   70.807
 BASOPT|        4     |       1     | 0.33707737E-02 | 0.19427230E+02 |   57.910
 BASOPT|        5     |       1     | 0.39966534E-02 | 0.68097766E+01 |   39.586
 BASOPT| -----------------------------------------------------------------------
 BASOPT| Total residuum value: -.70626924E+02

 BASOPT| Information at iteration number:    6900
 BASOPT| Training set | Combination | Rho difference | Condition num. | Time
 BASOPT| -----------------------------------------------------------------------
 BASOPT|        1     |       1     | 0.52310896E-02 | 0.12448040E+03 |  107.093
 BASOPT|        2     |       1     | 0.48930259E-02 | 0.17647774E+03 |  160.778
 BASOPT|        3     |       1     | 0.39238527E-02 | 0.22073920E+02 |   71.836
 BASOPT|        4     |       1     | 0.33855464E-02 | 0.19305815E+02 |   58.751
 BASOPT|        5     |       1     | 0.40457428E-02 | 0.67680497E+01 |   40.161
 BASOPT| -----------------------------------------------------------------------
 BASOPT| Total residuum value: -.70626976E+02

 BASOPT| Information at iteration number:    7000
 BASOPT| Training set | Combination | Rho difference | Condition num. | Time
 BASOPT| -----------------------------------------------------------------------
 BASOPT|        1     |       1     | 0.51937435E-02 | 0.12296461E+03 |  108.628
 BASOPT|        2     |       1     | 0.50511873E-02 | 0.17428129E+03 |  163.082
 BASOPT|        3     |       1     | 0.39052433E-02 | 0.22098213E+02 |   72.863
 BASOPT|        4     |       1     | 0.33715205E-02 | 0.19308259E+02 |   59.592
 BASOPT|        5     |       1     | 0.39930772E-02 | 0.67618341E+01 |   40.735
 BASOPT| -----------------------------------------------------------------------
 BASOPT| Total residuum value: -.70627445E+02

 BASOPT| Information at iteration number:    7100
 BASOPT| Training set | Combination | Rho difference | Condition num. | Time
 BASOPT| -----------------------------------------------------------------------
 BASOPT|        1     |       1     | 0.51858129E-02 | 0.12244102E+03 |  110.164
 BASOPT|        2     |       1     | 0.50924093E-02 | 0.17353925E+03 |  165.385
 BASOPT|        3     |       1     | 0.39006944E-02 | 0.22068256E+02 |   73.891
 BASOPT|        4     |       1     | 0.33701278E-02 | 0.19282669E+02 |   60.433
 BASOPT|        5     |       1     | 0.39801710E-02 | 0.67588380E+01 |   41.310
 BASOPT| -----------------------------------------------------------------------
 BASOPT| Total residuum value: -.70627632E+02

 BASOPT| Information at iteration number:    7200
 BASOPT| Training set | Combination | Rho difference | Condition num. | Time
 BASOPT| -----------------------------------------------------------------------
 BASOPT|        1     |       1     | 0.52204605E-02 | 0.12332805E+03 |  111.701
 BASOPT|        2     |       1     | 0.48896349E-02 | 0.17551723E+03 |  167.687
 BASOPT|        3     |       1     | 0.39225588E-02 | 0.21816858E+02 |   74.917
 BASOPT|        4     |       1     | 0.33932189E-02 | 0.19113182E+02 |   61.274
 BASOPT|        5     |       1     | 0.40494035E-02 | 0.67172879E+01 |   41.884
 BASOPT| -----------------------------------------------------------------------
 BASOPT| Total residuum value: -.70627710E+02

 BASOPT| Information at iteration number:    7300
 BASOPT| Training set | Combination | Rho difference | Condition num. | Time
 BASOPT| -----------------------------------------------------------------------
 BASOPT|        1     |       1     | 0.52134097E-02 | 0.12189187E+03 |  113.239
 BASOPT|        2     |       1     | 0.51119751E-02 | 0.17224824E+03 |  169.991
 BASOPT|        3     |       1     | 0.38984121E-02 | 0.22185407E+02 |   75.945
 BASOPT|        4     |       1     | 0.33555789E-02 | 0.19389528E+02 |   62.116
 BASOPT|        5     |       1     | 0.39758242E-02 | 0.67885733E+01 |   42.459
 BASOPT| -----------------------------------------------------------------------
 BASOPT| Total residuum value: -.70628027E+02

 BASOPT| Information at iteration number:    7400
 BASOPT| Training set | Combination | Rho difference | Condition num. | Time
 BASOPT| -----------------------------------------------------------------------
 BASOPT|        1     |       1     | 0.51956691E-02 | 0.12120801E+03 |  114.763
 BASOPT|        2     |       1     | 0.51663358E-02 | 0.17170901E+03 |  172.293
 BASOPT|        3     |       1     | 0.38910888E-02 | 0.22157117E+02 |   76.972
 BASOPT|        4     |       1     | 0.33510549E-02 | 0.19364511E+02 |   62.959
 BASOPT|        5     |       1     | 0.39629953E-02 | 0.67845285E+01 |   43.033
 BASOPT| -----------------------------------------------------------------------
 BASOPT| Total residuum value: -.70628293E+02

 BASOPT| Information at iteration number:    7500
 BASOPT| Training set | Combination | Rho difference | Condition num. | Time
 BASOPT| -----------------------------------------------------------------------
 BASOPT|        1     |       1     | 0.52054485E-02 | 0.12121943E+03 |  116.291
 BASOPT|        2     |       1     | 0.50638226E-02 | 0.17213166E+03 |  174.596
 BASOPT|        3     |       1     | 0.39001704E-02 | 0.21974484E+02 |   78.001
 BASOPT|        4     |       1     | 0.33629636E-02 | 0.19245553E+02 |   63.800
 BASOPT|        5     |       1     | 0.39947337E-02 | 0.67499694E+01 |   43.607
 BASOPT| -----------------------------------------------------------------------
 BASOPT| Total residuum value: -.70628638E+02

 BASOPT| Information at iteration number:    7600
 BASOPT| Training set | Combination | Rho difference | Condition num. | Time
 BASOPT| -----------------------------------------------------------------------
 BASOPT|        1     |       1     | 0.52133094E-02 | 0.12089434E+03 |  117.824
 BASOPT|        2     |       1     | 0.50381475E-02 | 0.17188886E+03 |  176.901
 BASOPT|        3     |       1     | 0.39020384E-02 | 0.21950850E+02 |   79.028
 BASOPT|        4     |       1     | 0.33615094E-02 | 0.19240068E+02 |   64.641
 BASOPT|        5     |       1     | 0.40053051E-02 | 0.67496136E+01 |   44.182
 BASOPT| -----------------------------------------------------------------------
 BASOPT| Total residuum value: -.70628865E+02

 BASOPT| Information at iteration number:    7700
 BASOPT| Training set | Combination | Rho difference | Condition num. | Time
 BASOPT| -----------------------------------------------------------------------
 BASOPT|        1     |       1     | 0.52159329E-02 | 0.12072608E+03 |  119.360
 BASOPT|        2     |       1     | 0.50051780E-02 | 0.17183136E+03 |  179.202
 BASOPT|        3     |       1     | 0.39050312E-02 | 0.21855341E+02 |   80.056
 BASOPT|        4     |       1     | 0.33673878E-02 | 0.19169911E+02 |   65.481
 BASOPT|        5     |       1     | 0.40145773E-02 | 0.67271016E+01 |   44.756
 BASOPT| -----------------------------------------------------------------------
 BASOPT| Total residuum value: -.70629180E+02

 BASOPT| Information at iteration number:    7800
 BASOPT| Training set | Combination | Rho difference | Condition num. | Time
 BASOPT| -----------------------------------------------------------------------
 BASOPT|        1     |       1     | 0.52106614E-02 | 0.12013645E+03 |  120.900
 BASOPT|        2     |       1     | 0.50170049E-02 | 0.17113127E+03 |  181.503
 BASOPT|        3     |       1     | 0.39031000E-02 | 0.21792119E+02 |   81.086
 BASOPT|        4     |       1     | 0.33655280E-02 | 0.19118867E+02 |   66.322
 BASOPT|        5     |       1     | 0.40086728E-02 | 0.67077692E+01 |   45.331
 BASOPT| -----------------------------------------------------------------------
 BASOPT| Total residuum value: -.70629560E+02

 BASOPT| Information at iteration number:    7900
 BASOPT| Training set | Combination | Rho difference | Condition num. | Time
 BASOPT| -----------------------------------------------------------------------
 BASOPT|        1     |       1     | 0.51940532E-02 | 0.11962819E+03 |  122.433
 BASOPT|        2     |       1     | 0.50616860E-02 | 0.17071136E+03 |  183.806
 BASOPT|        3     |       1     | 0.38974251E-02 | 0.21777134E+02 |   82.116
 BASOPT|        4     |       1     | 0.33615643E-02 | 0.19100773E+02 |   67.164
 BASOPT|        5     |       1     | 0.39949489E-02 | 0.67013862E+01 |   45.907
 BASOPT| -----------------------------------------------------------------------
 BASOPT| Total residuum value: -.70629746E+02

 BASOPT| Information at iteration number:    8000
 BASOPT| Training set | Combination | Rho difference | Condition num. | Time
 BASOPT| -----------------------------------------------------------------------
 BASOPT|        1     |       1     | 0.52148389E-02 | 0.11922499E+03 |  123.958
 BASOPT|        2     |       1     | 0.50683329E-02 | 0.16955782E+03 |  186.109
 BASOPT|        3     |       1     | 0.38959391E-02 | 0.21852635E+02 |   83.144
 BASOPT|        4     |       1     | 0.33499929E-02 | 0.19182021E+02 |   68.005
 BASOPT|        5     |       1     | 0.39889833E-02 | 0.67028646E+01 |   46.482
 BASOPT| -----------------------------------------------------------------------
 BASOPT| Total residuum value: -.70630232E+02

 BASOPT| Information at iteration number:    8100
 BASOPT| Training set | Combination | Rho difference | Condition num. | Time
 BASOPT| -----------------------------------------------------------------------
 BASOPT|        1     |       1     | 0.51984170E-02 | 0.11869855E+03 |  125.490
 BASOPT|        2     |       1     | 0.51072979E-02 | 0.16916801E+03 |  188.411
 BASOPT|        3     |       1     | 0.38913098E-02 | 0.21813781E+02 |   84.172
 BASOPT|        4     |       1     | 0.33489006E-02 | 0.19140164E+02 |   68.847
 BASOPT|        5     |       1     | 0.39789140E-02 | 0.66950903E+01 |   47.057
 BASOPT| -----------------------------------------------------------------------
 BASOPT| Total residuum value: -.70630410E+02

 BASOPT| Information at iteration number:    8200
 BASOPT| Training set | Combination | Rho difference | Condition num. | Time
 BASOPT| -----------------------------------------------------------------------
 BASOPT|        1     |       1     | 0.52156887E-02 | 0.11924554E+03 |  127.020
 BASOPT|        2     |       1     | 0.49823150E-02 | 0.17021615E+03 |  190.714
 BASOPT|        3     |       1     | 0.39032800E-02 | 0.21680369E+02 |   85.201
 BASOPT|        4     |       1     | 0.33572246E-02 | 0.19057505E+02 |   69.689
 BASOPT|        5     |       1     | 0.40131876E-02 | 0.66494007E+01 |   47.633
 BASOPT| -----------------------------------------------------------------------
 BASOPT| Total residuum value: -.70630684E+02

 BASOPT| Information at iteration number:    8300
 BASOPT| Training set | Combination | Rho difference | Condition num. | Time
 BASOPT| -----------------------------------------------------------------------
 BASOPT|        1     |       1     | 0.52115653E-02 | 0.11871172E+03 |  128.548
 BASOPT|        2     |       1     | 0.50227141E-02 | 0.16935398E+03 |  193.018
 BASOPT|        3     |       1     | 0.38986194E-02 | 0.21700386E+02 |   86.230
 BASOPT|        4     |       1     | 0.33466855E-02 | 0.19080892E+02 |   70.530
 BASOPT|        5     |       1     | 0.39977936E-02 | 0.66283339E+01 |   48.209
 BASOPT| -----------------------------------------------------------------------
 BASOPT| Total residuum value: -.70630894E+02

 BASOPT| Information at iteration number:    8400
 BASOPT| Training set | Combination | Rho difference | Condition num. | Time
 BASOPT| -----------------------------------------------------------------------
 BASOPT|        1     |       1     | 0.52007059E-02 | 0.11817678E+03 |  130.079
 BASOPT|        2     |       1     | 0.50981350E-02 | 0.16830042E+03 |  195.318
 BASOPT|        3     |       1     | 0.38910026E-02 | 0.21730308E+02 |   87.258
 BASOPT|        4     |       1     | 0.33406199E-02 | 0.19100971E+02 |   71.372
 BASOPT|        5     |       1     | 0.39716532E-02 | 0.66093749E+01 |   48.784
 BASOPT| -----------------------------------------------------------------------
 BASOPT| Total residuum value: -.70631137E+02

 BASOPT| Information at iteration number:    8500
 BASOPT| Training set | Combination | Rho difference | Condition num. | Time
 BASOPT| -----------------------------------------------------------------------
 BASOPT|        1     |       1     | 0.52184855E-02 | 0.11858467E+03 |  131.613
 BASOPT|        2     |       1     | 0.49767372E-02 | 0.16909131E+03 |  197.620
 BASOPT|        3     |       1     | 0.39026819E-02 | 0.21564715E+02 |   88.287
 BASOPT|        4     |       1     | 0.33546604E-02 | 0.18987252E+02 |   72.214
 BASOPT|        5     |       1     | 0.40090247E-02 | 0.65697641E+01 |   49.360
 BASOPT| -----------------------------------------------------------------------
 BASOPT| Total residuum value: -.70631403E+02

 BASOPT| Information at iteration number:    8600
 BASOPT| Training set | Combination | Rho difference | Condition num. | Time
 BASOPT| -----------------------------------------------------------------------
 BASOPT|        1     |       1     | 0.52118387E-02 | 0.11764418E+03 |  133.142
 BASOPT|        2     |       1     | 0.50216568E-02 | 0.16772637E+03 |  199.926
 BASOPT|        3     |       1     | 0.38967322E-02 | 0.21541462E+02 |   89.319
 BASOPT|        4     |       1     | 0.33485823E-02 | 0.18975167E+02 |   73.058
 BASOPT|        5     |       1     | 0.39999920E-02 | 0.65517072E+01 |   49.936
 BASOPT| -----------------------------------------------------------------------
 BASOPT| Total residuum value: -.70631643E+02

 BASOPT| Information at iteration number:    8700
 BASOPT| Training set | Combination | Rho difference | Condition num. | Time
 BASOPT| -----------------------------------------------------------------------
 BASOPT|        1     |       1     | 0.52313292E-02 | 0.11696909E+03 |  134.670
 BASOPT|        2     |       1     | 0.50258125E-02 | 0.16604498E+03 |  202.228
 BASOPT|        3     |       1     | 0.38951434E-02 | 0.21538137E+02 |   90.349
 BASOPT|        4     |       1     | 0.33392783E-02 | 0.19003254E+02 |   73.901
 BASOPT|        5     |       1     | 0.39952023E-02 | 0.65106113E+01 |   50.512
 BASOPT| -----------------------------------------------------------------------
 BASOPT| Total residuum value: -.70632202E+02

 BASOPT| Information at iteration number:    8800
 BASOPT| Training set | Combination | Rho difference | Condition num. | Time
 BASOPT| -----------------------------------------------------------------------
 BASOPT|        1     |       1     | 0.52108689E-02 | 0.11729115E+03 |  136.200
 BASOPT|        2     |       1     | 0.50199293E-02 | 0.16674773E+03 |  204.535
 BASOPT|        3     |       1     | 0.38929359E-02 | 0.21491681E+02 |   91.379
 BASOPT|        4     |       1     | 0.33410833E-02 | 0.18959038E+02 |   74.742
 BASOPT|        5     |       1     | 0.39859021E-02 | 0.64808488E+01 |   51.088
 BASOPT| -----------------------------------------------------------------------
 BASOPT| Total residuum value: -.70632671E+02

 BASOPT| Information at iteration number:    8900
 BASOPT| Training set | Combination | Rho difference | Condition num. | Time
 BASOPT| -----------------------------------------------------------------------
 BASOPT|        1     |       1     | 0.51931008E-02 | 0.11787824E+03 |  137.728
 BASOPT|        2     |       1     | 0.49207895E-02 | 0.16819129E+03 |  206.842
 BASOPT|        3     |       1     | 0.39009244E-02 | 0.21226540E+02 |   92.408
 BASOPT|        4     |       1     | 0.33640339E-02 | 0.18747047E+02 |   75.584
 BASOPT|        5     |       1     | 0.40107997E-02 | 0.64172349E+01 |   51.665
 BASOPT| -----------------------------------------------------------------------
 BASOPT| Total residuum value: -.70632932E+02

 BASOPT| Information at iteration number:    9000
 BASOPT| Training set | Combination | Rho difference | Condition num. | Time
 BASOPT| -----------------------------------------------------------------------
 BASOPT|        1     |       1     | 0.51917198E-02 | 0.11637583E+03 |  139.256
 BASOPT|        2     |       1     | 0.49845336E-02 | 0.16527869E+03 |  209.144
 BASOPT|        3     |       1     | 0.38882662E-02 | 0.21240266E+02 |   93.438
 BASOPT|        4     |       1     | 0.33421886E-02 | 0.18784752E+02 |   76.425
 BASOPT|        5     |       1     | 0.39933848E-02 | 0.63901463E+01 |   52.242
 BASOPT| -----------------------------------------------------------------------
 BASOPT| Total residuum value: -.70633539E+02

 BASOPT| Information at iteration number:    9100
 BASOPT| Training set | Combination | Rho difference | Condition num. | Time
 BASOPT| -----------------------------------------------------------------------
 BASOPT|        1     |       1     | 0.52048563E-02 | 0.11491980E+03 |  140.785
 BASOPT|        2     |       1     | 0.49518895E-02 | 0.16273826E+03 |  211.449
 BASOPT|        3     |       1     | 0.38781279E-02 | 0.21200153E+02 |   94.468
 BASOPT|        4     |       1     | 0.33082688E-02 | 0.18821570E+02 |   77.267
 BASOPT|        5     |       1     | 0.40131099E-02 | 0.63217006E+01 |   52.819
 BASOPT| -----------------------------------------------------------------------
 BASOPT| Total residuum value: -.70634537E+02

 BASOPT| Information at iteration number:    9200
 BASOPT| Training set | Combination | Rho difference | Condition num. | Time
 BASOPT| -----------------------------------------------------------------------
 BASOPT|        1     |       1     | 0.52008792E-02 | 0.11583049E+03 |  142.313
 BASOPT|        2     |       1     | 0.48895983E-02 | 0.16414887E+03 |  213.756
 BASOPT|        3     |       1     | 0.38814053E-02 | 0.21183341E+02 |   95.499
 BASOPT|        4     |       1     | 0.33065319E-02 | 0.18815529E+02 |   78.109
 BASOPT|        5     |       1     | 0.40184498E-02 | 0.62937327E+01 |   53.397
 BASOPT| -----------------------------------------------------------------------
 BASOPT| Total residuum value: -.70634974E+02

 BASOPT| Information at iteration number:    9300
 BASOPT| Training set | Combination | Rho difference | Condition num. | Time
 BASOPT| -----------------------------------------------------------------------
 BASOPT|        1     |       1     | 0.52051460E-02 | 0.11491812E+03 |  143.845
 BASOPT|        2     |       1     | 0.49127316E-02 | 0.16238225E+03 |  216.061
 BASOPT|        3     |       1     | 0.38765549E-02 | 0.21178721E+02 |   96.530
 BASOPT|        4     |       1     | 0.32997282E-02 | 0.18819439E+02 |   78.952
 BASOPT|        5     |       1     | 0.40129515E-02 | 0.62691975E+01 |   53.975
 BASOPT| -----------------------------------------------------------------------
 BASOPT| Total residuum value: -.70635423E+02

 BASOPT| Information at iteration number:    9400
 BASOPT| Training set | Combination | Rho difference | Condition num. | Time
 BASOPT| -----------------------------------------------------------------------
 BASOPT|        1     |       1     | 0.52018751E-02 | 0.11498541E+03 |  145.375
 BASOPT|        2     |       1     | 0.48844274E-02 | 0.16261968E+03 |  218.363
 BASOPT|        3     |       1     | 0.38758372E-02 | 0.21165912E+02 |   97.561
 BASOPT|        4     |       1     | 0.32953072E-02 | 0.18811979E+02 |   79.794
 BASOPT|        5     |       1     | 0.40162492E-02 | 0.62425416E+01 |   54.552
 BASOPT| -----------------------------------------------------------------------
 BASOPT| Total residuum value: -.70635995E+02

 BASOPT| Information at iteration number:    9500
 BASOPT| Training set | Combination | Rho difference | Condition num. | Time
 BASOPT| -----------------------------------------------------------------------
 BASOPT|        1     |       1     | 0.51564177E-02 | 0.11346975E+03 |  146.903
 BASOPT|        2     |       1     | 0.51329173E-02 | 0.15988328E+03 |  220.667
 BASOPT|        3     |       1     | 0.38502803E-02 | 0.21294222E+02 |   98.593
 BASOPT|        4     |       1     | 0.32738470E-02 | 0.18889500E+02 |   80.637
 BASOPT|        5     |       1     | 0.39386205E-02 | 0.62387361E+01 |   55.128
 BASOPT| -----------------------------------------------------------------------
 BASOPT| Total residuum value: -.70636078E+02

 BASOPT| Information at iteration number:    9600
 BASOPT| Training set | Combination | Rho difference | Condition num. | Time
 BASOPT| -----------------------------------------------------------------------
 BASOPT|        1     |       1     | 0.52047248E-02 | 0.11485164E+03 |  148.431
 BASOPT|        2     |       1     | 0.48059765E-02 | 0.16220141E+03 |  222.972
 BASOPT|        3     |       1     | 0.38823904E-02 | 0.20958721E+02 |   99.623
 BASOPT|        4     |       1     | 0.33056016E-02 | 0.18665920E+02 |   81.480
 BASOPT|        5     |       1     | 0.40323799E-02 | 0.61536516E+01 |   55.706
 BASOPT| -----------------------------------------------------------------------
 BASOPT| Total residuum value: -.70636687E+02

 BASOPT| Information at iteration number:    9700
 BASOPT| Training set | Combination | Rho difference | Condition num. | Time
 BASOPT| -----------------------------------------------------------------------
 BASOPT|        1     |       1     | 0.51918878E-02 | 0.11348531E+03 |  149.962
 BASOPT|        2     |       1     | 0.48953718E-02 | 0.15987168E+03 |  225.276
 BASOPT|        3     |       1     | 0.38696748E-02 | 0.21000892E+02 |  100.654
[...]
 BASOPT|        5     |       1     | 0.38425841E-02 | 0.48568545E+01 |  579.215
 BASOPT| -----------------------------------------------------------------------
 BASOPT| Total residuum value: -.70719732E+02

 BASOPT| Information at iteration number:   99400
 BASOPT| Training set | Combination | Rho difference | Condition num. | Time
 BASOPT| -----------------------------------------------------------------------
 BASOPT|        1     |       1     | 0.47221442E-02 | 0.12337007E+03 | 1540.424
 BASOPT|        2     |       1     | 0.30974535E-02 | 0.20774265E+03 | 2312.941
 BASOPT|        3     |       1     | 0.30128454E-02 | 0.18967042E+02 | 1030.837
 BASOPT|        4     |       1     | 0.27394421E-02 | 0.17875613E+02 |  846.931
 BASOPT|        5     |       1     | 0.38425346E-02 | 0.48570516E+01 |  579.800
 BASOPT| -----------------------------------------------------------------------
 BASOPT| Total residuum value: -.70719732E+02

 BASOPT| Information at iteration number:   99500
 BASOPT| Training set | Combination | Rho difference | Condition num. | Time
 BASOPT| -----------------------------------------------------------------------
 BASOPT|        1     |       1     | 0.47220853E-02 | 0.12336655E+03 | 1541.978
 BASOPT|        2     |       1     | 0.30974824E-02 | 0.20773328E+03 | 2315.267
 BASOPT|        3     |       1     | 0.30128476E-02 | 0.18967156E+02 | 1031.876
 BASOPT|        4     |       1     | 0.27394958E-02 | 0.17875663E+02 |  847.784
 BASOPT|        5     |       1     | 0.38425060E-02 | 0.48572901E+01 |  580.386
 BASOPT| -----------------------------------------------------------------------
 BASOPT| Total residuum value: -.70719732E+02

 BASOPT| Information at iteration number:   99600
 BASOPT| Training set | Combination | Rho difference | Condition num. | Time
 BASOPT| -----------------------------------------------------------------------
 BASOPT|        1     |       1     | 0.47221027E-02 | 0.12336192E+03 | 1543.544
 BASOPT|        2     |       1     | 0.30974727E-02 | 0.20774109E+03 | 2317.595
 BASOPT|        3     |       1     | 0.30128475E-02 | 0.18967242E+02 | 1032.918
 BASOPT|        4     |       1     | 0.27394825E-02 | 0.17876113E+02 |  848.638
 BASOPT|        5     |       1     | 0.38425843E-02 | 0.48572102E+01 |  580.972
 BASOPT| -----------------------------------------------------------------------
 BASOPT| Total residuum value: -.70719732E+02

 BASOPT| Information at iteration number:   99700
 BASOPT| Training set | Combination | Rho difference | Condition num. | Time
 BASOPT| -----------------------------------------------------------------------
 BASOPT|        1     |       1     | 0.47222273E-02 | 0.12335274E+03 | 1545.109
 BASOPT|        2     |       1     | 0.30975524E-02 | 0.20772410E+03 | 2319.922
 BASOPT|        3     |       1     | 0.30128582E-02 | 0.18967374E+02 | 1033.961
 BASOPT|        4     |       1     | 0.27394554E-02 | 0.17876587E+02 |  849.491
 BASOPT|        5     |       1     | 0.38426370E-02 | 0.48573519E+01 |  581.563
 BASOPT| -----------------------------------------------------------------------
 BASOPT| Total residuum value: -.70719732E+02

 BASOPT| Information at iteration number:   99800
 BASOPT| Training set | Combination | Rho difference | Condition num. | Time
 BASOPT| -----------------------------------------------------------------------
 BASOPT|        1     |       1     | 0.47221452E-02 | 0.12335473E+03 | 1546.665
 BASOPT|        2     |       1     | 0.30974237E-02 | 0.20772454E+03 | 2322.256
 BASOPT|        3     |       1     | 0.30128428E-02 | 0.18967424E+02 | 1035.001
 BASOPT|        4     |       1     | 0.27394888E-02 | 0.17876355E+02 |  850.345
 BASOPT|        5     |       1     | 0.38425502E-02 | 0.48575128E+01 |  582.148
 BASOPT| -----------------------------------------------------------------------
 BASOPT| Total residuum value: -.70719732E+02

 BASOPT| Information at iteration number:   99900
 BASOPT| Training set | Combination | Rho difference | Condition num. | Time
 BASOPT| -----------------------------------------------------------------------
 BASOPT|        1     |       1     | 0.47221711E-02 | 0.12335737E+03 | 1548.220
 BASOPT|        2     |       1     | 0.30974098E-02 | 0.20773528E+03 | 2324.584
 BASOPT|        3     |       1     | 0.30128453E-02 | 0.18967513E+02 | 1036.042
 BASOPT|        4     |       1     | 0.27393659E-02 | 0.17876444E+02 |  851.198
 BASOPT|        5     |       1     | 0.38425837E-02 | 0.48575334E+01 |  582.733
 BASOPT| -----------------------------------------------------------------------
 BASOPT| Total residuum value: -.70719732E+02

 BASOPT| Information at iteration number:  100000
 BASOPT| Training set | Combination | Rho difference | Condition num. | Time
 BASOPT| -----------------------------------------------------------------------
 BASOPT|        1     |       1     | 0.47221739E-02 | 0.12335936E+03 | 1549.775
 BASOPT|        2     |       1     | 0.30973957E-02 | 0.20773327E+03 | 2326.907
 BASOPT|        3     |       1     | 0.30128345E-02 | 0.18967644E+02 | 1037.084
 BASOPT|        4     |       1     | 0.27394581E-02 | 0.17876288E+02 |  852.052
 BASOPT|        5     |       1     | 0.38425030E-02 | 0.48575914E+01 |  583.317
 BASOPT| -----------------------------------------------------------------------
 BASOPT| Total residuum value: -.70719732E+02


 -------------------------------------------------------------------------------
 -                                                                             -
 -                                DBCSR STATISTICS                             -
 -                                                                             -
 -------------------------------------------------------------------------------
 COUNTER                                    TOTAL       BLAS       SMM       ACC
 flops    52 x    51 x     4                21216       0.0%    100.0%      0.0%
 flops    52 x    52 x     4                21632       0.0%    100.0%      0.0%
 flops    51 x   116 x     4               141984       0.0%    100.0%      0.0%
 flops   116 x    51 x     4               141984       0.0%    100.0%      0.0%
 flops    51 x    51 x     4               228888       0.0%    100.0%      0.0%
 flops   116 x   116 x     4               322944       0.0%    100.0%      0.0%
 flops inhomo. stacks                       21386     100.0%      0.0%      0.0%
 flops total                       900.034000E+03       2.4%     97.6%      0.0%
 flops max/rank                    211.552000E+03       4.4%     95.6%      0.0%
 matmuls inhomo. stacks                         3     100.0%      0.0%      0.0%
 matmuls total                                 25      12.0%     88.0%      0.0%
 number of processed stacks                    20      15.0%     85.0%      0.0%
 average stack size                                     1.0       1.3       0.0
 marketing flops                     1.295386E+06
 -------------------------------------------------------------------------------
 # multiplications                              1
 max memory usage/rank             598.704128E+06
 # max total images/rank                        5
 # max 3D layers                                1
 # MPI messages exchanged                      88
 MPI messages size (bytes):
  total size                        98.800000E+03
  min size                           0.000000E+00
  max size                           8.608000E+03
  average size                       1.122727E+03
 MPI breakdown and total messages size (bytes):
             size <=      128                  68                        0
       128 < size <=     8192                  16                    64368
      8192 < size <=    32768                   4                    34432
     32768 < size <=   131072                   0                        0
    131072 < size <=  4194304                   0                        0
   4194304 < size <= 16777216                   0                        0
  16777216 < size                               0                        0
 -------------------------------------------------------------------------------

 *** WARNING in dbcsr_mm.F:297 :: Using a non-square number of MPI ranks ***
 *** might lead to poor performance. Used ranks: 5 Suggested: 4 9        ***

 -------------------------------------------------------------------------------
 -                                                                             -
 -                      DBCSR MESSAGE PASSING PERFORMANCE                      -
 -                                                                             -
 -------------------------------------------------------------------------------
 ROUTINE             CALLS      AVE VOLUME [Bytes]
 MP_Bcast                7                     12.
 MP_Allreduce           38                     20.
 MP_Alltoall       6000081                  27823.
 MP_ISend               16                    687.
 MP_IRecv               12                     56.
 -------------------------------------------------------------------------------

 -------------------------------------------------------------------------------
 -                                                                             -
 -                                GRID STATISTICS                              -
 -                                                                             -
 -------------------------------------------------------------------------------
 LP    KERNEL    OPERATION                                     COUNT     PERCENT
 0     general   collocate                                        13       0.25%
 0     ortho     integrate                                       544      10.61%
 0     ortho     collocate                                       544      10.61%
 1     ortho     integrate                                       336       6.56%
 1     ortho     collocate                                       336       6.56%
 2     ortho     integrate                                       280       5.46%
 2     ortho     collocate                                       280       5.46%
 3     ortho     integrate                                       608      11.86%
 3     ortho     collocate                                       608      11.86%
 4     ortho     integrate                                       328       6.40%
 4     ortho     collocate                                       328       6.40%
 5     ortho     integrate                                       204       3.98%
 5     ortho     collocate                                       204       3.98%
 6     ortho     integrate                                       136       2.65%
 6     ortho     collocate                                       136       2.65%
 7     ortho     integrate                                        72       1.40%
 7     ortho     collocate                                        72       1.40%
 8     ortho     integrate                                        48       0.94%
 8     ortho     collocate                                        48       0.94%
 -------------------------------------------------------------------------------

 MEMORY| Estimated peak process memory [MiB]                                1245

 -------------------------------------------------------------------------------
 -                                                                             -
 -                         MESSAGE PASSING PERFORMANCE                         -
 -                                                                             -
 -------------------------------------------------------------------------------

 ROUTINE             CALLS      AVE VOLUME [Bytes]
 MP_Bcast           300052                    739.
 MP_Allreduce      1300138                     44.
 MP_Sync            300003
 MP_Alltoall            19               60497179.
 MP_ISendRecv           36                3661824.
 MP_Wait                36
 MP_comm_split      200003
 -------------------------------------------------------------------------------


 -------------------------------------------------------------------------------
 -                                                                             -
 -                           R E F E R E N C E S                               -
 -                                                                             -
 -------------------------------------------------------------------------------
 
 CP2K version 8.0 (Development Version), the CP2K developers group (2020).
 CP2K is freely available from https://www.cp2k.org/ .

 Kuehne,Thomas D.; Iannuzzi,Marcella; Del Ben,Mauro;
 Rybkin,Vladimir V.; Seewald,Patrick; Stein,Frederick; Laino,Teodoro;
 Khaliullin,Rustam Z.; Schuett,Ole; Schiffmann,Florian; Golze,Dorothea;
 Wilhelm,Jan; Chulkov,Sergey; Bani-Hashemian,Mohammad Hossein;
 Weber,Valery; Borstnik,Urban; Taillefumier,Mathieu;
 Jakobovits,Alice Shoshana; Lazzaro,Alfio; Pabst,Hans; Mueller,Tiziano;
 Schade,Robert; Guidon,Manuel; Andermatt,Samuel; Holmberg,Nico;
 Schenter,Gregory K.; Hehn,Anna; Bussy,Augustin; Belleflamme,Fabian;
 Tabacchi,Gloria; Gloess,Andreas; Lass,Michael; Bethune,Iain;
 Mundy,Christopher J.; Plessl,Christian; Watkins,Matt;
 VandeVondele,Joost; Krack,Matthias; Hutter,Juerg. 
 The Journal of Chemical Physics, 152 (19), (2020). 
 CP2K: An electronic structure and molecular dynamics software package -
 Quickstep: Efficient and accurate electronic structure calculations.
 https://doi.org/10.1063/5.0007045

 Schuett, Ole; Messmer, Peter; Hutter, Juerg; VandeVondele, Joost. 
 Electronic Structure Calculations on Graphics Processing Units, John
 Wiley & Sons, Ltd, 173-190 (2016). 
 GPU-Accelerated Sparse Matrix-Matrix Multiplication for
 Linear Scaling Density Functional Theory.
 https://doi.org/10.1002/9781118670712.ch8

 Borstnik, U; VandeVondele, J; Weber, V; Hutter, J. 
 PARALLEL COMPUTING, 40 (5-6), 47-58 (2014). 
 Sparse matrix multiplication: The distributed block-compressed sparse
 row library.
 https://doi.org/10.1016/j.parco.2014.03.012

 Hutter, J; Iannuzzi, M; Schiffmann, F; VandeVondele, J. 
 WIREs Comput Mol Sci., 4 (1), 15-25 (2014). 
 CP2K: atomistic simulations of condensed matter systems.
 https://doi.org/10.1002/wcms.1159

 Marek, A; Blum, V; Johanni, R; Havu, V; Lang, B; Auckenthaler, T;
 Heinecke, A; Bungartz, H; Lederer, H. 
 Journal of Physics: Condensed Matter, 26 (21), (2014). 
 The ELPA library: scalable parallel eigenvalue solutions for
 electronic structure
 theory and computational science.
 https://doi.org/10.1088/0953-8984/26/21/213201

 Guidon, M; Hutter, J; VandeVondele, J. 
 JOURNAL OF CHEMICAL THEORY AND COMPUTATION, 6 (8), 2348-2364 (2010). 
 Auxiliary Density Matrix Methods for Hartree-Fock Exchange Calculations.
 https://doi.org/10.1021/ct1002225

 VandeVondele, J; Hutter, J. 
 JOURNAL OF CHEMICAL PHYSICS, 127 (11), 114105 (2007). 
 Gaussian basis sets for accurate calculations on molecular systems in
 gas and condensed phases.
 https://doi.org/10.1063/1.2770708

 Krack, M. 
 THEORETICAL CHEMISTRY ACCOUNTS, 114 (1-3), 145-152 (2005). 
 Pseudopotentials for H to Kr optimized for gradient-corrected
 exchange-correlation functionals.
 https://doi.org/10.1007/s00214-005-0655-y

 VandeVondele, J; Krack, M; Mohamed, F; Parrinello, M; Chassaing, T;
 Hutter, J. COMPUTER PHYSICS COMMUNICATIONS, 167 (2), 103-128 (2005). 
 QUICKSTEP: Fast and accurate density functional calculations using a
 mixed Gaussian and plane waves approach.
 https://doi.org/10.1016/j.cpc.2004.12.014

 Frigo, M; Johnson, SG. 
 PROCEEDINGS OF THE IEEE, 93 (2), 216-231 (2005). 
 The design and implementation of FFTW3.
 https://doi.org/10.1109/JPROC.2004.840301

 Martyna, GJ; Tuckerman, ME. 
 JOURNAL OF CHEMICAL PHYSICS, 110 (6), 2810-2821 (1999). 
 A reciprocal space based method for treating long range interactions in
 ab initio and force-field-based calculations in clusters.
 https://doi.org/10.1063/1.477923

 Hartwigsen, C; Goedecker, S; Hutter, J. 
 PHYSICAL REVIEW B, 58 (7), 3641-3662 (1998). 
 Relativistic separable dual-space Gaussian pseudopotentials from H to Rn.
 https://doi.org/10.1103/PhysRevB.58.3641

 Lippert, G; Hutter, J; Parrinello, M. 
 MOLECULAR PHYSICS, 92 (3), 477-487 (1997). 
 A hybrid Gaussian and plane wave density functional scheme.
 https://doi.org/10.1080/002689797170220

 Perdew, JP; Burke, K; Ernzerhof, M. 
 PHYSICAL REVIEW LETTERS, 77 (18), 3865-3868 (1996). 
 Generalized gradient approximation made simple.
 https://doi.org/10.1103/PhysRevLett.77.3865

 Goedecker, S; Teter, M; Hutter, J. 
 PHYSICAL REVIEW B, 54 (3), 1703-1710 (1996). 
 Separable dual-space Gaussian pseudopotentials.
 https://doi.org/10.1103/PhysRevB.54.1703


 -------------------------------------------------------------------------------
 -                                                                             -
 -                                T I M I N G                                  -
 -                                                                             -
 -------------------------------------------------------------------------------
 SUBROUTINE                       CALLS  ASD         SELF TIME        TOTAL TIME
                                MAXIMUM       AVERAGE  MAXIMUM  AVERAGE  MAXIMUM
 CP2K                                 1  1.0    0.002    0.005 2359.643 2359.680
 run_optimize_basis                   1  2.0    0.004    0.005 2359.634 2359.672
 driver_para_opt_basis                1  3.0    0.000    0.000 2359.617 2359.655
 driver_optimization_para_low         1  4.0    0.489    1.106 2359.616 2359.655
 compute_residuum_vectors        100001  5.0    4.645    5.638 2334.351 2334.816
 mp_sum_dv                       500006  5.8 1035.271 1749.284 1035.271 1749.284
 cp_gemm                        1200012  7.2    1.616    1.842  681.828 1477.923
 cp_gemm_fm_gemm                1200012  8.2    1.040    1.243  680.212 1476.272
 cp_fm_gemm                     1200012  9.2  679.172 1475.199  679.172 1475.199
 admm_fit_mo_coeffs              100001  6.0    0.214    0.294  519.495  919.117
 fit_mo_coeffs                   100001  7.0    0.861    1.107  353.636  698.132
 copy_dbcsr_to_fm                500006  6.8    4.637    5.967  221.227  331.536
 cp_fm_syevd                     200002  7.0    0.557    0.748  205.380  313.323
 cp_fm_redistribute_end          200002  8.0   35.090  256.422   36.942  259.640
 cp_fm_syevd_base                200002  8.0  131.243  247.945  131.243  247.945
 purify_mo_diag                  100001  7.0    1.033    1.289  165.645  223.415
 dbcsr_desymmetrize_deep         500006  7.8    8.115   13.278   76.730  157.565
 dbcsr_complete_redistribute     500007  7.8   19.766   31.909  124.269  152.866
 mp_alltoall_i22                1000013  8.8   41.634  116.842   41.634  116.842
 build_overlap_matrix_low        200006  6.0   30.804   99.858   34.122  103.656
 cp_fm_upper_to_full             300005  7.3   41.568   80.091   41.568   80.091
 mp_alltoall_d11v               3000039  9.3   36.374   60.415   36.374   60.415
 cp_fm_redistribute_start        200002  8.0   25.111   33.289   36.637   53.309
 cp_fm_cholesky_invert           100002  8.0   37.651   52.530   37.651   52.530
 -------------------------------------------------------------------------------

 The number of warnings for this run is : 1
 
 -------------------------------------------------------------------------------
  **** **** ******  **  PROGRAM ENDED AT                 2020-12-08 11:33:20.692
 ***** ** ***  *** **   PROGRAM RAN ON                                   tcopt10
 **    ****   ******    PROGRAM RAN BY                                    hutter
 ***** **    ** ** **   PROGRAM PROCESS ID                                 25681
  **** **  *******  **  PROGRAM STOPPED IN /data/hutter/GITHUB/BASIS/MOLOPT/PBE0
                                           /K
