SIRIUS 7.0.0, git hash: https://api.github.com/repos/electronic-structure/SIRIUS/git/ref/tags/v7.0.0

  **** **** ******  **  PROGRAM STARTED AT               2020-12-08 11:37:14.694
 ***** ** ***  *** **   PROGRAM STARTED ON                               tcopt10
 **    ****   ******    PROGRAM STARTED BY                                hutter
 ***** **    ** ** **   PROGRAM PROCESS ID                                 30225
  **** **  *******  **  PROGRAM STARTED IN /data/hutter/GITHUB/BASIS/MOLOPT/PBE0
                                           /K

 CP2K| version string:                    CP2K version 8.0 (Development Version)
 CP2K| source code revision number:                                  git:afc71fa
 CP2K| cp2kflags: omp libint fftw3 libxc elpa parallel mpi3 scalapack xsmm spgli
 CP2K|            b sirius
 CP2K| is freely available from                            https://www.cp2k.org/
 CP2K| Program compiled at                          Tue Nov 17 10:27:14 CET 2020
 CP2K| Program compiled on                                               tcopt10
 CP2K| Program compiled for                                                local
 CP2K| Data directory path                 /data/hutter/GITHUB/CURRENT/cp2k/data
 CP2K| Input file name                                               opt-all.inp

 GLOBAL| Method name                                              OPTIMIZE_BASIS
 GLOBAL| Project name                                                     molopt
 GLOBAL| Preferred FFT library                                             FFTW3
 GLOBAL| Preferred diagonalization lib.                                     ELPA
 GLOBAL| Run type                                                   ENERGY_FORCE
 GLOBAL| All-to-all communication in single precision                          F
 GLOBAL| FFTs using library dependent lengths                                  F
 GLOBAL| Global print level                                               MEDIUM
 GLOBAL| MPI I/O enabled                                                       T
 GLOBAL| Total number of message passing processes                            24
 GLOBAL| Number of threads for this process                                    1
 GLOBAL| This output is from process                                           0
 GLOBAL| CPU model name                          AMD EPYC 7401 24-Core Processor
 GLOBAL| CPUID                                                              1002

 MEMORY| system memory details [Kb]
 MEMORY|                        rank 0           min           max       average
 MEMORY| MemTotal            263987256     263987256     263987256     263987256
 MEMORY| MemFree             192163396     192163396     192163396     192163396
 MEMORY| Buffers                   148           148           148           148
 MEMORY| Cached               12949396      12949396      12949396      12949396
 MEMORY| Slab                  1267028       1267028       1267028       1267028
 MEMORY| SReclaimable           615716        615716        615716        615716
 MEMORY| MemLikelyFree       205728656     205728656     205728656     205728656


 *** Fundamental physical constants (SI units) ***

 *** Literature: B. J. Mohr and B. N. Taylor,
 ***             CODATA recommended values of the fundamental physical
 ***             constants: 2006, Web Version 5.1
 ***             http://physics.nist.gov/constants

 Speed of light in vacuum [m/s]                             2.99792458000000E+08
 Magnetic constant or permeability of vacuum [N/A**2]       1.25663706143592E-06
 Electric constant or permittivity of vacuum [F/m]          8.85418781762039E-12
 Planck constant (h) [J*s]                                  6.62606896000000E-34
 Planck constant (h-bar) [J*s]                              1.05457162825177E-34
 Elementary charge [C]                                      1.60217648700000E-19
 Electron mass [kg]                                         9.10938215000000E-31
 Electron g factor [ ]                                     -2.00231930436220E+00
 Proton mass [kg]                                           1.67262163700000E-27
 Fine-structure constant                                    7.29735253760000E-03
 Rydberg constant [1/m]                                     1.09737315685270E+07
 Avogadro constant [1/mol]                                  6.02214179000000E+23
 Boltzmann constant [J/K]                                   1.38065040000000E-23
 Atomic mass unit [kg]                                      1.66053878200000E-27
 Bohr radius [m]                                            5.29177208590000E-11

 *** Conversion factors ***

 [u] -> [a.u.]                                              1.82288848426455E+03
 [Angstrom] -> [Bohr] = [a.u.]                              1.88972613288564E+00
 [a.u.] = [Bohr] -> [Angstrom]                              5.29177208590000E-01
 [a.u.] -> [s]                                              2.41888432650478E-17
 [a.u.] -> [fs]                                             2.41888432650478E-02
 [a.u.] -> [J]                                              4.35974393937059E-18
 [a.u.] -> [N]                                              8.23872205491840E-08
 [a.u.] -> [K]                                              3.15774647902944E+05
 [a.u.] -> [kJ/mol]                                         2.62549961709828E+03
 [a.u.] -> [kcal/mol]                                       6.27509468713739E+02
 [a.u.] -> [Pa]                                             2.94210107994716E+13
 [a.u.] -> [bar]                                            2.94210107994716E+08
 [a.u.] -> [atm]                                            2.90362800883016E+08
 [a.u.] -> [eV]                                             2.72113838565563E+01
 [a.u.] -> [Hz]                                             6.57968392072181E+15
 [a.u.] -> [1/cm] (wave numbers)                            2.19474631370540E+05
 [a.u./Bohr**2] -> [1/cm]                                   5.14048714338585E+03
 
 DBCSR| CPU Multiplication driver                                           XSMM
 DBCSR| Multrec recursion limit                                              512
 DBCSR| Multiplication stack size                                           1000
 DBCSR| Maximum elements for images                                    UNLIMITED
 DBCSR| Multiplicative factor virtual images                                   1
 DBCSR| Use multiplication densification                                       T
 DBCSR| Multiplication size stacks                                             3
 DBCSR| Use memory pool for CPU allocation                                     F
 DBCSR| Number of 3D layers                                               SINGLE
 DBCSR| Use MPI memory allocation                                              F
 DBCSR| Use RMA algorithm                                                      F
 DBCSR| Use Communication thread                                               T
 DBCSR| Communication thread load                                             87
 DBCSR| Split modifier for TAS multiplication algorithm                  1.0E+00

 BASOPT| Total number of calculations     15

 BASOPT| Content of basis combination      1
 BASOPT|     Element:    K    Basis set:    TZV2P-MOLOPT-PBE0-GTH-Q9
 BASOPT|     Element:    P    Basis set:    TZV2P-MOLOPT-PBE0-GTH-Q5
 BASOPT|     Element:    S    Basis set:    TZV2P-MOLOPT-PBE0-GTH-Q6
 BASOPT|     Element:   CL    Basis set:    TZV2P-MOLOPT-PBE0-GTH-Q7
 BASOPT|     Element:    H    Basis set:    TZV2P-MOLOPT-PBE0-GTH-Q1
 BASOPT|     Element:    F    Basis set:    TZV2P-MOLOPT-PBE0-GTH-Q7

 BASOPT| Content of basis combination      2
 BASOPT|     Element:    K    Basis set:    TZVP-MOLOPT-PBE0-GTH-q9
 BASOPT|     Element:    P    Basis set:    TZVP-MOLOPT-PBE0-GTH-q5
 BASOPT|     Element:    S    Basis set:    TZVP-MOLOPT-PBE0-GTH-q6
 BASOPT|     Element:   CL    Basis set:    TZVP-MOLOPT-PBE0-GTH-q7
 BASOPT|     Element:    H    Basis set:    TZVP-MOLOPT-PBE0-GTH-q1
 BASOPT|     Element:    F    Basis set:    TZVP-MOLOPT-PBE0-GTH-q7

 BASOPT| Content of basis combination      3
 BASOPT|     Element:    K    Basis set:    DZVP-MOLOPT-PBE0-GTH-q9
 BASOPT|     Element:    P    Basis set:    DZVP-MOLOPT-PBE0-GTH-q5
 BASOPT|     Element:    S    Basis set:    DZVP-MOLOPT-PBE0-GTH-q6
 BASOPT|     Element:   CL    Basis set:    DZVP-MOLOPT-PBE0-GTH-q7
 BASOPT|     Element:    H    Basis set:    DZVP-MOLOPT-PBE0-GTH-q1
 BASOPT|     Element:    F    Basis set:    DZVP-MOLOPT-PBE0-GTH-q7

 BASOPT| Information at iteration number:       0
 BASOPT| Training set | Combination | Rho difference | Condition num. | Time
 BASOPT| -----------------------------------------------------------------------
 BASOPT|        1     |       1     | 0.30668439E-02 | 0.21760209E+04 |    0.024
 BASOPT|        1     |       2     | 0.42891443E-02 | 0.19806148E+03 |    0.019
 BASOPT|        1     |       3     | 0.47221739E-02 | 0.12335936E+03 |    0.016
 BASOPT|        2     |       1     | 0.14498597E-02 | 0.53758970E+04 |    0.037
 BASOPT|        2     |       2     | 0.23286244E-02 | 0.50509168E+03 |    0.028
 BASOPT|        2     |       3     | 0.30973957E-02 | 0.20773327E+03 |    0.025
 BASOPT|        3     |       1     | 0.21290389E-02 | 0.80634946E+02 |    0.015
 BASOPT|        3     |       2     | 0.28467581E-02 | 0.70838597E+02 |    0.012
 BASOPT|        3     |       3     | 0.30128345E-02 | 0.18967644E+02 |    0.010
 BASOPT|        4     |       1     | 0.16473572E-02 | 0.75168597E+02 |    0.007
 BASOPT|        4     |       2     | 0.21672119E-02 | 0.63713256E+02 |    0.006
 BASOPT|        4     |       3     | 0.27394581E-02 | 0.17876288E+02 |    0.005
 BASOPT|        5     |       1     | 0.62353274E-03 | 0.66420051E+02 |    0.007
 BASOPT|        5     |       2     | 0.85497749E-03 | 0.60576140E+02 |    0.005
 BASOPT|        5     |       3     | 0.38425030E-02 | 0.48575914E+01 |    0.005
 BASOPT| -----------------------------------------------------------------------
 BASOPT| Total residuum value: -.21235120E+03

 BASOPT| Information at iteration number:     100
 BASOPT| Training set | Combination | Rho difference | Condition num. | Time
 BASOPT| -----------------------------------------------------------------------
 BASOPT|        1     |       1     | 0.31086831E-02 | 0.20186419E+04 |    2.123
 BASOPT|        1     |       2     | 0.42891443E-02 | 0.19806148E+03 |    1.599
 BASOPT|        1     |       3     | 0.47221739E-02 | 0.12335936E+03 |    1.386
 BASOPT|        2     |       1     | 0.14905233E-02 | 0.48457398E+04 |    3.631
 BASOPT|        2     |       2     | 0.23286244E-02 | 0.50509168E+03 |    2.677
 BASOPT|        2     |       3     | 0.30973957E-02 | 0.20773327E+03 |    2.149
 BASOPT|        3     |       1     | 0.21584744E-02 | 0.80721968E+02 |    1.169
 BASOPT|        3     |       2     | 0.28467581E-02 | 0.70838597E+02 |    0.947
 BASOPT|        3     |       3     | 0.30128345E-02 | 0.18967644E+02 |    0.827
 BASOPT|        4     |       1     | 0.16680520E-02 | 0.74572185E+02 |    0.678
 BASOPT|        4     |       2     | 0.21672119E-02 | 0.63713256E+02 |    0.514
 BASOPT|        4     |       3     | 0.27394581E-02 | 0.17876288E+02 |    0.434
 BASOPT|        5     |       1     | 0.62115124E-03 | 0.66532170E+02 |    0.598
 BASOPT|        5     |       2     | 0.85497749E-03 | 0.60576140E+02 |    0.456
 BASOPT|        5     |       3     | 0.38425030E-02 | 0.48575914E+01 |    0.415
 BASOPT| -----------------------------------------------------------------------
 BASOPT| Total residuum value: -.21234931E+03

 BASOPT| Information at iteration number:     200
 BASOPT| Training set | Combination | Rho difference | Condition num. | Time
 BASOPT| -----------------------------------------------------------------------
 BASOPT|        1     |       1     | 0.31270012E-02 | 0.20409952E+03 |    4.225
 BASOPT|        1     |       2     | 0.45489740E-02 | 0.13532780E+03 |    3.183
 BASOPT|        1     |       3     | 0.48470284E-02 | 0.11336519E+03 |    2.757
 BASOPT|        2     |       1     | 0.13677726E-02 | 0.51883704E+03 |    7.235
 BASOPT|        2     |       2     | 0.24457395E-02 | 0.26663527E+03 |    5.332
 BASOPT|        2     |       3     | 0.31728116E-02 | 0.18285012E+03 |    4.274
 BASOPT|        3     |       1     | 0.19666834E-02 | 0.32630215E+02 |    2.323
 BASOPT|        3     |       2     | 0.28608604E-02 | 0.30801290E+02 |    1.885
 BASOPT|        3     |       3     | 0.29993546E-02 | 0.19155946E+02 |    1.646
 BASOPT|        4     |       1     | 0.15333284E-02 | 0.28937530E+02 |    1.349
 BASOPT|        4     |       2     | 0.24118386E-02 | 0.25482055E+02 |    1.025
 BASOPT|        4     |       3     | 0.26380709E-02 | 0.18081499E+02 |    0.864
 BASOPT|        5     |       1     | 0.95354722E-03 | 0.38781078E+02 |    1.191
 BASOPT|        5     |       2     | 0.11239642E-02 | 0.37557023E+02 |    0.910
 BASOPT|        5     |       3     | 0.39925000E-02 | 0.47712838E+01 |    0.827
 BASOPT| -----------------------------------------------------------------------
 BASOPT| Total residuum value: -.21244488E+03

 BASOPT| Information at iteration number:     300
 BASOPT| Training set | Combination | Rho difference | Condition num. | Time
 BASOPT| -----------------------------------------------------------------------
 BASOPT|        1     |       1     | 0.30986376E-02 | 0.22838753E+03 |    6.335
 BASOPT|        1     |       2     | 0.43700731E-02 | 0.16577813E+03 |    4.771
 BASOPT|        1     |       3     | 0.47556894E-02 | 0.14696062E+03 |    4.131
 BASOPT|        2     |       1     | 0.14524077E-02 | 0.60355230E+03 |   10.844
 BASOPT|        2     |       2     | 0.26382081E-02 | 0.33382655E+03 |    7.987
 BASOPT|        2     |       3     | 0.37179517E-02 | 0.24947719E+03 |    6.403
 BASOPT|        3     |       1     | 0.19859767E-02 | 0.27560298E+02 |    3.478
 BASOPT|        3     |       2     | 0.29251164E-02 | 0.26460454E+02 |    2.824
 BASOPT|        3     |       3     | 0.30735465E-02 | 0.18227037E+02 |    2.466
 BASOPT|        4     |       1     | 0.14713114E-02 | 0.22782667E+02 |    2.019
 BASOPT|        4     |       2     | 0.26445653E-02 | 0.21367694E+02 |    1.535
 BASOPT|        4     |       3     | 0.28973229E-02 | 0.17095648E+02 |    1.293
 BASOPT|        5     |       1     | 0.98452948E-03 | 0.34253172E+02 |    1.785
 BASOPT|        5     |       2     | 0.10322340E-02 | 0.33597818E+02 |    1.363
 BASOPT|        5     |       3     | 0.39378298E-02 | 0.47352850E+01 |    1.237
 BASOPT| -----------------------------------------------------------------------
 BASOPT| Total residuum value: -.21242507E+03

 BASOPT| Information at iteration number:     400
 BASOPT| Training set | Combination | Rho difference | Condition num. | Time
 BASOPT| -----------------------------------------------------------------------
 BASOPT|        1     |       1     | 0.31388418E-02 | 0.18373120E+03 |    8.446
 BASOPT|        1     |       2     | 0.45361198E-02 | 0.12389830E+03 |    6.364
 BASOPT|        1     |       3     | 0.48570880E-02 | 0.11664054E+03 |    5.506
 BASOPT|        2     |       1     | 0.13656605E-02 | 0.46654542E+03 |   14.452
 BASOPT|        2     |       2     | 0.24339233E-02 | 0.23509651E+03 |   10.640
 BASOPT|        2     |       3     | 0.32163086E-02 | 0.18677272E+03 |    8.536
 BASOPT|        3     |       1     | 0.19799630E-02 | 0.25138663E+02 |    4.635
 BASOPT|        3     |       2     | 0.28704344E-02 | 0.24646494E+02 |    3.766
 BASOPT|        3     |       3     | 0.30411703E-02 | 0.19320263E+02 |    3.289
 BASOPT|        4     |       1     | 0.13647220E-02 | 0.24195471E+02 |    2.688
 BASOPT|        4     |       2     | 0.23659135E-02 | 0.21725394E+02 |    2.046
 BASOPT|        4     |       3     | 0.26016802E-02 | 0.18323688E+02 |    1.723
 BASOPT|        5     |       1     | 0.10574044E-02 | 0.32617569E+02 |    2.380
 BASOPT|        5     |       2     | 0.11908673E-02 | 0.32130092E+02 |    1.815
 BASOPT|        5     |       3     | 0.40017487E-02 | 0.48673044E+01 |    1.647
 BASOPT| -----------------------------------------------------------------------
 BASOPT| Total residuum value: -.21245420E+03

 BASOPT| Information at iteration number:     500
 BASOPT| Training set | Combination | Rho difference | Condition num. | Time
 BASOPT| -----------------------------------------------------------------------
 BASOPT|        1     |       1     | 0.31185030E-02 | 0.19961854E+03 |   10.562
 BASOPT|        1     |       2     | 0.44203457E-02 | 0.13460190E+03 |    7.962
 BASOPT|        1     |       3     | 0.46704061E-02 | 0.12745151E+03 |    6.889
 BASOPT|        2     |       1     | 0.13632621E-02 | 0.51561178E+03 |   18.073
 BASOPT|        2     |       2     | 0.24244324E-02 | 0.25793159E+03 |   13.299
 BASOPT|        2     |       3     | 0.30812161E-02 | 0.21065483E+03 |   10.671
 BASOPT|        3     |       1     | 0.19714283E-02 | 0.25041296E+02 |    5.796
 BASOPT|        3     |       2     | 0.28711335E-02 | 0.24511665E+02 |    4.709
 BASOPT|        3     |       3     | 0.30079811E-02 | 0.18741971E+02 |    4.113
 BASOPT|        4     |       1     | 0.13879109E-02 | 0.22271474E+02 |    3.358
 BASOPT|        4     |       2     | 0.24481761E-02 | 0.20773531E+02 |    2.557
 BASOPT|        4     |       3     | 0.26582791E-02 | 0.17802717E+02 |    2.153
 BASOPT|        5     |       1     | 0.96076215E-03 | 0.32068864E+02 |    2.976
 BASOPT|        5     |       2     | 0.10541313E-02 | 0.31599462E+02 |    2.268
 BASOPT|        5     |       3     | 0.38647011E-02 | 0.47669422E+01 |    2.058
 BASOPT| -----------------------------------------------------------------------
 BASOPT| Total residuum value: -.21246808E+03

 BASOPT| Information at iteration number:     600
 BASOPT| Training set | Combination | Rho difference | Condition num. | Time
 BASOPT| -----------------------------------------------------------------------
 BASOPT|        1     |       1     | 0.31184363E-02 | 0.19409524E+03 |   12.678
 BASOPT|        1     |       2     | 0.44258074E-02 | 0.13139542E+03 |    9.558
 BASOPT|        1     |       3     | 0.46760785E-02 | 0.12553018E+03 |    8.274
 BASOPT|        2     |       1     | 0.13616604E-02 | 0.49987633E+03 |   21.704
 BASOPT|        2     |       2     | 0.24246063E-02 | 0.24953346E+03 |   15.958
 BASOPT|        2     |       3     | 0.30737370E-02 | 0.20567305E+03 |   12.809
 BASOPT|        3     |       1     | 0.19701704E-02 | 0.24754668E+02 |    6.957
 BASOPT|        3     |       2     | 0.28697521E-02 | 0.24290577E+02 |    5.654
 BASOPT|        3     |       3     | 0.30033764E-02 | 0.18816728E+02 |    4.938
 BASOPT|        4     |       1     | 0.13827434E-02 | 0.22002605E+02 |    4.030
 BASOPT|        4     |       2     | 0.24424784E-02 | 0.20694925E+02 |    3.068
 BASOPT|        4     |       3     | 0.26480088E-02 | 0.17871526E+02 |    2.582
 BASOPT|        5     |       1     | 0.97470271E-03 | 0.31860198E+02 |    3.573
 BASOPT|        5     |       2     | 0.10673963E-02 | 0.31376178E+02 |    2.720
 BASOPT|        5     |       3     | 0.38586765E-02 | 0.47320896E+01 |    2.469
 BASOPT| -----------------------------------------------------------------------
 BASOPT| Total residuum value: -.21247020E+03

 BASOPT| Information at iteration number:     700
 BASOPT| Training set | Combination | Rho difference | Condition num. | Time
 BASOPT| -----------------------------------------------------------------------
 BASOPT|        1     |       1     | 0.31218323E-02 | 0.19319990E+03 |   14.794
 BASOPT|        1     |       2     | 0.44319759E-02 | 0.12911990E+03 |   11.154
 BASOPT|        1     |       3     | 0.46774654E-02 | 0.12342967E+03 |    9.660
 BASOPT|        2     |       1     | 0.13692494E-02 | 0.49720694E+03 |   25.339
 BASOPT|        2     |       2     | 0.24308536E-02 | 0.24581197E+03 |   18.632
 BASOPT|        2     |       3     | 0.30710625E-02 | 0.20331606E+03 |   14.948
 BASOPT|        3     |       1     | 0.19681647E-02 | 0.24342492E+02 |    8.120
 BASOPT|        3     |       2     | 0.28697400E-02 | 0.23911063E+02 |    6.600
 BASOPT|        3     |       3     | 0.30018988E-02 | 0.18803782E+02 |    5.765
 BASOPT|        4     |       1     | 0.13749915E-02 | 0.21992960E+02 |    4.701
 BASOPT|        4     |       2     | 0.24458302E-02 | 0.20571763E+02 |    3.579
 BASOPT|        4     |       3     | 0.26444337E-02 | 0.17907161E+02 |    3.012
 BASOPT|        5     |       1     | 0.96380952E-03 | 0.31434651E+02 |    4.170
 BASOPT|        5     |       2     | 0.10564607E-02 | 0.31000242E+02 |    3.173
 BASOPT|        5     |       3     | 0.38706462E-02 | 0.47567888E+01 |    2.880
 BASOPT| -----------------------------------------------------------------------
 BASOPT| Total residuum value: -.21247186E+03

 BASOPT| Information at iteration number:     800
 BASOPT| Training set | Combination | Rho difference | Condition num. | Time
 BASOPT| -----------------------------------------------------------------------
 BASOPT|        1     |       1     | 0.31126964E-02 | 0.19410725E+03 |   16.912
 BASOPT|        1     |       2     | 0.44171066E-02 | 0.12885905E+03 |   12.752
 BASOPT|        1     |       3     | 0.46618077E-02 | 0.12411081E+03 |   11.047
 BASOPT|        2     |       1     | 0.13687208E-02 | 0.50014408E+03 |   28.986
 BASOPT|        2     |       2     | 0.24381067E-02 | 0.24763666E+03 |   21.309
 BASOPT|        2     |       3     | 0.30708202E-02 | 0.20654085E+03 |   17.088
 BASOPT|        3     |       1     | 0.19671116E-02 | 0.24120828E+02 |    9.283
 BASOPT|        3     |       2     | 0.28727805E-02 | 0.23728760E+02 |    7.548
 BASOPT|        3     |       3     | 0.30049013E-02 | 0.18735806E+02 |    6.592
 BASOPT|        4     |       1     | 0.13713335E-02 | 0.21399173E+02 |    5.372
 BASOPT|        4     |       2     | 0.24671875E-02 | 0.20417823E+02 |    4.090
 BASOPT|        4     |       3     | 0.26716363E-02 | 0.17824936E+02 |    3.441
 BASOPT|        5     |       1     | 0.96176579E-03 | 0.31223501E+02 |    4.767
 BASOPT|        5     |       2     | 0.10474497E-02 | 0.30787631E+02 |    3.626
 BASOPT|        5     |       3     | 0.38629934E-02 | 0.48054668E+01 |    3.291
 BASOPT| -----------------------------------------------------------------------
 BASOPT| Total residuum value: -.21247337E+03

 BASOPT| Information at iteration number:     900
 BASOPT| Training set | Combination | Rho difference | Condition num. | Time
 BASOPT| -----------------------------------------------------------------------
 BASOPT|        1     |       1     | 0.31042356E-02 | 0.19475249E+03 |   19.031
 BASOPT|        1     |       2     | 0.44209796E-02 | 0.12803643E+03 |   14.349
 BASOPT|        1     |       3     | 0.46656392E-02 | 0.12361513E+03 |   12.431
 BASOPT|        2     |       1     | 0.13638877E-02 | 0.50354927E+03 |   32.648
 BASOPT|        2     |       2     | 0.24412465E-02 | 0.24768534E+03 |   23.985
 BASOPT|        2     |       3     | 0.30774655E-02 | 0.20685553E+03 |   19.229
 BASOPT|        3     |       1     | 0.19613014E-02 | 0.24131930E+02 |   10.446
 BASOPT|        3     |       2     | 0.28731975E-02 | 0.23723688E+02 |    8.498
 BASOPT|        3     |       3     | 0.30058713E-02 | 0.18712481E+02 |    7.422
 BASOPT|        4     |       1     | 0.13732853E-02 | 0.21465266E+02 |    6.044
 BASOPT|        4     |       2     | 0.24738417E-02 | 0.20493523E+02 |    4.602
 BASOPT|        4     |       3     | 0.26839620E-02 | 0.17849791E+02 |    3.871
 BASOPT|        5     |       1     | 0.95801607E-03 | 0.31324809E+02 |    5.364
 BASOPT|        5     |       2     | 0.10452412E-02 | 0.30831716E+02 |    4.080
 BASOPT|        5     |       3     | 0.38621420E-02 | 0.48770106E+01 |    3.703
 BASOPT| -----------------------------------------------------------------------
 BASOPT| Total residuum value: -.21247384E+03

 BASOPT| Information at iteration number:    1000
 BASOPT| Training set | Combination | Rho difference | Condition num. | Time
 BASOPT| -----------------------------------------------------------------------
 BASOPT|        1     |       1     | 0.30914112E-02 | 0.19203208E+03 |   21.152
 BASOPT|        1     |       2     | 0.44271856E-02 | 0.12620408E+03 |   15.946
 BASOPT|        1     |       3     | 0.46748806E-02 | 0.12198836E+03 |   13.817
 BASOPT|        2     |       1     | 0.13560749E-02 | 0.49380248E+03 |   36.302
 BASOPT|        2     |       2     | 0.24418243E-02 | 0.24300104E+03 |   26.663
 BASOPT|        2     |       3     | 0.30761191E-02 | 0.20327984E+03 |   21.370
 BASOPT|        3     |       1     | 0.19540972E-02 | 0.24195547E+02 |   11.611
 BASOPT|        3     |       2     | 0.28707211E-02 | 0.23788014E+02 |    9.449
 BASOPT|        3     |       3     | 0.30043717E-02 | 0.18761101E+02 |    8.252
 BASOPT|        4     |       1     | 0.13717236E-02 | 0.21773997E+02 |    6.716
 BASOPT|        4     |       2     | 0.24579942E-02 | 0.20620272E+02 |    5.114
 BASOPT|        4     |       3     | 0.26737629E-02 | 0.17906859E+02 |    4.301
 BASOPT|        5     |       1     | 0.96060301E-03 | 0.31416752E+02 |    5.962
 BASOPT|        5     |       2     | 0.10542407E-02 | 0.30881473E+02 |    4.533
 BASOPT|        5     |       3     | 0.38621860E-02 | 0.48615545E+01 |    4.114
 BASOPT| -----------------------------------------------------------------------
 BASOPT| Total residuum value: -.21247473E+03

 BASOPT| Information at iteration number:    1100
 BASOPT| Training set | Combination | Rho difference | Condition num. | Time
 BASOPT| -----------------------------------------------------------------------
 BASOPT|        1     |       1     | 0.30857561E-02 | 0.19034722E+03 |   23.275
 BASOPT|        1     |       2     | 0.44219908E-02 | 0.12584352E+03 |   17.543
 BASOPT|        1     |       3     | 0.46718822E-02 | 0.12210698E+03 |   15.201
 BASOPT|        2     |       1     | 0.13498679E-02 | 0.48792643E+03 |   39.928
 BASOPT|        2     |       2     | 0.24405009E-02 | 0.24169248E+03 |   29.342
 BASOPT|        2     |       3     | 0.30762979E-02 | 0.20336782E+03 |   23.513
 BASOPT|        3     |       1     | 0.19523485E-02 | 0.24213160E+02 |   12.776
 BASOPT|        3     |       2     | 0.28707478E-02 | 0.23784051E+02 |   10.404
 BASOPT|        3     |       3     | 0.30053340E-02 | 0.18745816E+02 |    9.083
 BASOPT|        4     |       1     | 0.13710552E-02 | 0.22033274E+02 |    7.387
 BASOPT|        4     |       2     | 0.24526756E-02 | 0.20668185E+02 |    5.625
 BASOPT|        4     |       3     | 0.26748944E-02 | 0.17896926E+02 |    4.730
 BASOPT|        5     |       1     | 0.96145127E-03 | 0.31441707E+02 |    6.559
 BASOPT|        5     |       2     | 0.10547846E-02 | 0.30897007E+02 |    4.986
 BASOPT|        5     |       3     | 0.38607016E-02 | 0.48378969E+01 |    4.524
 BASOPT| -----------------------------------------------------------------------
 BASOPT| Total residuum value: -.21247510E+03

 BASOPT| Information at iteration number:    1200
 BASOPT| Training set | Combination | Rho difference | Condition num. | Time
 BASOPT| -----------------------------------------------------------------------
 BASOPT|        1     |       1     | 0.30816780E-02 | 0.19234832E+03 |   25.401
 BASOPT|        1     |       2     | 0.44227968E-02 | 0.12639600E+03 |   19.142
 BASOPT|        1     |       3     | 0.46740673E-02 | 0.12234336E+03 |   16.588
 BASOPT|        2     |       1     | 0.13468764E-02 | 0.49193822E+03 |   43.550
 BASOPT|        2     |       2     | 0.24406308E-02 | 0.24245577E+03 |   32.015
 BASOPT|        2     |       3     | 0.30752769E-02 | 0.20371855E+03 |   25.658
 BASOPT|        3     |       1     | 0.19499573E-02 | 0.24174874E+02 |   13.941
 BASOPT|        3     |       2     | 0.28702575E-02 | 0.23730493E+02 |   11.362
 BASOPT|        3     |       3     | 0.30044138E-02 | 0.18711974E+02 |    9.914
 BASOPT|        4     |       1     | 0.13752105E-02 | 0.21962367E+02 |    8.056
 BASOPT|        4     |       2     | 0.24539383E-02 | 0.20627800E+02 |    6.137
 BASOPT|        4     |       3     | 0.26745653E-02 | 0.17877898E+02 |    5.160
 BASOPT|        5     |       1     | 0.95353516E-03 | 0.31378220E+02 |    7.156
 BASOPT|        5     |       2     | 0.10485873E-02 | 0.30829947E+02 |    5.440
 BASOPT|        5     |       3     | 0.38630116E-02 | 0.48231612E+01 |    4.935
 BASOPT| -----------------------------------------------------------------------
 BASOPT| Total residuum value: -.21247528E+03

 BASOPT| Information at iteration number:    1300
 BASOPT| Training set | Combination | Rho difference | Condition num. | Time
 BASOPT| -----------------------------------------------------------------------
 BASOPT|        1     |       1     | 0.30754437E-02 | 0.19386531E+03 |   27.526
 BASOPT|        1     |       2     | 0.44206055E-02 | 0.12689508E+03 |   20.743
 BASOPT|        1     |       3     | 0.46730971E-02 | 0.12252832E+03 |   17.975
 BASOPT|        2     |       1     | 0.13441118E-02 | 0.49488756E+03 |   47.160
 BASOPT|        2     |       2     | 0.24413571E-02 | 0.24345574E+03 |   34.686
 BASOPT|        2     |       3     | 0.30749216E-02 | 0.20415124E+03 |   27.806
 BASOPT|        3     |       1     | 0.19490631E-02 | 0.24235673E+02 |   15.106
 BASOPT|        3     |       2     | 0.28707689E-02 | 0.23770030E+02 |   12.311
 BASOPT|        3     |       3     | 0.30048323E-02 | 0.18725519E+02 |   10.748
 BASOPT|        4     |       1     | 0.13765135E-02 | 0.21942681E+02 |    8.725
 BASOPT|        4     |       2     | 0.24536833E-02 | 0.20619732E+02 |    6.649
 BASOPT|        4     |       3     | 0.26729552E-02 | 0.17876864E+02 |    5.589
 BASOPT|        5     |       1     | 0.94976793E-03 | 0.31391547E+02 |    7.753
 BASOPT|        5     |       2     | 0.10457131E-02 | 0.30838711E+02 |    5.893
 BASOPT|        5     |       3     | 0.38634710E-02 | 0.48208360E+01 |    5.345
 BASOPT| -----------------------------------------------------------------------
 BASOPT| Total residuum value: -.21247534E+03

 BASOPT| Information at iteration number:    1400
 BASOPT| Training set | Combination | Rho difference | Condition num. | Time
 BASOPT| -----------------------------------------------------------------------
 BASOPT|        1     |       1     | 0.30759705E-02 | 0.19406302E+03 |   29.652
 BASOPT|        1     |       2     | 0.44240015E-02 | 0.12700823E+03 |   22.345
 BASOPT|        1     |       3     | 0.46734551E-02 | 0.12195660E+03 |   19.361
 BASOPT|        2     |       1     | 0.13436671E-02 | 0.49375512E+03 |   50.759
 BASOPT|        2     |       2     | 0.24434290E-02 | 0.24256708E+03 |   37.359
 BASOPT|        2     |       3     | 0.30784194E-02 | 0.20180992E+03 |   29.955
 BASOPT|        3     |       1     | 0.19452243E-02 | 0.24236759E+02 |   16.271
 BASOPT|        3     |       2     | 0.28688070E-02 | 0.23793208E+02 |   13.260
 BASOPT|        3     |       3     | 0.30023319E-02 | 0.18783918E+02 |   11.582
 BASOPT|        4     |       1     | 0.13746330E-02 | 0.21910920E+02 |    9.394
 BASOPT|        4     |       2     | 0.24542695E-02 | 0.20647608E+02 |    7.160
 BASOPT|        4     |       3     | 0.26705682E-02 | 0.17911312E+02 |    6.018
 BASOPT|        5     |       1     | 0.95414112E-03 | 0.31424876E+02 |    8.351
 BASOPT|        5     |       2     | 0.10494648E-02 | 0.30865677E+02 |    6.345
 BASOPT|        5     |       3     | 0.38586736E-02 | 0.48270315E+01 |    5.755
 BASOPT| -----------------------------------------------------------------------
 BASOPT| Total residuum value: -.21247532E+03

 BASOPT| Information at iteration number:    1500
 BASOPT| Training set | Combination | Rho difference | Condition num. | Time
 BASOPT| -----------------------------------------------------------------------
 BASOPT|        1     |       1     | 0.30752740E-02 | 0.19321772E+03 |   31.777
 BASOPT|        1     |       2     | 0.44330410E-02 | 0.12601155E+03 |   23.949
 BASOPT|        1     |       3     | 0.46828293E-02 | 0.12169024E+03 |   20.750
 BASOPT|        2     |       1     | 0.13422241E-02 | 0.49088059E+03 |   54.358
 BASOPT|        2     |       2     | 0.24412296E-02 | 0.24063687E+03 |   40.032
 BASOPT|        2     |       3     | 0.30766352E-02 | 0.20159204E+03 |   32.103
 BASOPT|        3     |       1     | 0.19459831E-02 | 0.24299231E+02 |   17.436
 BASOPT|        3     |       2     | 0.28680568E-02 | 0.23872529E+02 |   14.210
 BASOPT|        3     |       3     | 0.30015268E-02 | 0.18745485E+02 |   12.415
 BASOPT|        4     |       1     | 0.13697945E-02 | 0.21883084E+02 |   10.063
 BASOPT|        4     |       2     | 0.24437134E-02 | 0.20681636E+02 |    7.672
 BASOPT|        4     |       3     | 0.26651167E-02 | 0.17889631E+02 |    6.448
 BASOPT|        5     |       1     | 0.95813089E-03 | 0.31480996E+02 |    8.948
 BASOPT|        5     |       2     | 0.10576264E-02 | 0.30893280E+02 |    6.797
 BASOPT|        5     |       3     | 0.38709018E-02 | 0.48223035E+01 |    6.166
 BASOPT| -----------------------------------------------------------------------
 BASOPT| Total residuum value: -.21247533E+03

 BASOPT| Information at iteration number:    1600
 BASOPT| Training set | Combination | Rho difference | Condition num. | Time
 BASOPT| -----------------------------------------------------------------------
 BASOPT|        1     |       1     | 0.30758333E-02 | 0.19587036E+03 |   33.902
 BASOPT|        1     |       2     | 0.44285271E-02 | 0.12703099E+03 |   25.551
 BASOPT|        1     |       3     | 0.46788263E-02 | 0.12236744E+03 |   22.138
 BASOPT|        2     |       1     | 0.13409021E-02 | 0.49931864E+03 |   57.960
 BASOPT|        2     |       2     | 0.24374302E-02 | 0.24366228E+03 |   42.706
 BASOPT|        2     |       3     | 0.30706282E-02 | 0.20350014E+03 |   34.253
 BASOPT|        3     |       1     | 0.19475246E-02 | 0.24243393E+02 |   18.601
 BASOPT|        3     |       2     | 0.28691753E-02 | 0.23827259E+02 |   15.163
 BASOPT|        3     |       3     | 0.30027927E-02 | 0.18747806E+02 |   13.249
 BASOPT|        4     |       1     | 0.13687461E-02 | 0.21943955E+02 |   10.734
 BASOPT|        4     |       2     | 0.24458082E-02 | 0.20697657E+02 |    8.184
 BASOPT|        4     |       3     | 0.26648643E-02 | 0.17903005E+02 |    6.877
 BASOPT|        5     |       1     | 0.94598038E-03 | 0.31486229E+02 |    9.545
 BASOPT|        5     |       2     | 0.10436362E-02 | 0.30892187E+02 |    7.251
 BASOPT|        5     |       3     | 0.38688216E-02 | 0.48188555E+01 |    6.577
 BASOPT| -----------------------------------------------------------------------
 BASOPT| Total residuum value: -.21247555E+03

 BASOPT| Information at iteration number:    1700
 BASOPT| Training set | Combination | Rho difference | Condition num. | Time
 BASOPT| -----------------------------------------------------------------------
 BASOPT|        1     |       1     | 0.30744949E-02 | 0.19475867E+03 |   36.028
 BASOPT|        1     |       2     | 0.44207627E-02 | 0.12697826E+03 |   27.154
 BASOPT|        1     |       3     | 0.46728472E-02 | 0.12232255E+03 |   23.529
 BASOPT|        2     |       1     | 0.13394656E-02 | 0.49534325E+03 |   61.562
 BASOPT|        2     |       2     | 0.24375139E-02 | 0.24313465E+03 |   45.377
 BASOPT|        2     |       3     | 0.30721077E-02 | 0.20272452E+03 |   36.403
 BASOPT|        3     |       1     | 0.19465884E-02 | 0.24315355E+02 |   19.766
 BASOPT|        3     |       2     | 0.28684239E-02 | 0.23920197E+02 |   16.112
 BASOPT|        3     |       3     | 0.30033768E-02 | 0.18774066E+02 |   14.082
 BASOPT|        4     |       1     | 0.13625238E-02 | 0.22062843E+02 |   11.404
 BASOPT|        4     |       2     | 0.24444960E-02 | 0.20787923E+02 |    8.696
 BASOPT|        4     |       3     | 0.26687061E-02 | 0.17925120E+02 |    7.306
 BASOPT|        5     |       1     | 0.94932302E-03 | 0.31615772E+02 |   10.142
 BASOPT|        5     |       2     | 0.10429847E-02 | 0.31007513E+02 |    7.703
 BASOPT|        5     |       3     | 0.38600526E-02 | 0.48201335E+01 |    6.986
 BASOPT| -----------------------------------------------------------------------
 BASOPT| Total residuum value: -.21247566E+03

 BASOPT| Information at iteration number:    1800
 BASOPT| Training set | Combination | Rho difference | Condition num. | Time
 BASOPT| -----------------------------------------------------------------------
 BASOPT|        1     |       1     | 0.30748538E-02 | 0.19463183E+03 |   38.155
 BASOPT|        1     |       2     | 0.44188622E-02 | 0.12668424E+03 |   28.757
 BASOPT|        1     |       3     | 0.46737428E-02 | 0.12220323E+03 |   24.918
 BASOPT|        2     |       1     | 0.13400035E-02 | 0.49492358E+03 |   65.173
 BASOPT|        2     |       2     | 0.24378966E-02 | 0.24291532E+03 |   48.052
 BASOPT|        2     |       3     | 0.30731633E-02 | 0.20311462E+03 |   38.548
 BASOPT|        3     |       1     | 0.19470101E-02 | 0.24349324E+02 |   20.933
 BASOPT|        3     |       2     | 0.28685080E-02 | 0.23965248E+02 |   17.064
 BASOPT|        3     |       3     | 0.30034166E-02 | 0.18729208E+02 |   14.915
 BASOPT|        4     |       1     | 0.13598772E-02 | 0.22047474E+02 |   12.074
 BASOPT|        4     |       2     | 0.24448399E-02 | 0.20814121E+02 |    9.208
 BASOPT|        4     |       3     | 0.26714528E-02 | 0.17908732E+02 |    7.736
 BASOPT|        5     |       1     | 0.94576723E-03 | 0.31670015E+02 |   10.739
 BASOPT|        5     |       2     | 0.10384576E-02 | 0.31049843E+02 |    8.156
 BASOPT|        5     |       3     | 0.38644867E-02 | 0.48235582E+01 |    7.397
 BASOPT| -----------------------------------------------------------------------
 BASOPT| Total residuum value: -.21247570E+03

 BASOPT| Information at iteration number:    1900
 BASOPT| Training set | Combination | Rho difference | Condition num. | Time
 BASOPT| -----------------------------------------------------------------------
 BASOPT|        1     |       1     | 0.30728729E-02 | 0.19485188E+03 |   40.281
 BASOPT|        1     |       2     | 0.44197285E-02 | 0.12675119E+03 |   30.357
 BASOPT|        1     |       3     | 0.46730407E-02 | 0.12205746E+03 |   26.308
 BASOPT|        2     |       1     | 0.13398276E-02 | 0.49485550E+03 |   68.789
 BASOPT|        2     |       2     | 0.24390779E-02 | 0.24285426E+03 |   50.727
 BASOPT|        2     |       3     | 0.30738959E-02 | 0.20264684E+03 |   40.691
 BASOPT|        3     |       1     | 0.19466437E-02 | 0.24349504E+02 |   22.100
 BASOPT|        3     |       2     | 0.28686706E-02 | 0.23962175E+02 |   18.013
 BASOPT|        3     |       3     | 0.30034899E-02 | 0.18755560E+02 |   15.749
 BASOPT|        4     |       1     | 0.13602096E-02 | 0.22040206E+02 |   12.744
 BASOPT|        4     |       2     | 0.24443290E-02 | 0.20810118E+02 |    9.720
 BASOPT|        4     |       3     | 0.26690538E-02 | 0.17922332E+02 |    8.165
 BASOPT|        5     |       1     | 0.94745224E-03 | 0.31685449E+02 |   11.337
 BASOPT|        5     |       2     | 0.10408769E-02 | 0.31058182E+02 |    8.610
 BASOPT|        5     |       3     | 0.38616431E-02 | 0.48260542E+01 |    7.807
 BASOPT| -----------------------------------------------------------------------
 BASOPT| Total residuum value: -.21247573E+03

 BASOPT| Information at iteration number:    2000
 BASOPT| Training set | Combination | Rho difference | Condition num. | Time
 BASOPT| -----------------------------------------------------------------------
 BASOPT|        1     |       1     | 0.30714433E-02 | 0.19591898E+03 |   42.405
 BASOPT|        1     |       2     | 0.44197787E-02 | 0.12700644E+03 |   31.957
 BASOPT|        1     |       3     | 0.46742406E-02 | 0.12219352E+03 |   27.699
 BASOPT|        2     |       1     | 0.13383442E-02 | 0.49763047E+03 |   72.416
 BASOPT|        2     |       2     | 0.24381770E-02 | 0.24367741E+03 |   53.404
 BASOPT|        2     |       3     | 0.30730175E-02 | 0.20314091E+03 |   42.834
 BASOPT|        3     |       1     | 0.19455610E-02 | 0.24408736E+02 |   23.270
 BASOPT|        3     |       2     | 0.28684036E-02 | 0.24024446E+02 |   18.964
 BASOPT|        3     |       3     | 0.30036748E-02 | 0.18739947E+02 |   16.582
 BASOPT|        4     |       1     | 0.13603627E-02 | 0.22056542E+02 |   13.415
 BASOPT|        4     |       2     | 0.24454672E-02 | 0.20852373E+02 |   10.232
 BASOPT|        4     |       3     | 0.26746514E-02 | 0.17906126E+02 |    8.595
 BASOPT|        5     |       1     | 0.94466376E-03 | 0.31744902E+02 |   11.934
 BASOPT|        5     |       2     | 0.10380256E-02 | 0.31118360E+02 |    9.063
 BASOPT|        5     |       3     | 0.38636517E-02 | 0.48318794E+01 |    8.218
 BASOPT| -----------------------------------------------------------------------
 BASOPT| Total residuum value: -.21247578E+03

 BASOPT| Information at iteration number:    2100
 BASOPT| Training set | Combination | Rho difference | Condition num. | Time
 BASOPT| -----------------------------------------------------------------------
 BASOPT|        1     |       1     | 0.30686314E-02 | 0.19682505E+03 |   44.533
 BASOPT|        1     |       2     | 0.44197665E-02 | 0.12715486E+03 |   33.558
 BASOPT|        1     |       3     | 0.46761564E-02 | 0.12225857E+03 |   29.091
 BASOPT|        2     |       1     | 0.13363791E-02 | 0.49886724E+03 |   76.042
 BASOPT|        2     |       2     | 0.24372446E-02 | 0.24396717E+03 |   56.081
 BASOPT|        2     |       3     | 0.30730688E-02 | 0.20316006E+03 |   44.978
 BASOPT|        3     |       1     | 0.19439363E-02 | 0.24488673E+02 |   24.438
 BASOPT|        3     |       2     | 0.28675160E-02 | 0.24112800E+02 |   19.916
 BASOPT|        3     |       3     | 0.30039258E-02 | 0.18723617E+02 |   17.416
 BASOPT|        4     |       1     | 0.13582332E-02 | 0.22097360E+02 |   14.087
 BASOPT|        4     |       2     | 0.24426982E-02 | 0.20912141E+02 |   10.744
 BASOPT|        4     |       3     | 0.26786418E-02 | 0.17880055E+02 |    9.024
 BASOPT|        5     |       1     | 0.94221696E-03 | 0.31849645E+02 |   12.531
 BASOPT|        5     |       2     | 0.10360294E-02 | 0.31186599E+02 |    9.516
 BASOPT|        5     |       3     | 0.38666416E-02 | 0.48283558E+01 |    8.628
 BASOPT| -----------------------------------------------------------------------
 BASOPT| Total residuum value: -.21247587E+03

 BASOPT| Information at iteration number:    2200
 BASOPT| Training set | Combination | Rho difference | Condition num. | Time
 BASOPT| -----------------------------------------------------------------------
 BASOPT|        1     |       1     | 0.30637650E-02 | 0.19814377E+03 |   46.661
 BASOPT|        1     |       2     | 0.44164914E-02 | 0.12759709E+03 |   35.161
 BASOPT|        1     |       3     | 0.46753612E-02 | 0.12238396E+03 |   30.483
 BASOPT|        2     |       1     | 0.13350025E-02 | 0.50106971E+03 |   79.676
 BASOPT|        2     |       2     | 0.24381257E-02 | 0.24485780E+03 |   58.764
 BASOPT|        2     |       3     | 0.30748849E-02 | 0.20328465E+03 |   47.126
 BASOPT|        3     |       1     | 0.19417685E-02 | 0.24617186E+02 |   25.613
 BASOPT|        3     |       2     | 0.28667981E-02 | 0.24243568E+02 |   20.870
 BASOPT|        3     |       3     | 0.30041718E-02 | 0.18720175E+02 |   18.250
 BASOPT|        4     |       1     | 0.13567167E-02 | 0.22160618E+02 |   14.761
 BASOPT|        4     |       2     | 0.24418092E-02 | 0.20988168E+02 |   11.257
 BASOPT|        4     |       3     | 0.26831834E-02 | 0.17860336E+02 |    9.458
 BASOPT|        5     |       1     | 0.93940685E-03 | 0.31986248E+02 |   13.129
 BASOPT|        5     |       2     | 0.10327531E-02 | 0.31288898E+02 |    9.968
 BASOPT|        5     |       3     | 0.38655758E-02 | 0.48259881E+01 |    9.040
 BASOPT| -----------------------------------------------------------------------
 BASOPT| Total residuum value: -.21247596E+03

 BASOPT| Information at iteration number:    2300
 BASOPT| Training set | Combination | Rho difference | Condition num. | Time
 BASOPT| -----------------------------------------------------------------------
 BASOPT|        1     |       1     | 0.30604549E-02 | 0.19829657E+03 |   48.788
 BASOPT|        1     |       2     | 0.44150428E-02 | 0.12766554E+03 |   36.763
 BASOPT|        1     |       3     | 0.46751154E-02 | 0.12239306E+03 |   31.872
 BASOPT|        2     |       1     | 0.13340512E-02 | 0.50065993E+03 |   83.313
 BASOPT|        2     |       2     | 0.24392694E-02 | 0.24489472E+03 |   61.446
 BASOPT|        2     |       3     | 0.30772586E-02 | 0.20327376E+03 |   49.271
 BASOPT|        3     |       1     | 0.19406357E-02 | 0.24711337E+02 |   26.781
 BASOPT|        3     |       2     | 0.28665870E-02 | 0.24336296E+02 |   21.825
 BASOPT|        3     |       3     | 0.30042190E-02 | 0.18722914E+02 |   19.083
 BASOPT|        4     |       1     | 0.13554722E-02 | 0.22225287E+02 |   15.433
 BASOPT|        4     |       2     | 0.24402755E-02 | 0.21044063E+02 |   11.770
 BASOPT|        4     |       3     | 0.26838650E-02 | 0.17857317E+02 |    9.887
 BASOPT|        5     |       1     | 0.94057598E-03 | 0.32094108E+02 |   13.727
 BASOPT|        5     |       2     | 0.10338038E-02 | 0.31365560E+02 |   10.422
 BASOPT|        5     |       3     | 0.38625778E-02 | 0.48210732E+01 |    9.450
 BASOPT| -----------------------------------------------------------------------
 BASOPT| Total residuum value: -.21247601E+03

 BASOPT| Information at iteration number:    2400
 BASOPT| Training set | Combination | Rho difference | Condition num. | Time
 BASOPT| -----------------------------------------------------------------------
 BASOPT|        1     |       1     | 0.30566493E-02 | 0.19853445E+03 |   50.922
 BASOPT|        1     |       2     | 0.44130945E-02 | 0.12767062E+03 |   38.365
 BASOPT|        1     |       3     | 0.46746007E-02 | 0.12247305E+03 |   33.261
 BASOPT|        2     |       1     | 0.13314421E-02 | 0.50135194E+03 |   86.949
 BASOPT|        2     |       2     | 0.24384137E-02 | 0.24538498E+03 |   64.133
 BASOPT|        2     |       3     | 0.30769447E-02 | 0.20378805E+03 |   51.419
 BASOPT|        3     |       1     | 0.19397993E-02 | 0.24750117E+02 |   27.949
 BASOPT|        3     |       2     | 0.28665151E-02 | 0.24374117E+02 |   22.781
 BASOPT|        3     |       3     | 0.30047443E-02 | 0.18710024E+02 |   19.919
 BASOPT|        4     |       1     | 0.13558661E-02 | 0.22236643E+02 |   16.103
 BASOPT|        4     |       2     | 0.24407680E-02 | 0.21057240E+02 |   12.283
 BASOPT|        4     |       3     | 0.26877505E-02 | 0.17833881E+02 |   10.317
 BASOPT|        5     |       1     | 0.94026356E-03 | 0.32100782E+02 |   14.325
 BASOPT|        5     |       2     | 0.10338408E-02 | 0.31374247E+02 |   10.875
 BASOPT|        5     |       3     | 0.38651003E-02 | 0.48169219E+01 |    9.861
 BASOPT| -----------------------------------------------------------------------
 BASOPT| Total residuum value: -.21247609E+03

 BASOPT| Information at iteration number:    2500
 BASOPT| Training set | Combination | Rho difference | Condition num. | Time
 BASOPT| -----------------------------------------------------------------------
 BASOPT|        1     |       1     | 0.30542467E-02 | 0.19965890E+03 |   53.057
 BASOPT|        1     |       2     | 0.44134059E-02 | 0.12789723E+03 |   39.968
 BASOPT|        1     |       3     | 0.46750350E-02 | 0.12253305E+03 |   34.653
 BASOPT|        2     |       1     | 0.13289862E-02 | 0.50441958E+03 |   90.584
 BASOPT|        2     |       2     | 0.24368026E-02 | 0.24624912E+03 |   66.818
 BASOPT|        2     |       3     | 0.30751306E-02 | 0.20428755E+03 |   53.566
 BASOPT|        3     |       1     | 0.19387504E-02 | 0.24771560E+02 |   29.117
 BASOPT|        3     |       2     | 0.28663104E-02 | 0.24390779E+02 |   23.736
 BASOPT|        3     |       3     | 0.30042310E-02 | 0.18696340E+02 |   20.752
 BASOPT|        4     |       1     | 0.13577571E-02 | 0.22257319E+02 |   16.772
 BASOPT|        4     |       2     | 0.24415508E-02 | 0.21063550E+02 |   12.795
 BASOPT|        4     |       3     | 0.26875228E-02 | 0.17819092E+02 |   10.746
 BASOPT|        5     |       1     | 0.93692474E-03 | 0.32074073E+02 |   14.922
 BASOPT|        5     |       2     | 0.10315677E-02 | 0.31353730E+02 |   11.327
 BASOPT|        5     |       3     | 0.38683520E-02 | 0.48075473E+01 |   10.271
 BASOPT| -----------------------------------------------------------------------
 BASOPT| Total residuum value: -.21247613E+03

 BASOPT| Information at iteration number:    2600
 BASOPT| Training set | Combination | Rho difference | Condition num. | Time
 BASOPT| -----------------------------------------------------------------------
 BASOPT|        1     |       1     | 0.30517416E-02 | 0.20082869E+03 |   55.193
 BASOPT|        1     |       2     | 0.44127955E-02 | 0.12837261E+03 |   41.570
 BASOPT|        1     |       3     | 0.46737689E-02 | 0.12283217E+03 |   36.042
 BASOPT|        2     |       1     | 0.13273296E-02 | 0.50741825E+03 |   94.218
 BASOPT|        2     |       2     | 0.24372025E-02 | 0.24732944E+03 |   69.497
 BASOPT|        2     |       3     | 0.30744211E-02 | 0.20493343E+03 |   55.716
 BASOPT|        3     |       1     | 0.19373398E-02 | 0.24771701E+02 |   30.284
 BASOPT|        3     |       2     | 0.28663213E-02 | 0.24388698E+02 |   24.693
 BASOPT|        3     |       3     | 0.30039672E-02 | 0.18698419E+02 |   21.587
 BASOPT|        4     |       1     | 0.13598896E-02 | 0.22259742E+02 |   17.442
 BASOPT|        4     |       2     | 0.24447746E-02 | 0.21051086E+02 |   13.308
 BASOPT|        4     |       3     | 0.26888682E-02 | 0.17804565E+02 |   11.176
 BASOPT|        5     |       1     | 0.93648839E-03 | 0.32025620E+02 |   15.521
 BASOPT|        5     |       2     | 0.10311648E-02 | 0.31311631E+02 |   11.780
 BASOPT|        5     |       3     | 0.38660786E-02 | 0.47936623E+01 |   10.683
 BASOPT| -----------------------------------------------------------------------
 BASOPT| Total residuum value: -.21247618E+03

 BASOPT| Information at iteration number:    2700
 BASOPT| Training set | Combination | Rho difference | Condition num. | Time
 BASOPT| -----------------------------------------------------------------------
 BASOPT|        1     |       1     | 0.30496269E-02 | 0.20099500E+03 |   57.328
 BASOPT|        1     |       2     | 0.44094115E-02 | 0.12839238E+03 |   43.170
 BASOPT|        1     |       3     | 0.46732511E-02 | 0.12297151E+03 |   37.431
 BASOPT|        2     |       1     | 0.13250916E-02 | 0.50768396E+03 |   97.856
 BASOPT|        2     |       2     | 0.24357491E-02 | 0.24745910E+03 |   72.188
 BASOPT|        2     |       3     | 0.30748186E-02 | 0.20541778E+03 |   57.868
 BASOPT|        3     |       1     | 0.19373722E-02 | 0.24800065E+02 |   31.451
 BASOPT|        3     |       2     | 0.28659519E-02 | 0.24426818E+02 |   25.649
 BASOPT|        3     |       3     | 0.30042551E-02 | 0.18677252E+02 |   22.422
 BASOPT|        4     |       1     | 0.13577042E-02 | 0.22227715E+02 |   18.111
 BASOPT|        4     |       2     | 0.24445027E-02 | 0.21053300E+02 |   13.820
 BASOPT|        4     |       3     | 0.26925079E-02 | 0.17785703E+02 |   11.606
 BASOPT|        5     |       1     | 0.93640665E-03 | 0.32059246E+02 |   16.119
 BASOPT|        5     |       2     | 0.10300908E-02 | 0.31329492E+02 |   12.233
 BASOPT|        5     |       3     | 0.38664695E-02 | 0.47900737E+01 |   11.093
 BASOPT| -----------------------------------------------------------------------
 BASOPT| Total residuum value: -.21247626E+03

 BASOPT| Information at iteration number:    2800
 BASOPT| Training set | Combination | Rho difference | Condition num. | Time
 BASOPT| -----------------------------------------------------------------------
 BASOPT|        1     |       1     | 0.30489846E-02 | 0.20008573E+03 |   59.463
 BASOPT|        1     |       2     | 0.44094918E-02 | 0.12793898E+03 |   44.769
 BASOPT|        1     |       3     | 0.46741083E-02 | 0.12284699E+03 |   38.818
 BASOPT|        2     |       1     | 0.13246360E-02 | 0.50552853E+03 |  101.496
 BASOPT|        2     |       2     | 0.24351538E-02 | 0.24666688E+03 |   74.879
 BASOPT|        2     |       3     | 0.30757331E-02 | 0.20528657E+03 |   60.021
 BASOPT|        3     |       1     | 0.19382820E-02 | 0.24807818E+02 |   32.618
 BASOPT|        3     |       2     | 0.28658526E-02 | 0.24448010E+02 |   26.604
 BASOPT|        3     |       3     | 0.30051160E-02 | 0.18677590E+02 |   23.258
 BASOPT|        4     |       1     | 0.13552236E-02 | 0.22217879E+02 |   18.781
 BASOPT|        4     |       2     | 0.24418448E-02 | 0.21061193E+02 |   14.332
 BASOPT|        4     |       3     | 0.26934301E-02 | 0.17787104E+02 |   12.036
 BASOPT|        5     |       1     | 0.93851220E-03 | 0.32084866E+02 |   16.717
 BASOPT|        5     |       2     | 0.10323837E-02 | 0.31351347E+02 |   12.685
 BASOPT|        5     |       3     | 0.38667496E-02 | 0.47914229E+01 |   11.504
 BASOPT| -----------------------------------------------------------------------
 BASOPT| Total residuum value: -.21247632E+03

 BASOPT| Information at iteration number:    2900
 BASOPT| Training set | Combination | Rho difference | Condition num. | Time
 BASOPT| -----------------------------------------------------------------------
 BASOPT|        1     |       1     | 0.30471101E-02 | 0.20010971E+03 |   61.598
 BASOPT|        1     |       2     | 0.44107162E-02 | 0.12762766E+03 |   46.374
 BASOPT|        1     |       3     | 0.46765466E-02 | 0.12269528E+03 |   40.206
 BASOPT|        2     |       1     | 0.13231393E-02 | 0.50562496E+03 |  105.136
 BASOPT|        2     |       2     | 0.24348037E-02 | 0.24628985E+03 |   77.568
 BASOPT|        2     |       3     | 0.30766376E-02 | 0.20534894E+03 |   62.174
 BASOPT|        3     |       1     | 0.19384530E-02 | 0.24788105E+02 |   33.785
 BASOPT|        3     |       2     | 0.28656545E-02 | 0.24444554E+02 |   27.560
 BASOPT|        3     |       3     | 0.30052805E-02 | 0.18666354E+02 |   24.095
 BASOPT|        4     |       1     | 0.13545168E-02 | 0.22175058E+02 |   19.453
 BASOPT|        4     |       2     | 0.24417610E-02 | 0.21049489E+02 |   14.846
 BASOPT|        4     |       3     | 0.26944025E-02 | 0.17780408E+02 |   12.465
 BASOPT|        5     |       1     | 0.93791139E-03 | 0.32052531E+02 |   17.315
 BASOPT|        5     |       2     | 0.10325732E-02 | 0.31336560E+02 |   13.138
 BASOPT|        5     |       3     | 0.38699974E-02 | 0.47882158E+01 |   11.915
 BASOPT| -----------------------------------------------------------------------
 BASOPT| Total residuum value: -.21247641E+03

 BASOPT| Information at iteration number:    3000
 BASOPT| Training set | Combination | Rho difference | Condition num. | Time
 BASOPT| -----------------------------------------------------------------------
 BASOPT|        1     |       1     | 0.30486774E-02 | 0.20013675E+03 |   63.732
 BASOPT|        1     |       2     | 0.44078963E-02 | 0.12787001E+03 |   47.976
 BASOPT|        1     |       3     | 0.46725100E-02 | 0.12294991E+03 |   41.594
 BASOPT|        2     |       1     | 0.13238309E-02 | 0.50556420E+03 |  108.779
 BASOPT|        2     |       2     | 0.24357907E-02 | 0.24664235E+03 |   80.262
 BASOPT|        2     |       3     | 0.30764489E-02 | 0.20573785E+03 |   64.326
 BASOPT|        3     |       1     | 0.19383232E-02 | 0.24694251E+02 |   34.951
 BASOPT|        3     |       2     | 0.28658196E-02 | 0.24359075E+02 |   28.516
 BASOPT|        3     |       3     | 0.30050054E-02 | 0.18661548E+02 |   24.934
 BASOPT|        4     |       1     | 0.13554780E-02 | 0.22150508E+02 |   20.122
 BASOPT|        4     |       2     | 0.24457695E-02 | 0.21006047E+02 |   15.357
 BASOPT|        4     |       3     | 0.26944840E-02 | 0.17772427E+02 |   12.893
 BASOPT|        5     |       1     | 0.93530635E-03 | 0.31958891E+02 |   17.912
 BASOPT|        5     |       2     | 0.10283390E-02 | 0.31252221E+02 |   13.590
 BASOPT|        5     |       3     | 0.38684426E-02 | 0.47792961E+01 |   12.325
 BASOPT| -----------------------------------------------------------------------
 BASOPT| Total residuum value: -.21247645E+03

 BASOPT| Information at iteration number:    3100
 BASOPT| Training set | Combination | Rho difference | Condition num. | Time
 BASOPT| -----------------------------------------------------------------------
 BASOPT|        1     |       1     | 0.30498983E-02 | 0.20006969E+03 |   66.299
 BASOPT|        1     |       2     | 0.44088731E-02 | 0.12786600E+03 |   49.851
 BASOPT|        1     |       3     | 0.46721836E-02 | 0.12295220E+03 |   43.233
 BASOPT|        2     |       1     | 0.13233670E-02 | 0.50550847E+03 |  112.889
 BASOPT|        2     |       2     | 0.24360499E-02 | 0.24646622E+03 |   83.778
 BASOPT|        2     |       3     | 0.30754120E-02 | 0.20562752E+03 |   66.693
 BASOPT|        3     |       1     | 0.19372640E-02 | 0.24593990E+02 |   36.189
 BASOPT|        3     |       2     | 0.28654321E-02 | 0.24272496E+02 |   29.541
 BASOPT|        3     |       3     | 0.30043256E-02 | 0.18662796E+02 |   25.992
 BASOPT|        4     |       1     | 0.13581398E-02 | 0.22088204E+02 |   20.941
 BASOPT|        4     |       2     | 0.24511262E-02 | 0.20953966E+02 |   15.945
 BASOPT|        4     |       3     | 0.26961744E-02 | 0.17769008E+02 |   13.335
 BASOPT|        5     |       1     | 0.93489403E-03 | 0.31839016E+02 |   18.533
 BASOPT|        5     |       2     | 0.10275854E-02 | 0.31169295E+02 |   14.054
 BASOPT|        5     |       3     | 0.38691358E-02 | 0.47782155E+01 |   12.780
 BASOPT| -----------------------------------------------------------------------
 BASOPT| Total residuum value: -.21247651E+03

 BASOPT| Information at iteration number:    3200
 BASOPT| Training set | Combination | Rho difference | Condition num. | Time
 BASOPT| -----------------------------------------------------------------------
 BASOPT|        1     |       1     | 0.30478218E-02 | 0.19922577E+03 |   68.432
 BASOPT|        1     |       2     | 0.44111632E-02 | 0.12736569E+03 |   51.662
 BASOPT|        1     |       3     | 0.46748743E-02 | 0.12288979E+03 |   44.621
 BASOPT|        2     |       1     | 0.13224547E-02 | 0.50399933E+03 |  116.527
 BASOPT|        2     |       2     | 0.24370481E-02 | 0.24571919E+03 |   86.732
 BASOPT|        2     |       3     | 0.30758014E-02 | 0.20573197E+03 |   68.874
 BASOPT|        3     |       1     | 0.19370883E-02 | 0.24636534E+02 |   37.357
 BASOPT|        3     |       2     | 0.28655532E-02 | 0.24319567E+02 |   30.496
 BASOPT|        3     |       3     | 0.30047825E-02 | 0.18648907E+02 |   26.871
 BASOPT|        4     |       1     | 0.13589004E-02 | 0.22013598E+02 |   21.625
 BASOPT|        4     |       2     | 0.24529005E-02 | 0.20942301E+02 |   16.462
 BASOPT|        4     |       3     | 0.27009212E-02 | 0.17753555E+02 |   13.764
 BASOPT|        5     |       1     | 0.93993807E-03 | 0.31835632E+02 |   19.130
 BASOPT|        5     |       2     | 0.10334349E-02 | 0.31195083E+02 |   14.506
 BASOPT|        5     |       3     | 0.38711812E-02 | 0.47901738E+01 |   13.196
 BASOPT| -----------------------------------------------------------------------
 BASOPT| Total residuum value: -.21247658E+03

 BASOPT| Information at iteration number:    3300
 BASOPT| Training set | Combination | Rho difference | Condition num. | Time
 BASOPT| -----------------------------------------------------------------------
 BASOPT|        1     |       1     | 0.30467110E-02 | 0.19878725E+03 |   70.551
 BASOPT|        1     |       2     | 0.44110091E-02 | 0.12714522E+03 |   53.313
 BASOPT|        1     |       3     | 0.46746112E-02 | 0.12278647E+03 |   46.010
 BASOPT|        2     |       1     | 0.13223957E-02 | 0.50307663E+03 |  120.164
 BASOPT|        2     |       2     | 0.24376702E-02 | 0.24541845E+03 |   89.468
 BASOPT|        2     |       3     | 0.30762244E-02 | 0.20571517E+03 |   71.036
 BASOPT|        3     |       1     | 0.19373158E-02 | 0.24628156E+02 |   38.524
 BASOPT|        3     |       2     | 0.28657461E-02 | 0.24311615E+02 |   31.451
 BASOPT|        3     |       3     | 0.30049926E-02 | 0.18648791E+02 |   27.691
 BASOPT|        4     |       1     | 0.13598859E-02 | 0.21934328E+02 |   22.316
 BASOPT|        4     |       2     | 0.24545565E-02 | 0.20903123E+02 |   16.978
 BASOPT|        4     |       3     | 0.27016083E-02 | 0.17745219E+02 |   14.194
 BASOPT|        5     |       1     | 0.94112591E-03 | 0.31800146E+02 |   19.727
 BASOPT|        5     |       2     | 0.10350208E-02 | 0.31175885E+02 |   14.959
 BASOPT|        5     |       3     | 0.38723605E-02 | 0.47983375E+01 |   13.606
 BASOPT| -----------------------------------------------------------------------
 BASOPT| Total residuum value: -.21247662E+03

 BASOPT| Information at iteration number:    3400
 BASOPT| Training set | Combination | Rho difference | Condition num. | Time
 BASOPT| -----------------------------------------------------------------------
 BASOPT|        1     |       1     | 0.30452654E-02 | 0.19831893E+03 |   72.671
 BASOPT|        1     |       2     | 0.44114485E-02 | 0.12695583E+03 |   54.925
 BASOPT|        1     |       3     | 0.46738165E-02 | 0.12265514E+03 |   47.399
 BASOPT|        2     |       1     | 0.13227609E-02 | 0.50166023E+03 |  123.801
 BASOPT|        2     |       2     | 0.24390269E-02 | 0.24498329E+03 |   92.200
 BASOPT|        2     |       3     | 0.30771476E-02 | 0.20552491E+03 |   73.190
 BASOPT|        3     |       1     | 0.19373654E-02 | 0.24604310E+02 |   39.695
 BASOPT|        3     |       2     | 0.28658628E-02 | 0.24287644E+02 |   32.405
 BASOPT|        3     |       3     | 0.30045429E-02 | 0.18657574E+02 |   28.512
 BASOPT|        4     |       1     | 0.13611287E-02 | 0.21841720E+02 |   22.987
 BASOPT|        4     |       2     | 0.24556025E-02 | 0.20849592E+02 |   17.494
 BASOPT|        4     |       3     | 0.26987951E-02 | 0.17740573E+02 |   14.622
 BASOPT|        5     |       1     | 0.94347145E-03 | 0.31755583E+02 |   20.325
 BASOPT|        5     |       2     | 0.10382009E-02 | 0.31132696E+02 |   15.410
 BASOPT|        5     |       3     | 0.38726839E-02 | 0.47997414E+01 |   14.016
 BASOPT| -----------------------------------------------------------------------
 BASOPT| Total residuum value: -.21247667E+03

 BASOPT| Information at iteration number:    3500
 BASOPT| Training set | Combination | Rho difference | Condition num. | Time
 BASOPT| -----------------------------------------------------------------------
 BASOPT|        1     |       1     | 0.30450074E-02 | 0.19832355E+03 |   74.791
 BASOPT|        1     |       2     | 0.44078656E-02 | 0.12723720E+03 |   56.539
 BASOPT|        1     |       3     | 0.46692071E-02 | 0.12287481E+03 |   48.789
 BASOPT|        2     |       1     | 0.13232025E-02 | 0.50179320E+03 |  127.438
 BASOPT|        2     |       2     | 0.24401730E-02 | 0.24546136E+03 |   94.931
 BASOPT|        2     |       3     | 0.30766960E-02 | 0.20591375E+03 |   75.344
 BASOPT|        3     |       1     | 0.19375583E-02 | 0.24564471E+02 |   40.866
 BASOPT|        3     |       2     | 0.28661173E-02 | 0.24249556E+02 |   33.359
 BASOPT|        3     |       3     | 0.30038880E-02 | 0.18666098E+02 |   29.335
 BASOPT|        4     |       1     | 0.13620664E-02 | 0.21766081E+02 |   23.655
 BASOPT|        4     |       2     | 0.24588253E-02 | 0.20794748E+02 |   18.010
 BASOPT|        4     |       3     | 0.26957437E-02 | 0.17738008E+02 |   15.051
 BASOPT|        5     |       1     | 0.94367228E-03 | 0.31698522E+02 |   20.922
 BASOPT|        5     |       2     | 0.10370867E-02 | 0.31073445E+02 |   15.862
 BASOPT|        5     |       3     | 0.38696010E-02 | 0.47929367E+01 |   14.427
 BASOPT| -----------------------------------------------------------------------
 BASOPT| Total residuum value: -.21247672E+03

 BASOPT| Information at iteration number:    3600
 BASOPT| Training set | Combination | Rho difference | Condition num. | Time
 BASOPT| -----------------------------------------------------------------------
 BASOPT|        1     |       1     | 0.30463260E-02 | 0.19817229E+03 |   76.919
 BASOPT|        1     |       2     | 0.44081782E-02 | 0.12729729E+03 |   58.153
 BASOPT|        1     |       3     | 0.46686652E-02 | 0.12284020E+03 |   50.179
 BASOPT|        2     |       1     | 0.13223128E-02 | 0.50148145E+03 |  131.084
 BASOPT|        2     |       2     | 0.24390626E-02 | 0.24539558E+03 |   97.667
 BASOPT|        2     |       3     | 0.30749184E-02 | 0.20567485E+03 |   77.498
 BASOPT|        3     |       1     | 0.19370137E-02 | 0.24527318E+02 |   42.037
 BASOPT|        3     |       2     | 0.28657638E-02 | 0.24214898E+02 |   34.314
 BASOPT|        3     |       3     | 0.30033404E-02 | 0.18675551E+02 |   30.157
 BASOPT|        4     |       1     | 0.13639241E-02 | 0.21762946E+02 |   24.323
 BASOPT|        4     |       2     | 0.24601550E-02 | 0.20782825E+02 |   18.526
 BASOPT|        4     |       3     | 0.26943087E-02 | 0.17749993E+02 |   15.480
 BASOPT|        5     |       1     | 0.94316432E-03 | 0.31666784E+02 |   21.520
 BASOPT|        5     |       2     | 0.10363227E-02 | 0.31041634E+02 |   16.314
 BASOPT|        5     |       3     | 0.38685894E-02 | 0.47897720E+01 |   14.837
 BASOPT| -----------------------------------------------------------------------
 BASOPT| Total residuum value: -.21247676E+03

 BASOPT| Information at iteration number:    3700
 BASOPT| Training set | Combination | Rho difference | Condition num. | Time
 BASOPT| -----------------------------------------------------------------------
 BASOPT|        1     |       1     | 0.30460495E-02 | 0.19729201E+03 |   79.050
 BASOPT|        1     |       2     | 0.44092939E-02 | 0.12722582E+03 |   59.765
 BASOPT|        1     |       3     | 0.46680248E-02 | 0.12299432E+03 |   51.569
 BASOPT|        2     |       1     | 0.13225044E-02 | 0.49851773E+03 |  134.730
 BASOPT|        2     |       2     | 0.24404654E-02 | 0.24472106E+03 |  100.398
 BASOPT|        2     |       3     | 0.30762916E-02 | 0.20585884E+03 |   79.651
 BASOPT|        3     |       1     | 0.19378891E-02 | 0.24384508E+02 |   43.207
 BASOPT|        3     |       2     | 0.28661689E-02 | 0.24081344E+02 |   35.267
 BASOPT|        3     |       3     | 0.30029992E-02 | 0.18688513E+02 |   30.979
 BASOPT|        4     |       1     | 0.13661554E-02 | 0.21659189E+02 |   24.991
 BASOPT|        4     |       2     | 0.24603388E-02 | 0.20686963E+02 |   19.042
 BASOPT|        4     |       3     | 0.26885613E-02 | 0.17748365E+02 |   15.908
 BASOPT|        5     |       1     | 0.94646832E-03 | 0.31585017E+02 |   22.118
 BASOPT|        5     |       2     | 0.10404922E-02 | 0.30905103E+02 |   16.766
 BASOPT|        5     |       3     | 0.38673723E-02 | 0.47710840E+01 |   15.246
 BASOPT| -----------------------------------------------------------------------
 BASOPT| Total residuum value: -.21247686E+03

 BASOPT| Information at iteration number:    3800
 BASOPT| Training set | Combination | Rho difference | Condition num. | Time
 BASOPT| -----------------------------------------------------------------------
 BASOPT|        1     |       1     | 0.30474334E-02 | 0.19711983E+03 |   81.182
 BASOPT|        1     |       2     | 0.44125351E-02 | 0.12727401E+03 |   61.378
 BASOPT|        1     |       3     | 0.46700777E-02 | 0.12300118E+03 |   52.957
 BASOPT|        2     |       1     | 0.13226166E-02 | 0.49720125E+03 |  138.368
 BASOPT|        2     |       2     | 0.24404723E-02 | 0.24399275E+03 |  103.132
 BASOPT|        2     |       3     | 0.30755733E-02 | 0.20537405E+03 |   81.805
 BASOPT|        3     |       1     | 0.19372802E-02 | 0.24293828E+02 |   44.378
 BASOPT|        3     |       2     | 0.28657618E-02 | 0.23990173E+02 |   36.221
 BASOPT|        3     |       3     | 0.30019508E-02 | 0.18699364E+02 |   31.801
 BASOPT|        4     |       1     | 0.13703439E-02 | 0.21582915E+02 |   25.659
 BASOPT|        4     |       2     | 0.24624512E-02 | 0.20619825E+02 |   19.558
 BASOPT|        4     |       3     | 0.26859936E-02 | 0.17753943E+02 |   16.337
 BASOPT|        5     |       1     | 0.94721482E-03 | 0.31556443E+02 |   22.715
 BASOPT|        5     |       2     | 0.10422913E-02 | 0.30812801E+02 |   17.219
 BASOPT|        5     |       3     | 0.38674155E-02 | 0.47683632E+01 |   15.656
 BASOPT| -----------------------------------------------------------------------
 BASOPT| Total residuum value: -.21247695E+03

 BASOPT| Information at iteration number:    3900
 BASOPT| Training set | Combination | Rho difference | Condition num. | Time
 BASOPT| -----------------------------------------------------------------------
 BASOPT|        1     |       1     | 0.30476086E-02 | 0.19689053E+03 |   83.313
 BASOPT|        1     |       2     | 0.44115772E-02 | 0.12739204E+03 |   62.990
 BASOPT|        1     |       3     | 0.46691309E-02 | 0.12320256E+03 |   54.347
 BASOPT|        2     |       1     | 0.13222583E-02 | 0.49640672E+03 |  142.011
 BASOPT|        2     |       2     | 0.24406174E-02 | 0.24395443E+03 |  105.859
 BASOPT|        2     |       3     | 0.30758605E-02 | 0.20586456E+03 |   83.960
 BASOPT|        3     |       1     | 0.19373816E-02 | 0.24204987E+02 |   45.549
 BASOPT|        3     |       2     | 0.28660530E-02 | 0.23897133E+02 |   37.174
 BASOPT|        3     |       3     | 0.30019116E-02 | 0.18691000E+02 |   32.627
 BASOPT|        4     |       1     | 0.13740587E-02 | 0.21472851E+02 |   26.327
 BASOPT|        4     |       2     | 0.24669145E-02 | 0.20528134E+02 |   20.075
 BASOPT|        4     |       3     | 0.26878910E-02 | 0.17735317E+02 |   16.766
 BASOPT|        5     |       1     | 0.94733708E-03 | 0.31487783E+02 |   23.312
 BASOPT|        5     |       2     | 0.10423168E-02 | 0.30704344E+02 |   17.671
 BASOPT|        5     |       3     | 0.38675028E-02 | 0.47643204E+01 |   16.066
 BASOPT| -----------------------------------------------------------------------
 BASOPT| Total residuum value: -.21247704E+03

 BASOPT| Information at iteration number:    4000
 BASOPT| Training set | Combination | Rho difference | Condition num. | Time
 BASOPT| -----------------------------------------------------------------------
 BASOPT|        1     |       1     | 0.30460326E-02 | 0.19605652E+03 |   85.446
 BASOPT|        1     |       2     | 0.44141474E-02 | 0.12696756E+03 |   64.607
 BASOPT|        1     |       3     | 0.46722019E-02 | 0.12303218E+03 |   55.737
 BASOPT|        2     |       1     | 0.13224205E-02 | 0.49390168E+03 |  145.659
 BASOPT|        2     |       2     | 0.24417133E-02 | 0.24295670E+03 |  108.588
 BASOPT|        2     |       3     | 0.30773834E-02 | 0.20558573E+03 |   86.118
 BASOPT|        3     |       1     | 0.19372789E-02 | 0.24204453E+02 |   46.720
 BASOPT|        3     |       2     | 0.28662625E-02 | 0.23888437E+02 |   38.128
 BASOPT|        3     |       3     | 0.30022047E-02 | 0.18686229E+02 |   33.454
 BASOPT|        4     |       1     | 0.13759646E-02 | 0.21415296E+02 |   26.998
 BASOPT|        4     |       2     | 0.24681862E-02 | 0.20496205E+02 |   20.591
 BASOPT|        4     |       3     | 0.26900265E-02 | 0.17728267E+02 |   17.195
 BASOPT|        5     |       1     | 0.95184419E-03 | 0.31524294E+02 |   23.909
 BASOPT|        5     |       2     | 0.10483426E-02 | 0.30684471E+02 |   18.126
 BASOPT|        5     |       3     | 0.38681434E-02 | 0.47713499E+01 |   16.477
 BASOPT| -----------------------------------------------------------------------
 BASOPT| Total residuum value: -.21247711E+03

 BASOPT| Information at iteration number:    4100
 BASOPT| Training set | Combination | Rho difference | Condition num. | Time
 BASOPT| -----------------------------------------------------------------------
 BASOPT|        1     |       1     | 0.30481517E-02 | 0.19604565E+03 |   87.581
 BASOPT|        1     |       2     | 0.44126107E-02 | 0.12711065E+03 |   66.219
 BASOPT|        1     |       3     | 0.46704372E-02 | 0.12322367E+03 |   57.129
 BASOPT|        2     |       1     | 0.13228526E-02 | 0.49394405E+03 |  149.306
 BASOPT|        2     |       2     | 0.24409676E-02 | 0.24320618E+03 |  111.316
 BASOPT|        2     |       3     | 0.30760282E-02 | 0.20586857E+03 |   88.276
 BASOPT|        3     |       1     | 0.19372654E-02 | 0.24161629E+02 |   47.891
 BASOPT|        3     |       2     | 0.28663800E-02 | 0.23846301E+02 |   39.080
 BASOPT|        3     |       3     | 0.30027143E-02 | 0.18677350E+02 |   34.278
 BASOPT|        4     |       1     | 0.13774270E-02 | 0.21389495E+02 |   27.670
 BASOPT|        4     |       2     | 0.24718285E-02 | 0.20471543E+02 |   21.107
 BASOPT|        4     |       3     | 0.26942710E-02 | 0.17716769E+02 |   17.624
 BASOPT|        5     |       1     | 0.94969363E-03 | 0.31522056E+02 |   24.507
 BASOPT|        5     |       2     | 0.10450855E-02 | 0.30646808E+02 |   18.580
 BASOPT|        5     |       3     | 0.38683522E-02 | 0.47765595E+01 |   16.887
 BASOPT| -----------------------------------------------------------------------
 BASOPT| Total residuum value: -.21247716E+03

 BASOPT| Information at iteration number:    4200
 BASOPT| Training set | Combination | Rho difference | Condition num. | Time
 BASOPT| -----------------------------------------------------------------------
 BASOPT|        1     |       1     | 0.30505939E-02 | 0.19525957E+03 |   89.721
 BASOPT|        1     |       2     | 0.44131855E-02 | 0.12686965E+03 |   67.836
 BASOPT|        1     |       3     | 0.46715304E-02 | 0.12312243E+03 |   58.522
 BASOPT|        2     |       1     | 0.13240360E-02 | 0.49146575E+03 |  152.949
 BASOPT|        2     |       2     | 0.24401130E-02 | 0.24244104E+03 |  114.043
 BASOPT|        2     |       3     | 0.30763956E-02 | 0.20550787E+03 |   90.436
 BASOPT|        3     |       1     | 0.19381455E-02 | 0.24123988E+02 |   49.064
 BASOPT|        3     |       2     | 0.28662835E-02 | 0.23810967E+02 |   40.034
 BASOPT|        3     |       3     | 0.30029232E-02 | 0.18674379E+02 |   35.102
 BASOPT|        4     |       1     | 0.13769552E-02 | 0.21351081E+02 |   28.343
 BASOPT|        4     |       2     | 0.24705408E-02 | 0.20454322E+02 |   21.624
 BASOPT|        4     |       3     | 0.26931842E-02 | 0.17723185E+02 |   18.053
 BASOPT|        5     |       1     | 0.94986542E-03 | 0.31573762E+02 |   25.105
 BASOPT|        5     |       2     | 0.10452798E-02 | 0.30632450E+02 |   19.035
 BASOPT|        5     |       3     | 0.38691494E-02 | 0.47791778E+01 |   17.297
 BASOPT| -----------------------------------------------------------------------
 BASOPT| Total residuum value: -.21247722E+03

 BASOPT| Information at iteration number:    4300
 BASOPT| Training set | Combination | Rho difference | Condition num. | Time
 BASOPT| -----------------------------------------------------------------------
 BASOPT|        1     |       1     | 0.30506636E-02 | 0.19522486E+03 |   91.855
 BASOPT|        1     |       2     | 0.44129265E-02 | 0.12687104E+03 |   69.454
 BASOPT|        1     |       3     | 0.46720511E-02 | 0.12310523E+03 |   59.915
 BASOPT|        2     |       1     | 0.13254498E-02 | 0.49092127E+03 |  156.587
 BASOPT|        2     |       2     | 0.24406291E-02 | 0.24225555E+03 |  116.768
 BASOPT|        2     |       3     | 0.30778984E-02 | 0.20541426E+03 |   92.596
 BASOPT|        3     |       1     | 0.19390313E-02 | 0.24121463E+02 |   50.235
 BASOPT|        3     |       2     | 0.28663092E-02 | 0.23807882E+02 |   40.986
 BASOPT|        3     |       3     | 0.30028950E-02 | 0.18682113E+02 |   35.926
 BASOPT|        4     |       1     | 0.13744695E-02 | 0.21305045E+02 |   29.029
 BASOPT|        4     |       2     | 0.24685414E-02 | 0.20438962E+02 |   22.140
 BASOPT|        4     |       3     | 0.26902068E-02 | 0.17728041E+02 |   18.482
 BASOPT|        5     |       1     | 0.95113991E-03 | 0.31630893E+02 |   25.701
 BASOPT|        5     |       2     | 0.10465034E-02 | 0.30629267E+02 |   19.488
 BASOPT|        5     |       3     | 0.38689702E-02 | 0.47748024E+01 |   17.707
 BASOPT| -----------------------------------------------------------------------
 BASOPT| Total residuum value: -.21247725E+03

 BASOPT| Information at iteration number:    4400
 BASOPT| Training set | Combination | Rho difference | Condition num. | Time
 BASOPT| -----------------------------------------------------------------------
 BASOPT|        1     |       1     | 0.30494777E-02 | 0.19604821E+03 |   93.989
 BASOPT|        1     |       2     | 0.44080854E-02 | 0.12744871E+03 |   71.069
 BASOPT|        1     |       3     | 0.46681538E-02 | 0.12332645E+03 |   61.307
 BASOPT|        2     |       1     | 0.13245420E-02 | 0.49194815E+03 |  160.229
 BASOPT|        2     |       2     | 0.24402755E-02 | 0.24308523E+03 |  119.496
 BASOPT|        2     |       3     | 0.30778434E-02 | 0.20567262E+03 |   94.754
 BASOPT|        3     |       1     | 0.19379923E-02 | 0.24167112E+02 |   51.405
 BASOPT|        3     |       2     | 0.28658471E-02 | 0.23853182E+02 |   41.940
 BASOPT|        3     |       3     | 0.30022487E-02 | 0.18687200E+02 |   36.750
 BASOPT|        4     |       1     | 0.13726766E-02 | 0.21287465E+02 |   29.702
 BASOPT|        4     |       2     | 0.24717959E-02 | 0.20442648E+02 |   22.657
 BASOPT|        4     |       3     | 0.26919104E-02 | 0.17719494E+02 |   18.911
 BASOPT|        5     |       1     | 0.95078708E-03 | 0.31698032E+02 |   26.299
 BASOPT|        5     |       2     | 0.10438247E-02 | 0.30657548E+02 |   19.942
 BASOPT|        5     |       3     | 0.38679582E-02 | 0.47676493E+01 |   18.117
 BASOPT| -----------------------------------------------------------------------
 BASOPT| Total residuum value: -.21247731E+03

 BASOPT| Information at iteration number:    4500
 BASOPT| Training set | Combination | Rho difference | Condition num. | Time
 BASOPT| -----------------------------------------------------------------------
 BASOPT|        1     |       1     | 0.30463506E-02 | 0.19743745E+03 |   96.118
 BASOPT|        1     |       2     | 0.44090826E-02 | 0.12768427E+03 |   72.684
 BASOPT|        1     |       3     | 0.46696182E-02 | 0.12316862E+03 |   62.700
 BASOPT|        2     |       1     | 0.13230281E-02 | 0.49456976E+03 |  163.873
 BASOPT|        2     |       2     | 0.24397182E-02 | 0.24361132E+03 |  122.221
 BASOPT|        2     |       3     | 0.30777631E-02 | 0.20564004E+03 |   96.913
 BASOPT|        3     |       1     | 0.19372401E-02 | 0.24232029E+02 |   52.576
 BASOPT|        3     |       2     | 0.28657204E-02 | 0.23907080E+02 |   42.892
 BASOPT|        3     |       3     | 0.30017149E-02 | 0.18690990E+02 |   37.575
 BASOPT|        4     |       1     | 0.13711570E-02 | 0.21289095E+02 |   30.369
 BASOPT|        4     |       2     | 0.24727707E-02 | 0.20460502E+02 |   23.172
 BASOPT|        4     |       3     | 0.26907842E-02 | 0.17717957E+02 |   19.340
 BASOPT|        5     |       1     | 0.94978897E-03 | 0.31773637E+02 |   26.896
 BASOPT|        5     |       2     | 0.10434654E-02 | 0.30685654E+02 |   20.395
 BASOPT|        5     |       3     | 0.38711291E-02 | 0.47683561E+01 |   18.527
 BASOPT| -----------------------------------------------------------------------
 BASOPT| Total residuum value: -.21247738E+03

 BASOPT| Information at iteration number:    4600
[...]

 BASOPT| Information at iteration number:   29600
 BASOPT| Training set | Combination | Rho difference | Condition num. | Time
 BASOPT| -----------------------------------------------------------------------
 BASOPT|        1     |       1     | 0.30155705E-02 | 0.19258989E+03 |  646.027
 BASOPT|        1     |       2     | 0.43788994E-02 | 0.12778044E+03 |  479.697
 BASOPT|        1     |       3     | 0.46842195E-02 | 0.12140407E+03 |  414.398
 BASOPT|        2     |       1     | 0.12617363E-02 | 0.47136359E+03 | 1081.240
 BASOPT|        2     |       2     | 0.23779954E-02 | 0.23266229E+03 |  800.688
 BASOPT|        2     |       3     | 0.31061943E-02 | 0.20172683E+03 |  641.826
 BASOPT|        3     |       1     | 0.19409682E-02 | 0.23372923E+02 |  355.740
 BASOPT|        3     |       2     | 0.28658174E-02 | 0.23013382E+02 |  284.694
 BASOPT|        3     |       3     | 0.30028718E-02 | 0.18711776E+02 |  245.934
 BASOPT|        4     |       1     | 0.14041634E-02 | 0.20303762E+02 |  198.403
 BASOPT|        4     |       2     | 0.25269135E-02 | 0.19655064E+02 |  152.909
 BASOPT|        4     |       3     | 0.27084150E-02 | 0.17751776E+02 |  126.376
 BASOPT|        5     |       1     | 0.96132217E-03 | 0.30429633E+02 |  176.106
 BASOPT|        5     |       2     | 0.10519330E-02 | 0.29816983E+02 |  134.381
 BASOPT|        5     |       3     | 0.39030991E-02 | 0.47832159E+01 |  121.600
 BASOPT| -----------------------------------------------------------------------
 BASOPT| Total residuum value: -.21248211E+03


 -------------------------------------------------------------------------------
 -                                                                             -
 -                                DBCSR STATISTICS                             -
 -                                                                             -
 -------------------------------------------------------------------------------
 COUNTER                                    TOTAL       BLAS       SMM       ACC
 flops    51 x    51 x     1                15606       0.0%    100.0%      0.0%
 flops    68 x    51 x     1                20808       0.0%    100.0%      0.0%
 flops    68 x    68 x     1                27744       0.0%    100.0%      0.0%
 flops    52 x    51 x     4                63648       0.0%    100.0%      0.0%
 flops    52 x    52 x     4                64896       0.0%    100.0%      0.0%
 flops   116 x    51 x     4               425952       0.0%    100.0%      0.0%
 flops    51 x   116 x     4               425952       0.0%    100.0%      0.0%
 flops    51 x    51 x     4               686664       0.0%    100.0%      0.0%
 flops   116 x   116 x     4               968832       0.0%    100.0%      0.0%
 flops inhomo. stacks                           0       0.0%      0.0%      0.0%
 flops total                         2.700102E+06       0.0%    100.0%      0.0%
 flops max/rank                    219.504000E+03       0.0%    100.0%      0.0%
 matmuls inhomo. stacks                         0       0.0%      0.0%      0.0%
 matmuls total                                 75       0.0%    100.0%      0.0%
 number of processed stacks                    51       0.0%    100.0%      0.0%
 average stack size                                     0.0       1.5       0.0
 marketing flops                     3.886158E+06
 -------------------------------------------------------------------------------
 # multiplications                              1
 max memory usage/rank               1.408696E+09
 # max total images/rank                        2
 # max 3D layers                                1
 # MPI messages exchanged                      18
 MPI messages size (bytes):
  total size                        62.784000E+03
  min size                           0.000000E+00
  max size                           8.608000E+03
  average size                       3.488000E+03
 MPI breakdown and total messages size (bytes):
             size <=      128                   9                        0
       128 < size <=     8192                   6                    36960
      8192 < size <=    32768                   3                    25824
     32768 < size <=   131072                   0                        0
    131072 < size <=  4194304                   0                        0
   4194304 < size <= 16777216                   0                        0
  16777216 < size                               0                        0
 -------------------------------------------------------------------------------

 *** WARNING in dbcsr_mm.F:297 :: Using a non-square number of MPI ranks ***
 *** might lead to poor performance. Used ranks: 2 Suggested: 1 4        ***

 -------------------------------------------------------------------------------
 -                                                                             -
 -                      DBCSR MESSAGE PASSING PERFORMANCE                      -
 -                                                                             -
 -------------------------------------------------------------------------------
 ROUTINE             CALLS      AVE VOLUME [Bytes]
 MP_Bcast               10                     12.
 MP_Allreduce           44                     21.
 MP_Alltoall       1778301                  41559.
 MP_ISend                6                   1202.
 MP_IRecv                8                    438.
 -------------------------------------------------------------------------------

 -------------------------------------------------------------------------------
 -                                                                             -
 -                                GRID STATISTICS                              -
 -                                                                             -
 -------------------------------------------------------------------------------
 LP    KERNEL    OPERATION                                     COUNT     PERCENT
 0     general   collocate                                        39       0.25%
 0     ortho     integrate                                      1632      10.61%
 0     ortho     collocate                                      1632      10.61%
 1     ortho     integrate                                      1008       6.56%
 1     ortho     collocate                                      1008       6.56%
 2     ortho     integrate                                       840       5.46%
 2     ortho     collocate                                       840       5.46%
 3     ortho     integrate                                      1824      11.86%
 3     ortho     collocate                                      1824      11.86%
 4     ortho     integrate                                       984       6.40%
 4     ortho     collocate                                       984       6.40%
 5     ortho     integrate                                       612       3.98%
 5     ortho     collocate                                       612       3.98%
 6     ortho     integrate                                       408       2.65%
 6     ortho     collocate                                       408       2.65%
 7     ortho     integrate                                       216       1.40%
 7     ortho     collocate                                       216       1.40%
 8     ortho     integrate                                       144       0.94%
 8     ortho     collocate                                       144       0.94%
 -------------------------------------------------------------------------------

 MEMORY| Estimated peak process memory [MiB]                                2358

 -------------------------------------------------------------------------------
 -                                                                             -
 -                         MESSAGE PASSING PERFORMANCE                         -
 -                                                                             -
 -------------------------------------------------------------------------------

 ROUTINE             CALLS      AVE VOLUME [Bytes]
 MP_Bcast            29687                   6431.
 MP_Allreduce       207591                    132.
 MP_Sync             29638
 MP_Alltoall            19              151256455.
 MP_ISendRecv            9                9129216.
 MP_Wait                 9
 MP_comm_split           1
 -------------------------------------------------------------------------------


 -------------------------------------------------------------------------------
 -                                                                             -
 -                           R E F E R E N C E S                               -
 -                                                                             -
 -------------------------------------------------------------------------------
 
 CP2K version 8.0 (Development Version), the CP2K developers group (2020).
 CP2K is freely available from https://www.cp2k.org/ .

 Kuehne,Thomas D.; Iannuzzi,Marcella; Del Ben,Mauro;
 Rybkin,Vladimir V.; Seewald,Patrick; Stein,Frederick; Laino,Teodoro;
 Khaliullin,Rustam Z.; Schuett,Ole; Schiffmann,Florian; Golze,Dorothea;
 Wilhelm,Jan; Chulkov,Sergey; Bani-Hashemian,Mohammad Hossein;
 Weber,Valery; Borstnik,Urban; Taillefumier,Mathieu;
 Jakobovits,Alice Shoshana; Lazzaro,Alfio; Pabst,Hans; Mueller,Tiziano;
 Schade,Robert; Guidon,Manuel; Andermatt,Samuel; Holmberg,Nico;
 Schenter,Gregory K.; Hehn,Anna; Bussy,Augustin; Belleflamme,Fabian;
 Tabacchi,Gloria; Gloess,Andreas; Lass,Michael; Bethune,Iain;
 Mundy,Christopher J.; Plessl,Christian; Watkins,Matt;
 VandeVondele,Joost; Krack,Matthias; Hutter,Juerg. 
 The Journal of Chemical Physics, 152 (19), (2020). 
 CP2K: An electronic structure and molecular dynamics software package -
 Quickstep: Efficient and accurate electronic structure calculations.
 https://doi.org/10.1063/5.0007045

 Schuett, Ole; Messmer, Peter; Hutter, Juerg; VandeVondele, Joost. 
 Electronic Structure Calculations on Graphics Processing Units, John
 Wiley & Sons, Ltd, 173-190 (2016). 
 GPU-Accelerated Sparse Matrix-Matrix Multiplication for
 Linear Scaling Density Functional Theory.
 https://doi.org/10.1002/9781118670712.ch8

 Borstnik, U; VandeVondele, J; Weber, V; Hutter, J. 
 PARALLEL COMPUTING, 40 (5-6), 47-58 (2014). 
 Sparse matrix multiplication: The distributed block-compressed sparse
 row library.
 https://doi.org/10.1016/j.parco.2014.03.012

 Hutter, J; Iannuzzi, M; Schiffmann, F; VandeVondele, J. 
 WIREs Comput Mol Sci., 4 (1), 15-25 (2014). 
 CP2K: atomistic simulations of condensed matter systems.
 https://doi.org/10.1002/wcms.1159

 Marek, A; Blum, V; Johanni, R; Havu, V; Lang, B; Auckenthaler, T;
 Heinecke, A; Bungartz, H; Lederer, H. 
 Journal of Physics: Condensed Matter, 26 (21), (2014). 
 The ELPA library: scalable parallel eigenvalue solutions for
 electronic structure
 theory and computational science.
 https://doi.org/10.1088/0953-8984/26/21/213201

 Guidon, M; Hutter, J; VandeVondele, J. 
 JOURNAL OF CHEMICAL THEORY AND COMPUTATION, 6 (8), 2348-2364 (2010). 
 Auxiliary Density Matrix Methods for Hartree-Fock Exchange Calculations.
 https://doi.org/10.1021/ct1002225

 VandeVondele, J; Hutter, J. 
 JOURNAL OF CHEMICAL PHYSICS, 127 (11), 114105 (2007). 
 Gaussian basis sets for accurate calculations on molecular systems in
 gas and condensed phases.
 https://doi.org/10.1063/1.2770708

 Krack, M. 
 THEORETICAL CHEMISTRY ACCOUNTS, 114 (1-3), 145-152 (2005). 
 Pseudopotentials for H to Kr optimized for gradient-corrected
 exchange-correlation functionals.
 https://doi.org/10.1007/s00214-005-0655-y

 VandeVondele, J; Krack, M; Mohamed, F; Parrinello, M; Chassaing, T;
 Hutter, J. COMPUTER PHYSICS COMMUNICATIONS, 167 (2), 103-128 (2005). 
 QUICKSTEP: Fast and accurate density functional calculations using a
 mixed Gaussian and plane waves approach.
 https://doi.org/10.1016/j.cpc.2004.12.014

 Frigo, M; Johnson, SG. 
 PROCEEDINGS OF THE IEEE, 93 (2), 216-231 (2005). 
 The design and implementation of FFTW3.
 https://doi.org/10.1109/JPROC.2004.840301

 Martyna, GJ; Tuckerman, ME. 
 JOURNAL OF CHEMICAL PHYSICS, 110 (6), 2810-2821 (1999). 
 A reciprocal space based method for treating long range interactions in
 ab initio and force-field-based calculations in clusters.
 https://doi.org/10.1063/1.477923

 Hartwigsen, C; Goedecker, S; Hutter, J. 
 PHYSICAL REVIEW B, 58 (7), 3641-3662 (1998). 
 Relativistic separable dual-space Gaussian pseudopotentials from H to Rn.
 https://doi.org/10.1103/PhysRevB.58.3641

 Lippert, G; Hutter, J; Parrinello, M. 
 MOLECULAR PHYSICS, 92 (3), 477-487 (1997). 
 A hybrid Gaussian and plane wave density functional scheme.
 https://doi.org/10.1080/002689797170220

 Perdew, JP; Burke, K; Ernzerhof, M. 
 PHYSICAL REVIEW LETTERS, 77 (18), 3865-3868 (1996). 
 Generalized gradient approximation made simple.
 https://doi.org/10.1103/PhysRevLett.77.3865

 Goedecker, S; Teter, M; Hutter, J. 
 PHYSICAL REVIEW B, 54 (3), 1703-1710 (1996). 
 Separable dual-space Gaussian pseudopotentials.
 https://doi.org/10.1103/PhysRevB.54.1703


 -------------------------------------------------------------------------------
 -                                                                             -
 -                                T I M I N G                                  -
 -                                                                             -
 -------------------------------------------------------------------------------
 SUBROUTINE                       CALLS  ASD         SELF TIME        TOTAL TIME
                                MAXIMUM       AVERAGE  MAXIMUM  AVERAGE  MAXIMUM
 CP2K                                 1  1.0    0.002    0.005 1118.457 1118.473
 run_optimize_basis                   1  2.0    0.005    0.007 1118.447 1118.464
 driver_para_opt_basis                1  3.0    0.000    0.000 1118.428 1118.444
 driver_optimization_para_low         1  4.0    0.372    0.766 1118.427 1118.443
 compute_residuum_vectors         29638  5.0    1.678    1.933 1093.980 1097.311
 mp_sum_dv                       148191  5.8  642.561  963.064  642.561  963.064
 cp_gemm                         355656  7.2    0.507    0.621  265.600  702.827
 cp_gemm_fm_gemm                 355656  8.2    0.311    0.389  265.093  702.309
 cp_fm_gemm                      355656  9.2  264.782  701.986  264.782  701.986
 admm_fit_mo_coeffs               29638  6.0    0.071    0.096  149.888  380.089
 fit_mo_coeffs                    29638  7.0    0.266    0.348  115.842  330.450
 cp_fm_syevd                      59276  7.0    0.186    0.244   54.519  153.336
 cp_fm_syevd_base                 59276  8.0   54.259  153.045   54.259  153.045
 copy_dbcsr_to_fm                148191  6.8    1.466    1.770   57.791  119.507
 build_overlap_matrix_low         59280  6.0   28.445   78.122   29.790   79.920
 dbcsr_desymmetrize_deep         148191  7.8    3.584    6.497   20.502   68.744
 mp_alltoall_i22                 296383  8.8   10.464   55.292   10.464   55.292
 purify_mo_diag                   29638  7.0    0.332    0.410   33.975   51.278
 dbcsr_complete_redistribute     148192  7.8   10.065   16.679   29.620   45.820
 cp_fm_upper_to_full              88916  7.3   15.666   34.056   15.666   34.056
 init_training_force_envs             1  5.0    0.000    0.001   15.321   24.321
 -------------------------------------------------------------------------------

 The number of warnings for this run is : 1
 
 -------------------------------------------------------------------------------
  **** **** ******  **  PROGRAM ENDED AT                 2020-12-08 11:55:53.819
 ***** ** ***  *** **   PROGRAM RAN ON                                   tcopt10
 **    ****   ******    PROGRAM RAN BY                                    hutter
 ***** **    ** ** **   PROGRAM PROCESS ID                                 30225
  **** **  *******  **  PROGRAM STOPPED IN /data/hutter/GITHUB/BASIS/MOLOPT/PBE0
                                           /K
[1607424953.850735] [tcopt10:30237:0]          mpool.c:38   UCX  WARN  object 0x6d3f980 was not returned to mpool ucp_requests
[1607424953.850761] [tcopt10:30237:0]          mpool.c:38   UCX  WARN  object 0x6d3fec0 was not returned to mpool ucp_requests
[1607424953.850766] [tcopt10:30237:0]          mpool.c:38   UCX  WARN  object 0x6d40080 was not returned to mpool ucp_requests
[1607424953.851395] [tcopt10:30240:0]          mpool.c:38   UCX  WARN  object 0x8824340 was not returned to mpool ucp_requests
[1607424953.851419] [tcopt10:30240:0]          mpool.c:38   UCX  WARN  object 0x8824880 was not returned to mpool ucp_requests
[1607424953.851429] [tcopt10:30240:0]          mpool.c:38   UCX  WARN  object 0x8824a40 was not returned to mpool ucp_requests
[1607424953.851670] [tcopt10:30225:0]          mpool.c:38   UCX  WARN  object 0x8827b80 was not returned to mpool ucp_requests
[1607424953.851689] [tcopt10:30225:0]          mpool.c:38   UCX  WARN  object 0x8827d40 was not returned to mpool ucp_requests
[1607424953.851696] [tcopt10:30225:0]          mpool.c:38   UCX  WARN  object 0x8827f00 was not returned to mpool ucp_requests
[1607424953.851746] [tcopt10:30231:0]          mpool.c:38   UCX  WARN  object 0x8454b00 was not returned to mpool ucp_requests
[1607424953.851765] [tcopt10:30231:0]          mpool.c:38   UCX  WARN  object 0x8454cc0 was not returned to mpool ucp_requests
[1607424953.851774] [tcopt10:30231:0]          mpool.c:38   UCX  WARN  object 0x8454e80 was not returned to mpool ucp_requests
[1607424953.851780] [tcopt10:30231:0]          mpool.c:38   UCX  WARN  object 0x8455040 was not returned to mpool ucp_requests
[1607424953.851954] [tcopt10:30235:0]          mpool.c:38   UCX  WARN  object 0x7241ac0 was not returned to mpool ucp_requests
[1607424953.851992] [tcopt10:30235:0]          mpool.c:38   UCX  WARN  object 0x7241c80 was not returned to mpool ucp_requests
[1607424953.852001] [tcopt10:30235:0]          mpool.c:38   UCX  WARN  object 0x7241e40 was not returned to mpool ucp_requests
[1607424953.852006] [tcopt10:30235:0]          mpool.c:38   UCX  WARN  object 0x7242000 was not returned to mpool ucp_requests
[1607424953.852163] [tcopt10:30229:0]          mpool.c:38   UCX  WARN  object 0x7f4cd40 was not returned to mpool ucp_requests
[1607424953.852192] [tcopt10:30229:0]          mpool.c:38   UCX  WARN  object 0x7f4cf00 was not returned to mpool ucp_requests
[1607424953.852200] [tcopt10:30229:0]          mpool.c:38   UCX  WARN  object 0x7f4d0c0 was not returned to mpool ucp_requests
[1607424953.852168] [tcopt10:30233:0]          mpool.c:38   UCX  WARN  object 0x7af5640 was not returned to mpool ucp_requests
[1607424953.852186] [tcopt10:30233:0]          mpool.c:38   UCX  WARN  object 0x7af5800 was not returned to mpool ucp_requests
[1607424953.852195] [tcopt10:30233:0]          mpool.c:38   UCX  WARN  object 0x7af59c0 was not returned to mpool ucp_requests
[1607424953.852200] [tcopt10:30233:0]          mpool.c:38   UCX  WARN  object 0x7af5b80 was not returned to mpool ucp_requests
[1607424953.852173] [tcopt10:30246:0]          mpool.c:38   UCX  WARN  object 0x7eab480 was not returned to mpool ucp_requests
[1607424953.852200] [tcopt10:30246:0]          mpool.c:38   UCX  WARN  object 0x7eab9c0 was not returned to mpool ucp_requests
[1607424953.852209] [tcopt10:30246:0]          mpool.c:38   UCX  WARN  object 0x7eabb80 was not returned to mpool ucp_requests
[1607424953.852214] [tcopt10:30227:0]          mpool.c:38   UCX  WARN  object 0x7e63d00 was not returned to mpool ucp_requests
[1607424953.852239] [tcopt10:30227:0]          mpool.c:38   UCX  WARN  object 0x7e63ec0 was not returned to mpool ucp_requests
[1607424953.852247] [tcopt10:30227:0]          mpool.c:38   UCX  WARN  object 0x7e64080 was not returned to mpool ucp_requests
