 DBCSR| CPU Multiplication driver                                           XSMM
 DBCSR| Multrec recursion limit                                              512
 DBCSR| Multiplication stack size                                           1000
 DBCSR| Maximum elements for images                                    UNLIMITED
 DBCSR| Multiplicative factor virtual images                                   1
 DBCSR| Use multiplication densification                                       T
 DBCSR| Multiplication size stacks                                             3
 DBCSR| Use memory pool for CPU allocation                                     F
 DBCSR| Number of 3D layers                                               SINGLE
 DBCSR| Use MPI memory allocation                                              F
 DBCSR| Use RMA algorithm                                                      F
 DBCSR| Use Communication thread                                               T
 DBCSR| Communication thread load                                             87
 DBCSR| Split modifier for TAS multiplication algorithm                  1.0E+00


  **** **** ******  **  PROGRAM STARTED AT               2020-12-04 18:06:33.580
 ***** ** ***  *** **   PROGRAM STARTED ON                               tcopt10
 **    ****   ******    PROGRAM STARTED BY                                hutter
 ***** **    ** ** **   PROGRAM PROCESS ID                                 42643
  **** **  *******  **  PROGRAM STARTED IN /data/hutter/GITHUB/BASIS/MOLOPT/PBE0
                                           /Na

 CP2K| version string:                    CP2K version 8.0 (Development Version)
 CP2K| source code revision number:                                  git:afc71fa
 CP2K| cp2kflags: omp libint fftw3 libxc elpa parallel mpi3 scalapack xsmm spgli
 CP2K|            b sirius
 CP2K| is freely available from                            https://www.cp2k.org/
 CP2K| Program compiled at                          Tue Nov 17 10:27:14 CET 2020
 CP2K| Program compiled on                                               tcopt10
 CP2K| Program compiled for                                                local
 CP2K| Data directory path                 /data/hutter/GITHUB/CURRENT/cp2k/data
 CP2K| Input file name                                              Na2O-ref.inp

 GLOBAL| Force Environment number                                              1
 GLOBAL| Basis set file name                                  ../PBE0_UCSEGBASIS
 GLOBAL| Potential file name                                        ../POTENTIAL
 GLOBAL| MM Potential file name                                     MM_POTENTIAL
 GLOBAL| Coordinate file name                                      __STD_INPUT__
 GLOBAL| Method name                                                        CP2K
 GLOBAL| Project name                                                  refNa2Oq9
 GLOBAL| Preferred FFT library                                             FFTW3
 GLOBAL| Preferred diagonalization lib.                                     ELPA
 GLOBAL| Run type                                                         ENERGY
 GLOBAL| All-to-all communication in single precision                          F
 GLOBAL| FFTs using library dependent lengths                                  F
 GLOBAL| Global print level                                                  LOW
 GLOBAL| MPI I/O enabled                                                       T
 GLOBAL| Total number of message passing processes                            16
 GLOBAL| Number of threads for this process                                    1
 GLOBAL| This output is from process                                           0
 GLOBAL| CPU model name                          AMD EPYC 7401 24-Core Processor
 GLOBAL| CPUID                                                              1002

 MEMORY| system memory details [Kb]
 MEMORY|                        rank 0           min           max       average
 MEMORY| MemTotal            263987256     263987256     263987256     263987256
 MEMORY| MemFree             141992068     141992068     141992068     141992068
 MEMORY| Buffers                    32            32            32            32
 MEMORY| Cached               16325784      16325784      16325784      16325784
 MEMORY| Slab                  1369296       1369296       1369296       1369296
 MEMORY| SReclaimable           706464        706464        706464        706464
 MEMORY| MemLikelyFree       159024348     159024348     159024348     159024348


 GENERATE|  Preliminary Number of Bonds generated:                             0
 GENERATE|  Achieved consistency in connectivity generation.

 *******************************************************************************
 *******************************************************************************
 **                                                                           **
 **     #####                         ##              ##                      **
 **    ##   ##            ##          ##              ##                      **
 **   ##     ##                       ##            ######                    **
 **   ##     ##  ##   ##  ##   #####  ##  ##   ####   ##    #####    #####    **
 **   ##     ##  ##   ##  ##  ##      ## ##   ##      ##   ##   ##  ##   ##   **
 **   ##  ## ##  ##   ##  ##  ##      ####     ###    ##   ######   ######    **
 **    ##  ###   ##   ##  ##  ##      ## ##      ##   ##   ##       ##        **
 **     #######   #####   ##   #####  ##  ##  ####    ##    #####   ##        **
 **           ##                                                    ##        **
 **                                                                           **
 **                                                ... make the atoms dance   **
 **                                                                           **
 **            Copyright (C) by CP2K developers group (2000 - 2020)           **
 **                      J. Chem. Phys. 152, 194103 (2020)                    **
 **                                                                           **
 *******************************************************************************


 TOTAL NUMBERS AND MAXIMUM NUMBERS

  Total number of            - Atomic kinds:                                   2
                             - Atoms:                                          3
                             - Shell sets:                                    44
                             - Shells:                                        84
                             - Primitive Cartesian functions:                 44
                             - Cartesian basis functions:                    328
                             - Spherical basis functions:                    276

  Maximum angular momentum of- Orbital basis functions:                        3
                             - Local part of the GTH pseudopotential:          4
                             - Non-local part of the GTH pseudopotential:      1


 SCF PARAMETERS         Density guess:                                    ATOMIC
                        --------------------------------------------------------
                        max_scf:                                              10
                        max_scf_history:                                       0
                        max_diis:                                              4
                        --------------------------------------------------------
                        eps_scf:                                        1.00E-07
                        eps_scf_history:                                0.00E+00
                        eps_diis:                                       1.00E-01
                        eps_eigval:                                     1.00E-05
                        --------------------------------------------------------
                        level_shift [a.u.]:                                 0.00
                        --------------------------------------------------------
                        Outer loop SCF in use 
                        No variables optimised in outer loop
                        eps_scf                                         1.00E-07
                        max_scf                                               10
                        No outer loop optimization
                        step_size                                       5.00E-01

 Number of electrons:                                                         24
 Number of occupied orbitals:                                                 12
 Number of molecular orbitals:                                                12

 Number of orbital functions:                                                276
 Number of independent orbital functions:                                    276

 Extrapolation method: initial_guess


 SCF WAVEFUNCTION OPTIMIZATION

  ----------------------------------- OT ---------------------------------------
  Minimizer      : DIIS                : direct inversion
                                         in the iterative subspace
                                         using   7 DIIS vectors
                                         safer DIIS on
  Preconditioner : FULL_ALL            : diagonalization, state selective
  Precond_solver : DEFAULT
  stepsize       :    0.15000000                  energy_gap     :    0.08000000
  eps_taylor     :   0.10000E-15                  max_taylor     :             4
  ----------------------------------- OT ---------------------------------------

  Step     Update method      Time    Convergence         Total energy    Change
  ------------------------------------------------------------------------------
     1 OT DIIS     0.15E+00   15.0     0.17724189      -108.5016937001 -1.09E+02
     2 OT DIIS     0.15E+00    1.7     0.13478383      -108.0576552444  4.44E-01
     3 OT DIIS     0.15E+00    1.6     0.06087269      -110.6624600358 -2.60E+00
     4 OT DIIS     0.15E+00    1.6     0.04842092      -111.1895359109 -5.27E-01
     5 OT DIIS     0.15E+00    1.6     0.04466242      -111.3422551070 -1.53E-01
     6 OT DIIS     0.15E+00    1.6     0.01539677      -111.5500976832 -2.08E-01
     7 OT SD       0.15E+00    1.6     0.04772769      -111.4304945019  1.20E-01
     8 OT DIIS     0.15E+00    1.6     0.08666460      -110.9827587696  4.48E-01
     9 OT DIIS     0.15E+00    1.6     0.01753880      -111.5884956002 -6.06E-01
    10 OT DIIS     0.15E+00    1.6     0.01668635      -111.6268023052 -3.83E-02

  Leaving inner SCF loop after reaching    10 steps.


  Electronic density on regular grids:        -24.0000089036       -0.0000089036
  Core density on regular grids:               24.0000000000       -0.0000000000
  Total charge density on r-space grids:       -0.0000089036
  Total charge density g-space grids:          -0.0000089036

  Overlap energy of the core charge distribution:               0.00000000000000
  Self energy of the core charge distribution:               -250.35512807486714
  Core Hamiltonian energy:                                     78.43451161472622
  Hartree energy:                                              78.41241713922545
  Exchange-correlation energy:                                -13.84716554834908
  Hartree-Fock Exchange energy:                                -4.27143743592324

  Total energy:                                              -111.62680230518781

  outer SCF iter =    1 RMS gradient =   0.17E-01 energy =       -111.6268023052

  ----------------------------------- OT ---------------------------------------
  Minimizer      : DIIS                : direct inversion
                                         in the iterative subspace
                                         using   7 DIIS vectors
                                         safer DIIS on
  Preconditioner : FULL_ALL            : diagonalization, state selective
  Precond_solver : DEFAULT
  stepsize       :    0.15000000                  energy_gap     :    0.08000000
  eps_taylor     :   0.10000E-15                  max_taylor     :             4
  ----------------------------------- OT ---------------------------------------

  Step     Update method      Time    Convergence         Total energy    Change
  ------------------------------------------------------------------------------
     1 OT DIIS     0.15E+00    3.2     0.04001863      -111.6355865116 -8.78E-03
     2 OT DIIS     0.15E+00    1.6     0.03372400      -111.8535029776 -2.18E-01
     3 OT DIIS     0.15E+00    1.6     0.00633269      -112.0329933861 -1.79E-01
     4 OT DIIS     0.15E+00    1.6     0.00337488      -112.0466732261 -1.37E-02
     5 OT DIIS     0.15E+00    1.6     0.00155654      -112.0498185852 -3.15E-03
     6 OT DIIS     0.15E+00    1.6     0.00096951      -112.0509774153 -1.16E-03
     7 OT DIIS     0.15E+00    1.6     0.00053419      -112.0514056820 -4.28E-04
     8 OT DIIS     0.15E+00    1.6     0.00055680      -112.0515378667 -1.32E-04
     9 OT DIIS     0.15E+00    1.6     0.00012971      -112.0516030105 -6.51E-05
    10 OT DIIS     0.15E+00    1.6     0.00006778      -112.0516199543 -1.69E-05

  Leaving inner SCF loop after reaching    10 steps.


  Electronic density on regular grids:        -24.0000086279       -0.0000086279
  Core density on regular grids:               24.0000000000       -0.0000000000
  Total charge density on r-space grids:       -0.0000086279
  Total charge density g-space grids:          -0.0000086279

  Overlap energy of the core charge distribution:               0.00000000000000
  Self energy of the core charge distribution:               -250.35512807486714
  Core Hamiltonian energy:                                     76.50212524015774
  Hartree energy:                                              79.86978865667101
  Exchange-correlation energy:                                -13.79815939028709
  Hartree-Fock Exchange energy:                                -4.27024638598960

  Total energy:                                              -112.05161995431509

  outer SCF iter =    2 RMS gradient =   0.68E-04 energy =       -112.0516199543

  ----------------------------------- OT ---------------------------------------
  Minimizer      : DIIS                : direct inversion
                                         in the iterative subspace
                                         using   7 DIIS vectors
                                         safer DIIS on
  Preconditioner : FULL_ALL            : diagonalization, state selective
  Precond_solver : DEFAULT
  stepsize       :    0.15000000                  energy_gap     :    0.08000000
  eps_taylor     :   0.10000E-15                  max_taylor     :             4
  ----------------------------------- OT ---------------------------------------

  Step     Update method      Time    Convergence         Total energy    Change
  ------------------------------------------------------------------------------
     1 OT DIIS     0.15E+00    3.3     0.00005176      -112.0516228590 -2.90E-06
     2 OT DIIS     0.15E+00    1.6     0.00003061      -112.0516238994 -1.04E-06
     3 OT DIIS     0.15E+00    1.6     0.00002860      -112.0516243609 -4.62E-07
     4 OT DIIS     0.15E+00    1.6     0.00000477      -112.0516244556 -9.46E-08
     5 OT DIIS     0.15E+00    1.6     0.00000096      -112.0516244690 -1.35E-08
     6 OT DIIS     0.15E+00    1.6     0.00000023      -112.0516244696 -5.17E-10
     7 OT DIIS     0.15E+00    1.6     0.00000006      -112.0516244696 -2.62E-11

  *** SCF run converged in     7 steps ***


  Electronic density on regular grids:        -24.0000086280       -0.0000086280
  Core density on regular grids:               24.0000000000       -0.0000000000
  Total charge density on r-space grids:       -0.0000086281
  Total charge density g-space grids:          -0.0000086281

  Overlap energy of the core charge distribution:               0.00000000000000
  Self energy of the core charge distribution:               -250.35512807486714
  Core Hamiltonian energy:                                     76.50366120202220
  Hartree energy:                                              79.86869504273477
  Exchange-correlation energy:                                -13.79848099907044
  Hartree-Fock Exchange energy:                                -4.27037164040984

  Total energy:                                              -112.05162446959045

  outer SCF iter =    3 RMS gradient =   0.58E-07 energy =       -112.0516244696
  outer SCF loop converged in   3 iterations or   27 steps


 ENERGY| Total FORCE_EVAL ( QS ) energy [a.u.]:             -112.051624469590450

 -------------------------------------------------------------------------------
 -                                                                             -
 -                                DBCSR STATISTICS                             -
 -                                                                             -
 -------------------------------------------------------------------------------
 COUNTER                                    TOTAL       BLAS       SMM       ACC
 flops    12 x    12 x    12               711936       0.0%    100.0%      0.0%
 flops    12 x    12 x    52              1662336       0.0%    100.0%      0.0%
 flops    52 x    52 x    12              1817088       0.0%    100.0%      0.0%
 flops    52 x    12 x    12              2066688       0.0%    100.0%      0.0%
 flops    52 x   112 x    12              3913728       0.0%    100.0%      0.0%
 flops   112 x    52 x    12              3913728       0.0%    100.0%      0.0%
 flops    12 x    12 x   112              7160832       0.0%    100.0%      0.0%
 flops    52 x    12 x    52              8696064       0.0%    100.0%      0.0%
 flops   112 x    12 x    12              8902656       0.0%    100.0%      0.0%
 flops   112 x   112 x    12             25288704       0.0%    100.0%      0.0%
 flops   112 x    12 x    52             37459968       0.0%    100.0%      0.0%
 flops    52 x    12 x   112             37459968       0.0%    100.0%      0.0%
 flops   112 x    12 x   112            161366016       0.0%    100.0%      0.0%
 flops inhomo. stacks                           0       0.0%      0.0%      0.0%
 flops total                       300.419712E+06       0.0%    100.0%      0.0%
 flops max/rank                    121.828992E+06       0.0%    100.0%      0.0%
 matmuls inhomo. stacks                         0       0.0%      0.0%      0.0%
 matmuls total                               2327       0.0%    100.0%      0.0%
 number of processed stacks                  2327       0.0%    100.0%      0.0%
 average stack size                                     0.0       1.0       0.0
 marketing flops                   316.915200E+06
 -------------------------------------------------------------------------------
 # multiplications                            620
 max memory usage/rank               1.185128E+09
 # max total images/rank                        1
 # max 3D layers                                1
 # MPI messages exchanged                   59520
 MPI messages size (bytes):
  total size                       290.601216E+06
  min size                           0.000000E+00
  max size                         100.352000E+03
  average size                       4.882413E+03
 MPI breakdown and total messages size (bytes):
             size <=      128               49302                        0
       128 < size <=     8192                3300                 10137600
      8192 < size <=    32768                3702                 44177664
     32768 < size <=   131072                3216                236285952
    131072 < size <=  4194304                   0                        0
   4194304 < size <= 16777216                   0                        0
  16777216 < size                               0                        0
 -------------------------------------------------------------------------------
 -                                                                             -
 -                      DBCSR MESSAGE PASSING PERFORMANCE                      -
 -                                                                             -
 -------------------------------------------------------------------------------
 ROUTINE             CALLS      AVE VOLUME [Bytes]
 MP_Bcast               14                     12.
 MP_Allreduce         3310                      8.
 MP_Alltoall          2510                   2714.
 MP_ISend             9908                   3815.
 MP_IRecv             9908                   2606.
 -------------------------------------------------------------------------------

 -------------------------------------------------------------------------------
 -                                                                             -
 -                                GRID STATISTICS                              -
 -                                                                             -
 -------------------------------------------------------------------------------
 LP    KERNEL    OPERATION                                     COUNT     PERCENT
 0     general   collocate                                        48       0.07%
 2     ortho     integrate                                     12609      19.01%
 2     ortho     collocate                                     13076      19.72%
 3     ortho     integrate                                      3888       5.86%
 3     ortho     collocate                                      4032       6.08%
 4     ortho     integrate                                     11934      17.99%
 4     ortho     collocate                                     12376      18.66%
 5     ortho     integrate                                      1296       1.95%
 5     ortho     collocate                                      1344       2.03%
 6     ortho     integrate                                      2808       4.23%
 6     ortho     collocate                                      2912       4.39%
 -------------------------------------------------------------------------------

 MEMORY| Estimated peak process memory [MiB]                                1131

 -------------------------------------------------------------------------------
 -                                                                             -
 -                         MESSAGE PASSING PERFORMANCE                         -
 -                                                                             -
 -------------------------------------------------------------------------------

 ROUTINE             CALLS      AVE VOLUME [Bytes]
 MP_Group                5
 MP_Bcast              428                 406813.
 MP_Allreduce         1177                   1209.
 MP_Sync               142
 MP_Alltoall           533               13812334.
 MP_ISendRecv         3315                 223497.
 MP_Wait              4603
 MP_ISend             1120                 732910.
 MP_IRecv             1120                 732794.
 MP_Recv                 6                   6624.
 -------------------------------------------------------------------------------


 -------------------------------------------------------------------------------
 -                                                                             -
 -                           R E F E R E N C E S                               -
 -                                                                             -
 -------------------------------------------------------------------------------
 
 CP2K version 8.0 (Development Version), the CP2K developers group (2020).
 CP2K is freely available from https://www.cp2k.org/ .

 Kuehne,Thomas D.; Iannuzzi,Marcella; Del Ben,Mauro;
 Rybkin,Vladimir V.; Seewald,Patrick; Stein,Frederick; Laino,Teodoro;
 Khaliullin,Rustam Z.; Schuett,Ole; Schiffmann,Florian; Golze,Dorothea;
 Wilhelm,Jan; Chulkov,Sergey; Bani-Hashemian,Mohammad Hossein;
 Weber,Valery; Borstnik,Urban; Taillefumier,Mathieu;
 Jakobovits,Alice Shoshana; Lazzaro,Alfio; Pabst,Hans; Mueller,Tiziano;
 Schade,Robert; Guidon,Manuel; Andermatt,Samuel; Holmberg,Nico;
 Schenter,Gregory K.; Hehn,Anna; Bussy,Augustin; Belleflamme,Fabian;
 Tabacchi,Gloria; Gloess,Andreas; Lass,Michael; Bethune,Iain;
 Mundy,Christopher J.; Plessl,Christian; Watkins,Matt;
 VandeVondele,Joost; Krack,Matthias; Hutter,Juerg. 
 The Journal of Chemical Physics, 152 (19), (2020). 
 CP2K: An electronic structure and molecular dynamics software package -
 Quickstep: Efficient and accurate electronic structure calculations.
 https://doi.org/10.1063/5.0007045

 Schuett, Ole; Messmer, Peter; Hutter, Juerg; VandeVondele, Joost. 
 Electronic Structure Calculations on Graphics Processing Units, John
 Wiley & Sons, Ltd, 173-190 (2016). 
 GPU-Accelerated Sparse Matrix-Matrix Multiplication for
 Linear Scaling Density Functional Theory.
 https://doi.org/10.1002/9781118670712.ch8

 Borstnik, U; VandeVondele, J; Weber, V; Hutter, J. 
 PARALLEL COMPUTING, 40 (5-6), 47-58 (2014). 
 Sparse matrix multiplication: The distributed block-compressed sparse
 row library.
 https://doi.org/10.1016/j.parco.2014.03.012

 Hutter, J; Iannuzzi, M; Schiffmann, F; VandeVondele, J. 
 WIREs Comput Mol Sci., 4 (1), 15-25 (2014). 
 CP2K: atomistic simulations of condensed matter systems.
 https://doi.org/10.1002/wcms.1159

 Marek, A; Blum, V; Johanni, R; Havu, V; Lang, B; Auckenthaler, T;
 Heinecke, A; Bungartz, H; Lederer, H. 
 Journal of Physics: Condensed Matter, 26 (21), (2014). 
 The ELPA library: scalable parallel eigenvalue solutions for
 electronic structure
 theory and computational science.
 https://doi.org/10.1088/0953-8984/26/21/213201

 Guidon, M; Hutter, J; VandeVondele, J. 
 JOURNAL OF CHEMICAL THEORY AND COMPUTATION, 5 (11), 3010-3021 (2009). 
 Robust Periodic Hartree-Fock Exchange for Large-Scale Simulations Using
 Gaussian Basis Sets.
 https://doi.org/10.1021/ct900494g

 Guidon, M; Schiffmann, F; Hutter, J; VandeVondele, J. 
 JOURNAL OF CHEMICAL PHYSICS, 128 (21), 214104 (2008). 
 Ab initio molecular dynamics using hybrid density functionals.
 https://doi.org/10.1063/1.2931945

 Krack, M. 
 THEORETICAL CHEMISTRY ACCOUNTS, 114 (1-3), 145-152 (2005). 
 Pseudopotentials for H to Kr optimized for gradient-corrected
 exchange-correlation functionals.
 https://doi.org/10.1007/s00214-005-0655-y

 VandeVondele, J; Krack, M; Mohamed, F; Parrinello, M; Chassaing, T;
 Hutter, J. COMPUTER PHYSICS COMMUNICATIONS, 167 (2), 103-128 (2005). 
 QUICKSTEP: Fast and accurate density functional calculations using a
 mixed Gaussian and plane waves approach.
 https://doi.org/10.1016/j.cpc.2004.12.014

 Frigo, M; Johnson, SG. 
 PROCEEDINGS OF THE IEEE, 93 (2), 216-231 (2005). 
 The design and implementation of FFTW3.
 https://doi.org/10.1109/JPROC.2004.840301

 VandeVondele, J; Hutter, J. 
 JOURNAL OF CHEMICAL PHYSICS, 118 (10), 4365-4369 (2003). 
 An efficient orbital transformation method for electronic structure
 calculations.
 https://doi.org/10.1063/1.1543154

 Martyna, GJ; Tuckerman, ME. 
 JOURNAL OF CHEMICAL PHYSICS, 110 (6), 2810-2821 (1999). 
 A reciprocal space based method for treating long range interactions in
 ab initio and force-field-based calculations in clusters.
 https://doi.org/10.1063/1.477923

 Hartwigsen, C; Goedecker, S; Hutter, J. 
 PHYSICAL REVIEW B, 58 (7), 3641-3662 (1998). 
 Relativistic separable dual-space Gaussian pseudopotentials from H to Rn.
 https://doi.org/10.1103/PhysRevB.58.3641

 Lippert, G; Hutter, J; Parrinello, M. 
 MOLECULAR PHYSICS, 92 (3), 477-487 (1997). 
 A hybrid Gaussian and plane wave density functional scheme.
 https://doi.org/10.1080/002689797170220

 Perdew, JP; Burke, K; Ernzerhof, M. 
 PHYSICAL REVIEW LETTERS, 77 (18), 3865-3868 (1996). 
 Generalized gradient approximation made simple.
 https://doi.org/10.1103/PhysRevLett.77.3865

 Goedecker, S; Teter, M; Hutter, J. 
 PHYSICAL REVIEW B, 54 (3), 1703-1710 (1996). 
 Separable dual-space Gaussian pseudopotentials.
 https://doi.org/10.1103/PhysRevB.54.1703


 -------------------------------------------------------------------------------
 -                                                                             -
 -                                T I M I N G                                  -
 -                                                                             -
 -------------------------------------------------------------------------------
 SUBROUTINE                       CALLS  ASD         SELF TIME        TOTAL TIME
                                MAXIMUM       AVERAGE  MAXIMUM  AVERAGE  MAXIMUM
 CP2K                                 1  1.0    0.034    0.058   57.449   57.450
 qs_energies                          1  2.0    0.000    0.000   56.953   56.954
 scf_env_do_scf                       1  3.0    0.000    0.000   56.669   56.669
 qs_ks_update_qs_env                 30  5.0    0.000    0.000   51.353   51.356
 rebuild_ks_matrix                   27  6.0    0.000    0.000   51.350   51.352
 qs_ks_build_kohn_sham_matrix        27  7.0    0.005    0.006   51.350   51.352
 scf_env_do_scf_inner_loop           27  4.0    0.001    0.003   38.816   38.816
 hfx_ks_matrix                       27  8.0    0.001    0.001   33.715   33.717
 integrate_four_center               27  9.0    0.012    0.013   33.713   33.713
 integrate_four_center_main          27 10.0    0.004    0.006   16.050   26.948
 integrate_four_center_bin         3429 11.0   16.046   26.944   16.046   26.944
 init_scf_loop                        3  4.0    0.000    0.000   17.852   17.853
 mp_sync                            142 10.7   11.227   17.671   11.227   17.671
 qs_vxc_create                       27  8.0    0.001    0.001   12.421   12.444
 xc_vxc_pw_create                    27  9.0    0.110    0.117   12.420   12.443
 pw_transfer                        520  9.6    0.057    0.065   11.170   11.309
 fft_wrap_pw1pw2                    466 10.7    0.008    0.009   11.042   11.183
 fft_wrap_pw1pw2_300                300 11.8    0.553    0.582   10.344   10.483
 fft3d_ps                           466 12.7    4.944    5.127    8.275    8.444
 xc_rho_set_and_dset_create          27 10.0    0.038    0.040    8.062    8.425
 xc_functional_eval                  27 11.0    0.000    0.001    4.966    5.327
 pbe_lda_eval                        27 12.0    4.965    5.327    4.965    5.327
 qs_rho_update_rho                   28  5.0    0.000    0.000    4.911    4.912
 calculate_rho_elec                  28  6.0    0.045    0.048    4.911    4.912
 calc_screening_functions             1 10.0    3.905    3.922    4.849    4.877
 density_rs2pw                       28  7.0    0.002    0.002    3.897    4.185
 sum_up_and_integrate                27  8.0    0.019    0.024    3.612    3.614
 integrate_v_rspace_low              27  9.0    0.244    1.221    3.593    3.597
 rs_pw_transfer                     221  9.5    0.005    0.006    2.893    3.171
 potential_pw2rs                     27 10.0    0.003    0.003    2.343    2.347
 mp_alltoall_z22v                   466 14.7    1.975    2.345    1.975    2.345
 yz_to_x                            222 13.1    0.660    0.754    1.817    2.003
 rs_pw_transfer_RS2PW_300            29  8.9    0.308    0.354    1.484    1.765
 grid_collocate_task_list            28  7.0    0.541    1.627    0.541    1.627
 mp_waitany                        1120 11.4    1.268    1.583    1.268    1.583
 x_to_yz                            244 14.2    0.682    0.774    1.500    1.566
 calc_pair_dist_radii                 1 10.0    1.101    1.108    1.372    1.382
 mp_alltoall_d11v                   649 11.6    1.067    1.346    1.067    1.346
 rs_distribute_matrix                27 10.0    0.001    0.002    1.001    1.247
 powell_optimize                 453512 11.0    1.215    1.237    1.215    1.237
 pw_scatter_p                       244 13.2    1.114    1.160    1.114    1.160
 -------------------------------------------------------------------------------

 The number of warnings for this run is : 0
 
 -------------------------------------------------------------------------------
  **** **** ******  **  PROGRAM ENDED AT                 2020-12-04 18:07:31.667
 ***** ** ***  *** **   PROGRAM RAN ON                                   tcopt10
 **    ****   ******    PROGRAM RAN BY                                    hutter
 ***** **    ** ** **   PROGRAM PROCESS ID                                 42643
  **** **  *******  **  PROGRAM STOPPED IN /data/hutter/GITHUB/BASIS/MOLOPT/PBE0
                                           /Na
