 DBCSR| CPU Multiplication driver                                           XSMM
 DBCSR| Multrec recursion limit                                              512
 DBCSR| Multiplication stack size                                           1000
 DBCSR| Maximum elements for images                                    UNLIMITED
 DBCSR| Multiplicative factor virtual images                                   1
 DBCSR| Use multiplication densification                                       T
 DBCSR| Multiplication size stacks                                             3
 DBCSR| Use memory pool for CPU allocation                                     F
 DBCSR| Number of 3D layers                                               SINGLE
 DBCSR| Use MPI memory allocation                                              F
 DBCSR| Use RMA algorithm                                                      F
 DBCSR| Use Communication thread                                               T
 DBCSR| Communication thread load                                             87
 DBCSR| Split modifier for TAS multiplication algorithm                  1.0E+00


  **** **** ******  **  PROGRAM STARTED AT               2020-12-04 18:15:41.516
 ***** ** ***  *** **   PROGRAM STARTED ON                               tcopt10
 **    ****   ******    PROGRAM STARTED BY                                hutter
 ***** **    ** ** **   PROGRAM PROCESS ID                                 43640
  **** **  *******  **  PROGRAM STARTED IN /data/hutter/GITHUB/BASIS/MOLOPT/PBE0
                                           /Na

 CP2K| version string:                    CP2K version 8.0 (Development Version)
 CP2K| source code revision number:                                  git:afc71fa
 CP2K| cp2kflags: omp libint fftw3 libxc elpa parallel mpi3 scalapack xsmm spgli
 CP2K|            b sirius
 CP2K| is freely available from                            https://www.cp2k.org/
 CP2K| Program compiled at                          Tue Nov 17 10:27:14 CET 2020
 CP2K| Program compiled on                                               tcopt10
 CP2K| Program compiled for                                                local
 CP2K| Data directory path                 /data/hutter/GITHUB/CURRENT/cp2k/data
 CP2K| Input file name                                              NaCl-ref.inp

 GLOBAL| Force Environment number                                              1
 GLOBAL| Basis set file name                                  ../PBE0_UCSEGBASIS
 GLOBAL| Potential file name                                        ../POTENTIAL
 GLOBAL| MM Potential file name                                     MM_POTENTIAL
 GLOBAL| Coordinate file name                                      __STD_INPUT__
 GLOBAL| Method name                                                        CP2K
 GLOBAL| Project name                                                  refNaClq9
 GLOBAL| Preferred FFT library                                             FFTW3
 GLOBAL| Preferred diagonalization lib.                                     ELPA
 GLOBAL| Run type                                                         ENERGY
 GLOBAL| All-to-all communication in single precision                          F
 GLOBAL| FFTs using library dependent lengths                                  F
 GLOBAL| Global print level                                                  LOW
 GLOBAL| MPI I/O enabled                                                       T
 GLOBAL| Total number of message passing processes                            16
 GLOBAL| Number of threads for this process                                    1
 GLOBAL| This output is from process                                           0
 GLOBAL| CPU model name                          AMD EPYC 7401 24-Core Processor
 GLOBAL| CPUID                                                              1002

 MEMORY| system memory details [Kb]
 MEMORY|                        rank 0           min           max       average
 MEMORY| MemTotal            263987256     263987256     263987256     263987256
 MEMORY| MemFree             140008480     140008480     140008480     140008480
 MEMORY| Buffers                    32            32            32            32
 MEMORY| Cached               16326704      16326704      16326704      16326704
 MEMORY| Slab                  1370604       1370604       1370604       1370604
 MEMORY| SReclaimable           706464        706464        706464        706464
 MEMORY| MemLikelyFree       157041680     157041680     157041680     157041680


 GENERATE|  Preliminary Number of Bonds generated:                             0
 GENERATE|  Achieved consistency in connectivity generation.

 *******************************************************************************
 *******************************************************************************
 **                                                                           **
 **     #####                         ##              ##                      **
 **    ##   ##            ##          ##              ##                      **
 **   ##     ##                       ##            ######                    **
 **   ##     ##  ##   ##  ##   #####  ##  ##   ####   ##    #####    #####    **
 **   ##     ##  ##   ##  ##  ##      ## ##   ##      ##   ##   ##  ##   ##   **
 **   ##  ## ##  ##   ##  ##  ##      ####     ###    ##   ######   ######    **
 **    ##  ###   ##   ##  ##  ##      ## ##      ##   ##   ##       ##        **
 **     #######   #####   ##   #####  ##  ##  ####    ##    #####   ##        **
 **           ##                                                    ##        **
 **                                                                           **
 **                                                ... make the atoms dance   **
 **                                                                           **
 **            Copyright (C) by CP2K developers group (2000 - 2020)           **
 **                      J. Chem. Phys. 152, 194103 (2020)                    **
 **                                                                           **
 *******************************************************************************


 TOTAL NUMBERS AND MAXIMUM NUMBERS

  Total number of            - Atomic kinds:                                   2
                             - Atoms:                                          2
                             - Shell sets:                                    28
                             - Shells:                                        60
                             - Primitive Cartesian functions:                 28
                             - Cartesian basis functions:                    292
                             - Spherical basis functions:                    228

  Maximum angular momentum of- Orbital basis functions:                        4
                             - Local part of the GTH pseudopotential:          4
                             - Non-local part of the GTH pseudopotential:      2


 SCF PARAMETERS         Density guess:                                    ATOMIC
                        --------------------------------------------------------
                        max_scf:                                              10
                        max_scf_history:                                       0
                        max_diis:                                              4
                        --------------------------------------------------------
                        eps_scf:                                        1.00E-07
                        eps_scf_history:                                0.00E+00
                        eps_diis:                                       1.00E-01
                        eps_eigval:                                     1.00E-05
                        --------------------------------------------------------
                        level_shift [a.u.]:                                 0.00
                        --------------------------------------------------------
                        Outer loop SCF in use 
                        No variables optimised in outer loop
                        eps_scf                                         1.00E-07
                        max_scf                                               10
                        No outer loop optimization
                        step_size                                       5.00E-01

 Number of electrons:                                                         16
 Number of occupied orbitals:                                                  8
 Number of molecular orbitals:                                                 8

 Number of orbital functions:                                                228
 Number of independent orbital functions:                                    228

 Extrapolation method: initial_guess


 SCF WAVEFUNCTION OPTIMIZATION

  ----------------------------------- OT ---------------------------------------
  Minimizer      : DIIS                : direct inversion
                                         in the iterative subspace
                                         using   7 DIIS vectors
                                         safer DIIS on
  Preconditioner : FULL_ALL            : diagonalization, state selective
  Precond_solver : DEFAULT
  stepsize       :    0.15000000                  energy_gap     :    0.08000000
  eps_taylor     :   0.10000E-15                  max_taylor     :             4
  ----------------------------------- OT ---------------------------------------

  Step     Update method      Time    Convergence         Total energy    Change
  ------------------------------------------------------------------------------
     1 OT DIIS     0.15E+00   39.5     0.06399811       -62.5951230395 -6.26E+01
     2 OT DIIS     0.15E+00    1.6     0.02782371       -62.9725074773 -3.77E-01
     3 OT DIIS     0.15E+00    1.5     0.01009072       -63.0764675358 -1.04E-01
     4 OT DIIS     0.15E+00    1.5     0.00827680       -63.0904140499 -1.39E-02
     5 OT DIIS     0.15E+00    1.5     0.00675282       -63.0914760081 -1.06E-03
     6 OT DIIS     0.15E+00    1.5     0.00443945       -63.0943209265 -2.84E-03
     7 OT DIIS     0.15E+00    1.5     0.00109694       -63.0964890971 -2.17E-03
     8 OT DIIS     0.15E+00    1.5     0.00009785       -63.0966063498 -1.17E-04
     9 OT DIIS     0.15E+00    1.5     0.00017878       -63.0966062920  5.78E-08
    10 OT DIIS     0.15E+00    1.5     0.00002240       -63.0966090142 -2.72E-06

  Leaving inner SCF loop after reaching    10 steps.


  Electronic density on regular grids:        -16.0000027308       -0.0000027308
  Core density on regular grids:               16.0000000000        0.0000000000
  Total charge density on r-space grids:       -0.0000027308
  Total charge density g-space grids:          -0.0000027308

  Overlap energy of the core charge distribution:               0.00000000000000
  Self energy of the core charge distribution:               -138.06573612081644
  Core Hamiltonian energy:                                     40.11686035102125
  Hartree energy:                                              45.09356106852782
  Exchange-correlation energy:                                 -7.82415742354866
  Hartree-Fock Exchange energy:                                -2.41713688936868

  Total energy:                                               -63.09660901418471

  outer SCF iter =    1 RMS gradient =   0.22E-04 energy =        -63.0966090142

  ----------------------------------- OT ---------------------------------------
  Minimizer      : DIIS                : direct inversion
                                         in the iterative subspace
                                         using   7 DIIS vectors
                                         safer DIIS on
  Preconditioner : FULL_ALL            : diagonalization, state selective
  Precond_solver : DEFAULT
  stepsize       :    0.15000000                  energy_gap     :    0.08000000
  eps_taylor     :   0.10000E-15                  max_taylor     :             4
  ----------------------------------- OT ---------------------------------------

  Step     Update method      Time    Convergence         Total energy    Change
  ------------------------------------------------------------------------------
     1 OT DIIS     0.15E+00    3.1     0.00001410       -63.0966090494 -3.52E-08
     2 OT DIIS     0.15E+00    1.5     0.00000512       -63.0966090789 -2.95E-08
     3 OT DIIS     0.15E+00    1.5     0.00000235       -63.0966090835 -4.62E-09
     4 OT DIIS     0.15E+00    1.6     0.00000027       -63.0966090850 -1.46E-09
     5 OT DIIS     0.15E+00    1.6     0.00000008       -63.0966090850 -1.66E-11

  *** SCF run converged in     5 steps ***


  Electronic density on regular grids:        -16.0000027308       -0.0000027308
  Core density on regular grids:               16.0000000000        0.0000000000
  Total charge density on r-space grids:       -0.0000027308
  Total charge density g-space grids:          -0.0000027308

  Overlap energy of the core charge distribution:               0.00000000000000
  Self energy of the core charge distribution:               -138.06573612081644
  Core Hamiltonian energy:                                     40.11654860471164
  Hartree energy:                                              45.09374851777464
  Exchange-correlation energy:                                 -7.82406736402639
  Hartree-Fock Exchange energy:                                -2.41710272266562

  Total energy:                                               -63.09660908502217

  outer SCF iter =    2 RMS gradient =   0.79E-07 energy =        -63.0966090850
  outer SCF loop converged in   2 iterations or   15 steps


 ENERGY| Total FORCE_EVAL ( QS ) energy [a.u.]:              -63.096609085022166

 -------------------------------------------------------------------------------
 -                                                                             -
 -                                DBCSR STATISTICS                             -
 -                                                                             -
 -------------------------------------------------------------------------------
 COUNTER                                    TOTAL       BLAS       SMM       ACC
 flops     8 x     8 x     8                91136       0.0%    100.0%      0.0%
 flops     8 x     8 x   112               888832       0.0%    100.0%      0.0%
 flops     8 x     8 x   116               920576       0.0%    100.0%      0.0%
 flops   112 x     8 x     8              1103872       0.0%    100.0%      0.0%
 flops   116 x     8 x     8              1143296       0.0%    100.0%      0.0%
 flops   112 x   112 x     8              3211264       0.0%    100.0%      0.0%
 flops   116 x   112 x     8              3325952       0.0%    100.0%      0.0%
 flops   116 x   116 x     8              3444736       0.0%    100.0%      0.0%
 flops   112 x     8 x   112             15654912       0.0%    100.0%      0.0%
 flops   116 x     8 x   112             16214016       0.0%    100.0%      0.0%
 flops   112 x     8 x   116             16214016       0.0%    100.0%      0.0%
 flops   116 x     8 x   116             16793088       0.0%    100.0%      0.0%
 flops inhomo. stacks                           0       0.0%      0.0%      0.0%
 flops total                        79.005696E+06       0.0%    100.0%      0.0%
 flops max/rank                     39.495680E+06       0.0%    100.0%      0.0%
 matmuls inhomo. stacks                         0       0.0%      0.0%      0.0%
 matmuls total                                727       0.0%    100.0%      0.0%
 number of processed stacks                   727       0.0%    100.0%      0.0%
 average stack size                                     0.0       1.0       0.0
 marketing flops                    82.390016E+06
 -------------------------------------------------------------------------------
 # multiplications                            324
 max memory usage/rank               1.327751E+09
 # max total images/rank                        1
 # max 3D layers                                1
 # MPI messages exchanged                   31104
 MPI messages size (bytes):
  total size                       111.320064E+06
  min size                           0.000000E+00
  max size                         107.648000E+03
  average size                       3.578963E+03
 MPI breakdown and total messages size (bytes):
             size <=      128               27537                        0
       128 < size <=     8192                2631                 14006016
      8192 < size <=    32768                   0                        0
     32768 < size <=   131072                 936                 97314048
    131072 < size <=  4194304                   0                        0
   4194304 < size <= 16777216                   0                        0
  16777216 < size                               0                        0
 -------------------------------------------------------------------------------
 -                                                                             -
 -                      DBCSR MESSAGE PASSING PERFORMANCE                      -
 -                                                                             -
 -------------------------------------------------------------------------------
 ROUTINE             CALLS      AVE VOLUME [Bytes]
 MP_Bcast               13                     12.
 MP_Allreduce         1743                      8.
 MP_Alltoall          1430                   2894.
 MP_ISend             5176                   3993.
 MP_IRecv             5176                   1898.
 -------------------------------------------------------------------------------

 -------------------------------------------------------------------------------
 -                                                                             -
 -                                GRID STATISTICS                              -
 -                                                                             -
 -------------------------------------------------------------------------------
 LP    KERNEL    OPERATION                                     COUNT     PERCENT
 0     general   collocate                                        32       0.18%
 2     ortho     integrate                                      3495      19.61%
 2     ortho     collocate                                      3728      20.91%
 4     ortho     integrate                                      2490      13.97%
 4     ortho     collocate                                      2656      14.90%
 5     ortho     integrate                                      1500       8.41%
 5     ortho     collocate                                      1600       8.98%
 6     ortho     integrate                                       540       3.03%
 6     ortho     collocate                                       576       3.23%
 7     ortho     integrate                                       345       1.94%
 7     ortho     collocate                                       368       2.06%
 8     ortho     integrate                                       240       1.35%
 8     ortho     collocate                                       256       1.44%
 -------------------------------------------------------------------------------

 MEMORY| Estimated peak process memory [MiB]                                1267

 -------------------------------------------------------------------------------
 -                                                                             -
 -                         MESSAGE PASSING PERFORMANCE                         -
 -                                                                             -
 -------------------------------------------------------------------------------

 ROUTINE             CALLS      AVE VOLUME [Bytes]
 MP_Group                5
 MP_Bcast              156                1115341.
 MP_Allreduce          494                   2808.
 MP_Sync                82
 MP_Alltoall           305               13622791.
 MP_ISendRecv         1875                 224125.
 MP_Wait              2611
 MP_ISend              640                 762329.
 MP_IRecv              640                 762127.
 MP_Recv                 3                   3648.
 -------------------------------------------------------------------------------


 -------------------------------------------------------------------------------
 -                                                                             -
 -                           R E F E R E N C E S                               -
 -                                                                             -
 -------------------------------------------------------------------------------
 
 CP2K version 8.0 (Development Version), the CP2K developers group (2020).
 CP2K is freely available from https://www.cp2k.org/ .

 Kuehne,Thomas D.; Iannuzzi,Marcella; Del Ben,Mauro;
 Rybkin,Vladimir V.; Seewald,Patrick; Stein,Frederick; Laino,Teodoro;
 Khaliullin,Rustam Z.; Schuett,Ole; Schiffmann,Florian; Golze,Dorothea;
 Wilhelm,Jan; Chulkov,Sergey; Bani-Hashemian,Mohammad Hossein;
 Weber,Valery; Borstnik,Urban; Taillefumier,Mathieu;
 Jakobovits,Alice Shoshana; Lazzaro,Alfio; Pabst,Hans; Mueller,Tiziano;
 Schade,Robert; Guidon,Manuel; Andermatt,Samuel; Holmberg,Nico;
 Schenter,Gregory K.; Hehn,Anna; Bussy,Augustin; Belleflamme,Fabian;
 Tabacchi,Gloria; Gloess,Andreas; Lass,Michael; Bethune,Iain;
 Mundy,Christopher J.; Plessl,Christian; Watkins,Matt;
 VandeVondele,Joost; Krack,Matthias; Hutter,Juerg. 
 The Journal of Chemical Physics, 152 (19), (2020). 
 CP2K: An electronic structure and molecular dynamics software package -
 Quickstep: Efficient and accurate electronic structure calculations.
 https://doi.org/10.1063/5.0007045

 Schuett, Ole; Messmer, Peter; Hutter, Juerg; VandeVondele, Joost. 
 Electronic Structure Calculations on Graphics Processing Units, John
 Wiley & Sons, Ltd, 173-190 (2016). 
 GPU-Accelerated Sparse Matrix-Matrix Multiplication for
 Linear Scaling Density Functional Theory.
 https://doi.org/10.1002/9781118670712.ch8

 Borstnik, U; VandeVondele, J; Weber, V; Hutter, J. 
 PARALLEL COMPUTING, 40 (5-6), 47-58 (2014). 
 Sparse matrix multiplication: The distributed block-compressed sparse
 row library.
 https://doi.org/10.1016/j.parco.2014.03.012

 Hutter, J; Iannuzzi, M; Schiffmann, F; VandeVondele, J. 
 WIREs Comput Mol Sci., 4 (1), 15-25 (2014). 
 CP2K: atomistic simulations of condensed matter systems.
 https://doi.org/10.1002/wcms.1159

 Marek, A; Blum, V; Johanni, R; Havu, V; Lang, B; Auckenthaler, T;
 Heinecke, A; Bungartz, H; Lederer, H. 
 Journal of Physics: Condensed Matter, 26 (21), (2014). 
 The ELPA library: scalable parallel eigenvalue solutions for
 electronic structure
 theory and computational science.
 https://doi.org/10.1088/0953-8984/26/21/213201

 Guidon, M; Hutter, J; VandeVondele, J. 
 JOURNAL OF CHEMICAL THEORY AND COMPUTATION, 5 (11), 3010-3021 (2009). 
 Robust Periodic Hartree-Fock Exchange for Large-Scale Simulations Using
 Gaussian Basis Sets.
 https://doi.org/10.1021/ct900494g

 Guidon, M; Schiffmann, F; Hutter, J; VandeVondele, J. 
 JOURNAL OF CHEMICAL PHYSICS, 128 (21), 214104 (2008). 
 Ab initio molecular dynamics using hybrid density functionals.
 https://doi.org/10.1063/1.2931945

 Krack, M. 
 THEORETICAL CHEMISTRY ACCOUNTS, 114 (1-3), 145-152 (2005). 
 Pseudopotentials for H to Kr optimized for gradient-corrected
 exchange-correlation functionals.
 https://doi.org/10.1007/s00214-005-0655-y

 VandeVondele, J; Krack, M; Mohamed, F; Parrinello, M; Chassaing, T;
 Hutter, J. COMPUTER PHYSICS COMMUNICATIONS, 167 (2), 103-128 (2005). 
 QUICKSTEP: Fast and accurate density functional calculations using a
 mixed Gaussian and plane waves approach.
 https://doi.org/10.1016/j.cpc.2004.12.014

 Frigo, M; Johnson, SG. 
 PROCEEDINGS OF THE IEEE, 93 (2), 216-231 (2005). 
 The design and implementation of FFTW3.
 https://doi.org/10.1109/JPROC.2004.840301

 VandeVondele, J; Hutter, J. 
 JOURNAL OF CHEMICAL PHYSICS, 118 (10), 4365-4369 (2003). 
 An efficient orbital transformation method for electronic structure
 calculations.
 https://doi.org/10.1063/1.1543154

 Martyna, GJ; Tuckerman, ME. 
 JOURNAL OF CHEMICAL PHYSICS, 110 (6), 2810-2821 (1999). 
 A reciprocal space based method for treating long range interactions in
 ab initio and force-field-based calculations in clusters.
 https://doi.org/10.1063/1.477923

 Hartwigsen, C; Goedecker, S; Hutter, J. 
 PHYSICAL REVIEW B, 58 (7), 3641-3662 (1998). 
 Relativistic separable dual-space Gaussian pseudopotentials from H to Rn.
 https://doi.org/10.1103/PhysRevB.58.3641

 Lippert, G; Hutter, J; Parrinello, M. 
 MOLECULAR PHYSICS, 92 (3), 477-487 (1997). 
 A hybrid Gaussian and plane wave density functional scheme.
 https://doi.org/10.1080/002689797170220

 Perdew, JP; Burke, K; Ernzerhof, M. 
 PHYSICAL REVIEW LETTERS, 77 (18), 3865-3868 (1996). 
 Generalized gradient approximation made simple.
 https://doi.org/10.1103/PhysRevLett.77.3865

 Goedecker, S; Teter, M; Hutter, J. 
 PHYSICAL REVIEW B, 54 (3), 1703-1710 (1996). 
 Separable dual-space Gaussian pseudopotentials.
 https://doi.org/10.1103/PhysRevB.54.1703


 -------------------------------------------------------------------------------
 -                                                                             -
 -                                T I M I N G                                  -
 -                                                                             -
 -------------------------------------------------------------------------------
 SUBROUTINE                       CALLS  ASD         SELF TIME        TOTAL TIME
                                MAXIMUM       AVERAGE  MAXIMUM  AVERAGE  MAXIMUM
 CP2K                                 1  1.0    0.023    0.058   61.932   61.933
 qs_energies                          1  2.0    0.000    0.000   61.424   61.425
 scf_env_do_scf                       1  3.0    0.000    0.000   61.167   61.168
 qs_ks_update_qs_env                 17  5.0    0.000    0.000   58.676   58.678
 rebuild_ks_matrix                   15  6.0    0.000    0.000   58.674   58.676
 qs_ks_build_kohn_sham_matrix        15  7.0    0.003    0.003   58.674   58.676
 hfx_ks_matrix                       15  8.0    0.001    0.001   49.175   49.176
 integrate_four_center               15  9.0    0.009    0.010   49.174   49.174
 init_scf_loop                        2  4.0    0.000    0.000   40.949   40.950
 calc_screening_functions             1 10.0   23.749   24.545   24.706   25.502
 mp_sync                             82 10.7   14.403   21.584   14.403   21.584
 integrate_four_center_main          15 10.0    0.002    0.003    7.182   21.432
 integrate_four_center_bin         1920 11.0    7.180   21.430    7.180   21.430
 scf_env_do_scf_inner_loop           15  4.0    0.001    0.002   20.217   20.218
 pw_transfer                        292  9.6    0.031    0.034    6.555    7.196
 fft_wrap_pw1pw2                    262 10.7    0.004    0.005    6.485    7.130
 qs_vxc_create                       15  8.0    0.000    0.000    6.916    6.933
 xc_vxc_pw_create                    15  9.0    0.057    0.062    6.915    6.933
 fft_wrap_pw1pw2_300                168 11.8    0.300    0.331    6.003    6.664
 fft3d_ps                           262 12.7    2.787    2.956    4.947    5.524
 xc_rho_set_and_dset_create          15 10.0    0.021    0.023    4.296    4.672
 xc_functional_eval                  15 11.0    0.000    0.000    2.549    2.924
 pbe_lda_eval                        15 12.0    2.549    2.924    2.549    2.924
 qs_rho_update_rho                   16  5.0    0.000    0.000    2.348    2.348
 calculate_rho_elec                  16  6.0    0.026    0.027    2.348    2.348
 mp_alltoall_z22v                   262 14.7    1.428    2.211    1.428    2.211
 calc_pair_dist_radii                 1 10.0    1.724    1.729    1.980    2.001
 density_rs2pw                       16  7.0    0.001    0.001    1.823    1.919
 yz_to_x                            126 13.1    0.356    0.442    1.252    1.878
 sum_up_and_integrate                15  8.0    0.010    0.012    1.578    1.578
 integrate_v_rspace_low              15  9.0    0.085    0.243    1.568    1.569
 mp_sum_l                          1644 10.5    0.837    1.542    0.837    1.542
 integrate_four_center_load          15 10.0    0.000    0.000    0.819    1.516
 hfx_load_balance                     1 11.0    0.000    0.000    0.819    1.516
 hfx_load_balance_range               1 12.0    0.001    0.012    0.794    1.492
 rs_pw_transfer                     125  9.4    0.003    0.003    1.261    1.357
 potential_pw2rs                     15 10.0    0.002    0.002    1.314    1.315
 powell_optimize                 450748 11.0    1.213    1.241    1.213    1.241
 -------------------------------------------------------------------------------

 The number of warnings for this run is : 0
 
 -------------------------------------------------------------------------------
  **** **** ******  **  PROGRAM ENDED AT                 2020-12-04 18:16:44.094
 ***** ** ***  *** **   PROGRAM RAN ON                                   tcopt10
 **    ****   ******    PROGRAM RAN BY                                    hutter
 ***** **    ** ** **   PROGRAM PROCESS ID                                 43640
  **** **  *******  **  PROGRAM STOPPED IN /data/hutter/GITHUB/BASIS/MOLOPT/PBE0
                                           /Na
