 DBCSR| CPU Multiplication driver                                           XSMM
 DBCSR| Multrec recursion limit                                              512
 DBCSR| Multiplication stack size                                           1000
 DBCSR| Maximum elements for images                                    UNLIMITED
 DBCSR| Multiplicative factor virtual images                                   1
 DBCSR| Use multiplication densification                                       T
 DBCSR| Multiplication size stacks                                             3
 DBCSR| Use memory pool for CPU allocation                                     F
 DBCSR| Number of 3D layers                                               SINGLE
 DBCSR| Use MPI memory allocation                                              F
 DBCSR| Use RMA algorithm                                                      F
 DBCSR| Use Communication thread                                               T
 DBCSR| Communication thread load                                             87
 DBCSR| Split modifier for TAS multiplication algorithm                  1.0E+00


  **** **** ******  **  PROGRAM STARTED AT               2020-12-04 18:17:03.770
 ***** ** ***  *** **   PROGRAM STARTED ON                               tcopt10
 **    ****   ******    PROGRAM STARTED BY                                hutter
 ***** **    ** ** **   PROGRAM PROCESS ID                                 43806
  **** **  *******  **  PROGRAM STARTED IN /data/hutter/GITHUB/BASIS/MOLOPT/PBE0
                                           /Na

 CP2K| version string:                    CP2K version 8.0 (Development Version)
 CP2K| source code revision number:                                  git:afc71fa
 CP2K| cp2kflags: omp libint fftw3 libxc elpa parallel mpi3 scalapack xsmm spgli
 CP2K|            b sirius
 CP2K| is freely available from                            https://www.cp2k.org/
 CP2K| Program compiled at                          Tue Nov 17 10:27:14 CET 2020
 CP2K| Program compiled on                                               tcopt10
 CP2K| Program compiled for                                                local
 CP2K| Data directory path                 /data/hutter/GITHUB/CURRENT/cp2k/data
 CP2K| Input file name                                               NaF-ref.inp

 GLOBAL| Force Environment number                                              1
 GLOBAL| Basis set file name                                  ../PBE0_UCSEGBASIS
 GLOBAL| Potential file name                                        ../POTENTIAL
 GLOBAL| MM Potential file name                                     MM_POTENTIAL
 GLOBAL| Coordinate file name                                      __STD_INPUT__
 GLOBAL| Method name                                                        CP2K
 GLOBAL| Project name                                                   refNaFq9
 GLOBAL| Preferred FFT library                                             FFTW3
 GLOBAL| Preferred diagonalization lib.                                     ELPA
 GLOBAL| Run type                                                         ENERGY
 GLOBAL| All-to-all communication in single precision                          F
 GLOBAL| FFTs using library dependent lengths                                  F
 GLOBAL| Global print level                                                  LOW
 GLOBAL| MPI I/O enabled                                                       T
 GLOBAL| Total number of message passing processes                            16
 GLOBAL| Number of threads for this process                                    1
 GLOBAL| This output is from process                                           0
 GLOBAL| CPU model name                          AMD EPYC 7401 24-Core Processor
 GLOBAL| CPUID                                                              1002

 MEMORY| system memory details [Kb]
 MEMORY|                        rank 0           min           max       average
 MEMORY| MemTotal            263987256     263987256     263987256     263987256
 MEMORY| MemFree             139760780     139760780     139760780     139760780
 MEMORY| Buffers                    32            32            32            32
 MEMORY| Cached               16326656      16326656      16326656      16326656
 MEMORY| Slab                  1370592       1370592       1370592       1370592
 MEMORY| SReclaimable           706464        706464        706464        706464
 MEMORY| MemLikelyFree       156793932     156793932     156793932     156793932


 GENERATE|  Preliminary Number of Bonds generated:                             0
 GENERATE|  Achieved consistency in connectivity generation.

 *******************************************************************************
 *******************************************************************************
 **                                                                           **
 **     #####                         ##              ##                      **
 **    ##   ##            ##          ##              ##                      **
 **   ##     ##                       ##            ######                    **
 **   ##     ##  ##   ##  ##   #####  ##  ##   ####   ##    #####    #####    **
 **   ##     ##  ##   ##  ##  ##      ## ##   ##      ##   ##   ##  ##   ##   **
 **   ##  ## ##  ##   ##  ##  ##      ####     ###    ##   ######   ######    **
 **    ##  ###   ##   ##  ##  ##      ## ##      ##   ##   ##       ##        **
 **     #######   #####   ##   #####  ##  ##  ####    ##    #####   ##        **
 **           ##                                                    ##        **
 **                                                                           **
 **                                                ... make the atoms dance   **
 **                                                                           **
 **            Copyright (C) by CP2K developers group (2000 - 2020)           **
 **                      J. Chem. Phys. 152, 194103 (2020)                    **
 **                                                                           **
 *******************************************************************************


 TOTAL NUMBERS AND MAXIMUM NUMBERS

  Total number of            - Atomic kinds:                                   2
                             - Atoms:                                          2
                             - Shell sets:                                    28
                             - Shells:                                        52
                             - Primitive Cartesian functions:                 28
                             - Cartesian basis functions:                    192
                             - Spherical basis functions:                    164

  Maximum angular momentum of- Orbital basis functions:                        3
                             - Local part of the GTH pseudopotential:          4
                             - Non-local part of the GTH pseudopotential:      1


 SCF PARAMETERS         Density guess:                                    ATOMIC
                        --------------------------------------------------------
                        max_scf:                                              10
                        max_scf_history:                                       0
                        max_diis:                                              4
                        --------------------------------------------------------
                        eps_scf:                                        1.00E-07
                        eps_scf_history:                                0.00E+00
                        eps_diis:                                       1.00E-01
                        eps_eigval:                                     1.00E-05
                        --------------------------------------------------------
                        level_shift [a.u.]:                                 0.00
                        --------------------------------------------------------
                        Outer loop SCF in use 
                        No variables optimised in outer loop
                        eps_scf                                         1.00E-07
                        max_scf                                               10
                        No outer loop optimization
                        step_size                                       5.00E-01

 Number of electrons:                                                         16
 Number of occupied orbitals:                                                  8
 Number of molecular orbitals:                                                 8

 Number of orbital functions:                                                164
 Number of independent orbital functions:                                    164

 Extrapolation method: initial_guess


 SCF WAVEFUNCTION OPTIMIZATION

  ----------------------------------- OT ---------------------------------------
  Minimizer      : DIIS                : direct inversion
                                         in the iterative subspace
                                         using   7 DIIS vectors
                                         safer DIIS on
  Preconditioner : FULL_ALL            : diagonalization, state selective
  Precond_solver : DEFAULT
  stepsize       :    0.15000000                  energy_gap     :    0.08000000
  eps_taylor     :   0.10000E-15                  max_taylor     :             4
  ----------------------------------- OT ---------------------------------------

  Step     Update method      Time    Convergence         Total energy    Change
  ------------------------------------------------------------------------------
     1 OT DIIS     0.15E+00   13.5     0.06090616       -71.8571540717 -7.19E+01
     2 OT DIIS     0.15E+00    1.6     0.05634175       -72.1511934320 -2.94E-01
     3 OT DIIS     0.15E+00    1.6     0.02199839       -72.2464962418 -9.53E-02
     4 OT DIIS     0.15E+00    1.5     0.00564521       -72.2811175120 -3.46E-02
     5 OT DIIS     0.15E+00    1.5     0.00333380       -72.2840456274 -2.93E-03
     6 OT DIIS     0.15E+00    1.5     0.00106663       -72.2851155302 -1.07E-03
     7 OT DIIS     0.15E+00    1.6     0.00035376       -72.2852558022 -1.40E-04
     8 OT DIIS     0.15E+00    1.6     0.00007466       -72.2852683602 -1.26E-05
     9 OT DIIS     0.15E+00    1.5     0.00000953       -72.2852692476 -8.87E-07
    10 OT DIIS     0.15E+00    1.6     0.00000248       -72.2852692616 -1.40E-08

  Leaving inner SCF loop after reaching    10 steps.


  Electronic density on regular grids:        -15.9999985184        0.0000014816
  Core density on regular grids:               16.0000000000        0.0000000000
  Total charge density on r-space grids:        0.0000014816
  Total charge density g-space grids:           0.0000014816

  Overlap energy of the core charge distribution:               0.00000000000000
  Self energy of the core charge distribution:               -170.19069019682556
  Core Hamiltonian energy:                                     50.64483031415763
  Hartree energy:                                              59.26591007861099
  Exchange-correlation energy:                                 -9.16625402181456
  Hartree-Fock Exchange energy:                                -2.83906543570478

  Total energy:                                               -72.28526926157627

  outer SCF iter =    1 RMS gradient =   0.25E-05 energy =        -72.2852692616

  ----------------------------------- OT ---------------------------------------
  Minimizer      : DIIS                : direct inversion
                                         in the iterative subspace
                                         using   7 DIIS vectors
                                         safer DIIS on
  Preconditioner : FULL_ALL            : diagonalization, state selective
  Precond_solver : DEFAULT
  stepsize       :    0.15000000                  energy_gap     :    0.08000000
  eps_taylor     :   0.10000E-15                  max_taylor     :             4
  ----------------------------------- OT ---------------------------------------

  Step     Update method      Time    Convergence         Total energy    Change
  ------------------------------------------------------------------------------
     1 OT DIIS     0.15E+00    3.1     0.00000041       -72.2852692625 -9.18E-10
     2 OT DIIS     0.15E+00    1.5     0.00000018       -72.2852692625 -2.31E-11
     3 OT DIIS     0.15E+00    1.5     0.00000006       -72.2852692625 -5.36E-12

  *** SCF run converged in     3 steps ***


  Electronic density on regular grids:        -15.9999985184        0.0000014816
  Core density on regular grids:               16.0000000000        0.0000000000
  Total charge density on r-space grids:        0.0000014816
  Total charge density g-space grids:           0.0000014816

  Overlap energy of the core charge distribution:               0.00000000000000
  Self energy of the core charge distribution:               -170.19069019682556
  Core Hamiltonian energy:                                     50.64486910665204
  Hartree energy:                                              59.26587771776622
  Exchange-correlation energy:                                 -9.16625880244310
  Hartree-Fock Exchange energy:                                -2.83906708767200

  Total energy:                                               -72.28526926252242

  outer SCF iter =    2 RMS gradient =   0.59E-07 energy =        -72.2852692625
  outer SCF loop converged in   2 iterations or   13 steps


 ENERGY| Total FORCE_EVAL ( QS ) energy [a.u.]:              -72.285269262522419

 -------------------------------------------------------------------------------
 -                                                                             -
 -                                DBCSR STATISTICS                             -
 -                                                                             -
 -------------------------------------------------------------------------------
 COUNTER                                    TOTAL       BLAS       SMM       ACC
 flops     8 x     8 x     8                89088       0.0%    100.0%      0.0%
 flops     8 x     8 x    52               359424       0.0%    100.0%      0.0%
 flops    52 x     8 x     8               445952       0.0%    100.0%      0.0%
 flops    52 x    52 x     8               605696       0.0%    100.0%      0.0%
 flops     8 x     8 x   112               774144       0.0%    100.0%      0.0%
 flops   112 x     8 x     8               960512       0.0%    100.0%      0.0%
 flops    52 x   112 x     8              1304576       0.0%    100.0%      0.0%
 flops   112 x   112 x     8              2809856       0.0%    100.0%      0.0%
 flops    52 x     8 x    52              3028480       0.0%    100.0%      0.0%
 flops   112 x     8 x    52              6522880       0.0%    100.0%      0.0%
 flops    52 x     8 x   112              6522880       0.0%    100.0%      0.0%
 flops   112 x     8 x   112             14049280       0.0%    100.0%      0.0%
 flops inhomo. stacks                           0       0.0%      0.0%      0.0%
 flops total                        37.472768E+06       0.0%    100.0%      0.0%
 flops max/rank                     25.565184E+06       0.0%    100.0%      0.0%
 matmuls inhomo. stacks                         0       0.0%      0.0%      0.0%
 matmuls total                                651       0.0%    100.0%      0.0%
 number of processed stacks                   651       0.0%    100.0%      0.0%
 average stack size                                     0.0       1.0       0.0
 marketing flops                    38.819328E+06
 -------------------------------------------------------------------------------
 # multiplications                            294
 max memory usage/rank               1.190150E+09
 # max total images/rank                        1
 # max 3D layers                                1
 # MPI messages exchanged                   28224
 MPI messages size (bytes):
  total size                        54.151680E+06
  min size                           0.000000E+00
  max size                         100.352000E+03
  average size                       1.918639E+03
 MPI breakdown and total messages size (bytes):
             size <=      128               25023                        0
       128 < size <=     8192                2361                  8966400
      8192 < size <=    32768                 210                  4542720
     32768 < size <=   131072                 630                 40642560
    131072 < size <=  4194304                   0                        0
   4194304 < size <= 16777216                   0                        0
  16777216 < size                               0                        0
 -------------------------------------------------------------------------------
 -                                                                             -
 -                      DBCSR MESSAGE PASSING PERFORMANCE                      -
 -                                                                             -
 -------------------------------------------------------------------------------
 ROUTINE             CALLS      AVE VOLUME [Bytes]
 MP_Bcast               13                     12.
 MP_Allreduce         1578                      8.
 MP_Alltoall          1342                   2915.
 MP_ISend             4696                   2813.
 MP_IRecv             4696                    873.
 -------------------------------------------------------------------------------

 -------------------------------------------------------------------------------
 -                                                                             -
 -                                GRID STATISTICS                              -
 -                                                                             -
 -------------------------------------------------------------------------------
 LP    KERNEL    OPERATION                                     COUNT     PERCENT
 0     general   collocate                                        32       0.20%
 2     ortho     integrate                                      3016      19.32%
 2     ortho     collocate                                      3248      20.81%
 3     ortho     integrate                                      1339       8.58%
 3     ortho     collocate                                      1442       9.24%
 4     ortho     integrate                                      2366      15.16%
 4     ortho     collocate                                      2548      16.32%
 5     ortho     integrate                                       312       2.00%
 5     ortho     collocate                                       336       2.15%
 6     ortho     integrate                                       468       3.00%
 6     ortho     collocate                                       504       3.23%
 -------------------------------------------------------------------------------

 MEMORY| Estimated peak process memory [MiB]                                1136

 -------------------------------------------------------------------------------
 -                                                                             -
 -                         MESSAGE PASSING PERFORMANCE                         -
 -                                                                             -
 -------------------------------------------------------------------------------

 ROUTINE             CALLS      AVE VOLUME [Bytes]
 MP_Group                5
 MP_Bcast              198                 878676.
 MP_Allreduce          599                   2324.
 MP_Sync                72
 MP_Alltoall           267               13574164.
 MP_ISendRecv         1635                 221994.
 MP_Wait              2279
 MP_ISend              560                 762344.
 MP_IRecv              560                 762112.
 MP_Recv                 3                   2624.
 -------------------------------------------------------------------------------


 -------------------------------------------------------------------------------
 -                                                                             -
 -                           R E F E R E N C E S                               -
 -                                                                             -
 -------------------------------------------------------------------------------
 
 CP2K version 8.0 (Development Version), the CP2K developers group (2020).
 CP2K is freely available from https://www.cp2k.org/ .

 Kuehne,Thomas D.; Iannuzzi,Marcella; Del Ben,Mauro;
 Rybkin,Vladimir V.; Seewald,Patrick; Stein,Frederick; Laino,Teodoro;
 Khaliullin,Rustam Z.; Schuett,Ole; Schiffmann,Florian; Golze,Dorothea;
 Wilhelm,Jan; Chulkov,Sergey; Bani-Hashemian,Mohammad Hossein;
 Weber,Valery; Borstnik,Urban; Taillefumier,Mathieu;
 Jakobovits,Alice Shoshana; Lazzaro,Alfio; Pabst,Hans; Mueller,Tiziano;
 Schade,Robert; Guidon,Manuel; Andermatt,Samuel; Holmberg,Nico;
 Schenter,Gregory K.; Hehn,Anna; Bussy,Augustin; Belleflamme,Fabian;
 Tabacchi,Gloria; Gloess,Andreas; Lass,Michael; Bethune,Iain;
 Mundy,Christopher J.; Plessl,Christian; Watkins,Matt;
 VandeVondele,Joost; Krack,Matthias; Hutter,Juerg. 
 The Journal of Chemical Physics, 152 (19), (2020). 
 CP2K: An electronic structure and molecular dynamics software package -
 Quickstep: Efficient and accurate electronic structure calculations.
 https://doi.org/10.1063/5.0007045

 Schuett, Ole; Messmer, Peter; Hutter, Juerg; VandeVondele, Joost. 
 Electronic Structure Calculations on Graphics Processing Units, John
 Wiley & Sons, Ltd, 173-190 (2016). 
 GPU-Accelerated Sparse Matrix-Matrix Multiplication for
 Linear Scaling Density Functional Theory.
 https://doi.org/10.1002/9781118670712.ch8

 Borstnik, U; VandeVondele, J; Weber, V; Hutter, J. 
 PARALLEL COMPUTING, 40 (5-6), 47-58 (2014). 
 Sparse matrix multiplication: The distributed block-compressed sparse
 row library.
 https://doi.org/10.1016/j.parco.2014.03.012

 Hutter, J; Iannuzzi, M; Schiffmann, F; VandeVondele, J. 
 WIREs Comput Mol Sci., 4 (1), 15-25 (2014). 
 CP2K: atomistic simulations of condensed matter systems.
 https://doi.org/10.1002/wcms.1159

 Marek, A; Blum, V; Johanni, R; Havu, V; Lang, B; Auckenthaler, T;
 Heinecke, A; Bungartz, H; Lederer, H. 
 Journal of Physics: Condensed Matter, 26 (21), (2014). 
 The ELPA library: scalable parallel eigenvalue solutions for
 electronic structure
 theory and computational science.
 https://doi.org/10.1088/0953-8984/26/21/213201

 Guidon, M; Hutter, J; VandeVondele, J. 
 JOURNAL OF CHEMICAL THEORY AND COMPUTATION, 5 (11), 3010-3021 (2009). 
 Robust Periodic Hartree-Fock Exchange for Large-Scale Simulations Using
 Gaussian Basis Sets.
 https://doi.org/10.1021/ct900494g

 Guidon, M; Schiffmann, F; Hutter, J; VandeVondele, J. 
 JOURNAL OF CHEMICAL PHYSICS, 128 (21), 214104 (2008). 
 Ab initio molecular dynamics using hybrid density functionals.
 https://doi.org/10.1063/1.2931945

 Krack, M. 
 THEORETICAL CHEMISTRY ACCOUNTS, 114 (1-3), 145-152 (2005). 
 Pseudopotentials for H to Kr optimized for gradient-corrected
 exchange-correlation functionals.
 https://doi.org/10.1007/s00214-005-0655-y

 VandeVondele, J; Krack, M; Mohamed, F; Parrinello, M; Chassaing, T;
 Hutter, J. COMPUTER PHYSICS COMMUNICATIONS, 167 (2), 103-128 (2005). 
 QUICKSTEP: Fast and accurate density functional calculations using a
 mixed Gaussian and plane waves approach.
 https://doi.org/10.1016/j.cpc.2004.12.014

 Frigo, M; Johnson, SG. 
 PROCEEDINGS OF THE IEEE, 93 (2), 216-231 (2005). 
 The design and implementation of FFTW3.
 https://doi.org/10.1109/JPROC.2004.840301

 VandeVondele, J; Hutter, J. 
 JOURNAL OF CHEMICAL PHYSICS, 118 (10), 4365-4369 (2003). 
 An efficient orbital transformation method for electronic structure
 calculations.
 https://doi.org/10.1063/1.1543154

 Martyna, GJ; Tuckerman, ME. 
 JOURNAL OF CHEMICAL PHYSICS, 110 (6), 2810-2821 (1999). 
 A reciprocal space based method for treating long range interactions in
 ab initio and force-field-based calculations in clusters.
 https://doi.org/10.1063/1.477923

 Hartwigsen, C; Goedecker, S; Hutter, J. 
 PHYSICAL REVIEW B, 58 (7), 3641-3662 (1998). 
 Relativistic separable dual-space Gaussian pseudopotentials from H to Rn.
 https://doi.org/10.1103/PhysRevB.58.3641

 Lippert, G; Hutter, J; Parrinello, M. 
 MOLECULAR PHYSICS, 92 (3), 477-487 (1997). 
 A hybrid Gaussian and plane wave density functional scheme.
 https://doi.org/10.1080/002689797170220

 Perdew, JP; Burke, K; Ernzerhof, M. 
 PHYSICAL REVIEW LETTERS, 77 (18), 3865-3868 (1996). 
 Generalized gradient approximation made simple.
 https://doi.org/10.1103/PhysRevLett.77.3865

 Goedecker, S; Teter, M; Hutter, J. 
 PHYSICAL REVIEW B, 54 (3), 1703-1710 (1996). 
 Separable dual-space Gaussian pseudopotentials.
 https://doi.org/10.1103/PhysRevB.54.1703


 -------------------------------------------------------------------------------
 -                                                                             -
 -                                T I M I N G                                  -
 -                                                                             -
 -------------------------------------------------------------------------------
 SUBROUTINE                       CALLS  ASD         SELF TIME        TOTAL TIME
                                MAXIMUM       AVERAGE  MAXIMUM  AVERAGE  MAXIMUM
 CP2K                                 1  1.0    0.013    0.072   32.926   32.928
 qs_energies                          1  2.0    0.000    0.000   32.411   32.412
 scf_env_do_scf                       1  3.0    0.000    0.000   32.151   32.152
 qs_ks_update_qs_env                 15  5.0    0.000    0.000   29.916   29.917
 rebuild_ks_matrix                   13  6.0    0.000    0.000   29.914   29.915
 qs_ks_build_kohn_sham_matrix        13  7.0    0.003    0.003   29.914   29.915
 hfx_ks_matrix                       13  8.0    0.001    0.001   21.564   21.565
 integrate_four_center               13  9.0    0.006    0.007   21.563   21.563
 scf_env_do_scf_inner_loop           13  4.0    0.001    0.001   17.289   17.289
 mp_sync                             72 10.7   13.176   15.218   13.176   15.218
 integrate_four_center_main          13 10.0    0.002    0.002    2.043   15.213
 integrate_four_center_bin         1664 11.0    2.041   15.211    2.041   15.211
 init_scf_loop                        2  4.0    0.000    0.000   14.862   14.862
 pw_transfer                        254  9.6    0.027    0.031    5.728    6.304
 fft_wrap_pw1pw2                    228 10.7    0.004    0.004    5.665    6.244
 qs_vxc_create                       13  8.0    0.000    0.000    5.977    5.990
 xc_vxc_pw_create                    13  9.0    0.050    0.056    5.976    5.990
 fft_wrap_pw1pw2_300                146 11.8    0.269    0.279    5.223    5.806
 calc_screening_functions             1 10.0    3.909    3.933    4.862    4.895
 fft3d_ps                           228 12.7    2.466    2.597    4.297    4.816
 xc_rho_set_and_dset_create          13 10.0    0.018    0.020    3.711    4.047
 xc_functional_eval                  13 11.0    0.000    0.000    2.201    2.536
 pbe_lda_eval                        13 12.0    2.201    2.536    2.201    2.536
 qs_rho_update_rho                   14  5.0    0.000    0.000    2.134    2.134
 calculate_rho_elec                  14  6.0    0.022    0.024    2.134    2.134
 density_rs2pw                       14  7.0    0.001    0.001    1.689    1.772
 mp_alltoall_z22v                   228 14.7    1.159    1.680    1.159    1.680
 yz_to_x                            110 13.1    0.330    0.394    1.078    1.629
 sum_up_and_integrate                13  8.0    0.010    0.012    1.444    1.446
 integrate_v_rspace_low              13  9.0    0.056    0.279    1.434    1.437
 calc_pair_dist_radii                 1 10.0    1.086    1.097    1.358    1.372
 rs_pw_transfer                     109  9.4    0.003    0.003    1.193    1.264
 powell_optimize                 458284 11.0    1.224    1.252    1.224    1.252
 potential_pw2rs                     13 10.0    0.001    0.002    1.149    1.152
 x_to_yz                            118 14.2    0.333    0.380    0.744    0.785
 -------------------------------------------------------------------------------

 The number of warnings for this run is : 0
 
 -------------------------------------------------------------------------------
  **** **** ******  **  PROGRAM ENDED AT                 2020-12-04 18:17:37.328
 ***** ** ***  *** **   PROGRAM RAN ON                                   tcopt10
 **    ****   ******    PROGRAM RAN BY                                    hutter
 ***** **    ** ** **   PROGRAM PROCESS ID                                 43806
  **** **  *******  **  PROGRAM STOPPED IN /data/hutter/GITHUB/BASIS/MOLOPT/PBE0
                                           /Na
