
  **** **** ******  **  PROGRAM STARTED AT               2020-12-08 10:02:28.253
 ***** ** ***  *** **   PROGRAM STARTED ON                               tcopt10
 **    ****   ******    PROGRAM STARTED BY                                hutter
 ***** **    ** ** **   PROGRAM PROCESS ID                                  8900
  **** **  *******  **  PROGRAM STARTED IN /data/hutter/GITHUB/BASIS/MOLOPT/PBE0
                                           /Na

 CP2K| version string:                    CP2K version 8.0 (Development Version)
 CP2K| source code revision number:                                  git:afc71fa
 CP2K| cp2kflags: omp libint fftw3 libxc elpa parallel mpi3 scalapack xsmm spgli
 CP2K|            b sirius
 CP2K| is freely available from                            https://www.cp2k.org/
 CP2K| Program compiled at                          Tue Nov 17 10:27:14 CET 2020
 CP2K| Program compiled on                                               tcopt10
 CP2K| Program compiled for                                                local
 CP2K| Data directory path                 /data/hutter/GITHUB/CURRENT/cp2k/data
 CP2K| Input file name                                              opt-dzvp.inp

 GLOBAL| Method name                                              OPTIMIZE_BASIS
 GLOBAL| Project name                                                     molopt
 GLOBAL| Preferred FFT library                                             FFTW3
 GLOBAL| Preferred diagonalization lib.                                     ELPA
 GLOBAL| Run type                                                   ENERGY_FORCE
 GLOBAL| All-to-all communication in single precision                          F
 GLOBAL| FFTs using library dependent lengths                                  F
 GLOBAL| Global print level                                               MEDIUM
 GLOBAL| MPI I/O enabled                                                       T
 GLOBAL| Total number of message passing processes                            36
 GLOBAL| Number of threads for this process                                    1
 GLOBAL| This output is from process                                           0
 GLOBAL| CPU model name                          AMD EPYC 7401 24-Core Processor
 GLOBAL| CPUID                                                              1002

 MEMORY| system memory details [Kb]
 MEMORY|                        rank 0           min           max       average
 MEMORY| MemTotal            263987256     263987256     263987256     263987256
 MEMORY| MemFree             246764568     246764568     246764568     246764568
 MEMORY| Buffers                   148           148           148           148
 MEMORY| Cached               12900696      12900696      12900696      12900696
 MEMORY| Slab                  1265336       1265336       1265336       1265336
 MEMORY| SReclaimable           614904        614904        614904        614904
 MEMORY| MemLikelyFree       260280316     260280316     260280316     260280316


 *** Fundamental physical constants (SI units) ***

 *** Literature: B. J. Mohr and B. N. Taylor,
 ***             CODATA recommended values of the fundamental physical
 ***             constants: 2006, Web Version 5.1
 ***             http://physics.nist.gov/constants

 Speed of light in vacuum [m/s]                             2.99792458000000E+08
 Magnetic constant or permeability of vacuum [N/A**2]       1.25663706143592E-06
 Electric constant or permittivity of vacuum [F/m]          8.85418781762039E-12
 Planck constant (h) [J*s]                                  6.62606896000000E-34
 Planck constant (h-bar) [J*s]                              1.05457162825177E-34
 Elementary charge [C]                                      1.60217648700000E-19
 Electron mass [kg]                                         9.10938215000000E-31
 Electron g factor [ ]                                     -2.00231930436220E+00
 Proton mass [kg]                                           1.67262163700000E-27
 Fine-structure constant                                    7.29735253760000E-03
 Rydberg constant [1/m]                                     1.09737315685270E+07
 Avogadro constant [1/mol]                                  6.02214179000000E+23
 Boltzmann constant [J/K]                                   1.38065040000000E-23
 Atomic mass unit [kg]                                      1.66053878200000E-27
 Bohr radius [m]                                            5.29177208590000E-11

 *** Conversion factors ***

 [u] -> [a.u.]                                              1.82288848426455E+03
 [Angstrom] -> [Bohr] = [a.u.]                              1.88972613288564E+00
 [a.u.] = [Bohr] -> [Angstrom]                              5.29177208590000E-01
 [a.u.] -> [s]                                              2.41888432650478E-17
 [a.u.] -> [fs]                                             2.41888432650478E-02
 [a.u.] -> [J]                                              4.35974393937059E-18
 [a.u.] -> [N]                                              8.23872205491840E-08
 [a.u.] -> [K]                                              3.15774647902944E+05
 [a.u.] -> [kJ/mol]                                         2.62549961709828E+03
 [a.u.] -> [kcal/mol]                                       6.27509468713739E+02
 [a.u.] -> [Pa]                                             2.94210107994716E+13
 [a.u.] -> [bar]                                            2.94210107994716E+08
 [a.u.] -> [atm]                                            2.90362800883016E+08
 [a.u.] -> [eV]                                             2.72113838565563E+01
 [a.u.] -> [Hz]                                             6.57968392072181E+15
 [a.u.] -> [1/cm] (wave numbers)                            2.19474631370540E+05
 [a.u./Bohr**2] -> [1/cm]                                   5.14048714338585E+03
 
 DBCSR| CPU Multiplication driver                                           XSMM
 DBCSR| Multrec recursion limit                                              512
 DBCSR| Multiplication stack size                                           1000
 DBCSR| Maximum elements for images                                    UNLIMITED
 DBCSR| Multiplicative factor virtual images                                   1
 DBCSR| Use multiplication densification                                       T
 DBCSR| Multiplication size stacks                                             3
 DBCSR| Use memory pool for CPU allocation                                     F
 DBCSR| Number of 3D layers                                               SINGLE
 DBCSR| Use MPI memory allocation                                              F
 DBCSR| Use RMA algorithm                                                      F
 DBCSR| Use Communication thread                                               T
 DBCSR| Communication thread load                                             87
 DBCSR| Split modifier for TAS multiplication algorithm                  1.0E+00


 *******************************************************************************
 *   ___                                                                       *
 *  /   \                                                                      *
 * [ABORT]                                                                     *
 *  \___/   The requested basis set <DZVP-MOLOPT-PBE0-GTH-Q9> for element <NA> *
 *    |                was not found in the template basis set file            *
 *  O/|                                                                        *
 * /| |                                                                        *
 * / \                                             optimize_basis_utils.F:1073 *
 *******************************************************************************


 ===== Routine Calling Stack ===== 

            2 run_optimize_basis
            1 CP2K

  **** **** ******  **  PROGRAM STARTED AT               2020-12-08 10:02:57.793
 ***** ** ***  *** **   PROGRAM STARTED ON                               tcopt10
 **    ****   ******    PROGRAM STARTED BY                                hutter
 ***** **    ** ** **   PROGRAM PROCESS ID                                  9104
  **** **  *******  **  PROGRAM STARTED IN /data/hutter/GITHUB/BASIS/MOLOPT/PBE0
                                           /Na

 CP2K| version string:                    CP2K version 8.0 (Development Version)
 CP2K| source code revision number:                                  git:afc71fa
 CP2K| cp2kflags: omp libint fftw3 libxc elpa parallel mpi3 scalapack xsmm spgli
 CP2K|            b sirius
 CP2K| is freely available from                            https://www.cp2k.org/
 CP2K| Program compiled at                          Tue Nov 17 10:27:14 CET 2020
 CP2K| Program compiled on                                               tcopt10
 CP2K| Program compiled for                                                local
 CP2K| Data directory path                 /data/hutter/GITHUB/CURRENT/cp2k/data
 CP2K| Input file name                                              opt-dzvp.inp

 GLOBAL| Method name                                              OPTIMIZE_BASIS
 GLOBAL| Project name                                                     molopt
 GLOBAL| Preferred FFT library                                             FFTW3
 GLOBAL| Preferred diagonalization lib.                                     ELPA
 GLOBAL| Run type                                                   ENERGY_FORCE
 GLOBAL| All-to-all communication in single precision                          F
 GLOBAL| FFTs using library dependent lengths                                  F
 GLOBAL| Global print level                                               MEDIUM
 GLOBAL| MPI I/O enabled                                                       T
 GLOBAL| Total number of message passing processes                            36
 GLOBAL| Number of threads for this process                                    1
 GLOBAL| This output is from process                                           0
 GLOBAL| CPU model name                          AMD EPYC 7401 24-Core Processor
 GLOBAL| CPUID                                                              1002

 MEMORY| system memory details [Kb]
 MEMORY|                        rank 0           min           max       average
 MEMORY| MemTotal            263987256     263987256     263987256     263987256
 MEMORY| MemFree             246756364     246756364     246756364     246756364
 MEMORY| Buffers                   148           148           148           148
 MEMORY| Cached               12901800      12901800      12901800      12901800
 MEMORY| Slab                  1264488       1264488       1264488       1264488
 MEMORY| SReclaimable           613328        613328        613328        613328
 MEMORY| MemLikelyFree       260271640     260271640     260271640     260271640


 *** Fundamental physical constants (SI units) ***

 *** Literature: B. J. Mohr and B. N. Taylor,
 ***             CODATA recommended values of the fundamental physical
 ***             constants: 2006, Web Version 5.1
 ***             http://physics.nist.gov/constants

 Speed of light in vacuum [m/s]                             2.99792458000000E+08
 Magnetic constant or permeability of vacuum [N/A**2]       1.25663706143592E-06
 Electric constant or permittivity of vacuum [F/m]          8.85418781762039E-12
 Planck constant (h) [J*s]                                  6.62606896000000E-34
 Planck constant (h-bar) [J*s]                              1.05457162825177E-34
 Elementary charge [C]                                      1.60217648700000E-19
 Electron mass [kg]                                         9.10938215000000E-31
 Electron g factor [ ]                                     -2.00231930436220E+00
 Proton mass [kg]                                           1.67262163700000E-27
 Fine-structure constant                                    7.29735253760000E-03
 Rydberg constant [1/m]                                     1.09737315685270E+07
 Avogadro constant [1/mol]                                  6.02214179000000E+23
 Boltzmann constant [J/K]                                   1.38065040000000E-23
 Atomic mass unit [kg]                                      1.66053878200000E-27
 Bohr radius [m]                                            5.29177208590000E-11

 *** Conversion factors ***

 [u] -> [a.u.]                                              1.82288848426455E+03
 [Angstrom] -> [Bohr] = [a.u.]                              1.88972613288564E+00
 [a.u.] = [Bohr] -> [Angstrom]                              5.29177208590000E-01
 [a.u.] -> [s]                                              2.41888432650478E-17
 [a.u.] -> [fs]                                             2.41888432650478E-02
 [a.u.] -> [J]                                              4.35974393937059E-18
 [a.u.] -> [N]                                              8.23872205491840E-08
 [a.u.] -> [K]                                              3.15774647902944E+05
 [a.u.] -> [kJ/mol]                                         2.62549961709828E+03
 [a.u.] -> [kcal/mol]                                       6.27509468713739E+02
 [a.u.] -> [Pa]                                             2.94210107994716E+13
 [a.u.] -> [bar]                                            2.94210107994716E+08
 [a.u.] -> [atm]                                            2.90362800883016E+08
 [a.u.] -> [eV]                                             2.72113838565563E+01
 [a.u.] -> [Hz]                                             6.57968392072181E+15
 [a.u.] -> [1/cm] (wave numbers)                            2.19474631370540E+05
 [a.u./Bohr**2] -> [1/cm]                                   5.14048714338585E+03
 
 DBCSR| CPU Multiplication driver                                           XSMM
 DBCSR| Multrec recursion limit                                              512
 DBCSR| Multiplication stack size                                           1000
 DBCSR| Maximum elements for images                                    UNLIMITED
 DBCSR| Multiplicative factor virtual images                                   1
 DBCSR| Use multiplication densification                                       T
 DBCSR| Multiplication size stacks                                             3
 DBCSR| Use memory pool for CPU allocation                                     F
 DBCSR| Number of 3D layers                                               SINGLE
 DBCSR| Use MPI memory allocation                                              F
 DBCSR| Use RMA algorithm                                                      F
 DBCSR| Use Communication thread                                               T
 DBCSR| Communication thread load                                             87
 DBCSR| Split modifier for TAS multiplication algorithm                  1.0E+00

 BASOPT| Total number of calculations      7

 BASOPT| Content of basis combination      1
 BASOPT|     Element:   NA    Basis set:    DZVP-MOLOPT-PBE0-GTH-Q9
 BASOPT|     Element:    H    Basis set:    DZVP-MOLOPT-PBE0-GTH-Q1
 BASOPT|     Element:    N    Basis set:    DZVP-MOLOPT-PBE0-GTH-Q5
 BASOPT|     Element:    O    Basis set:    DZVP-MOLOPT-PBE0-GTH-Q6
 BASOPT|     Element:    F    Basis set:    DZVP-MOLOPT-PBE0-GTH-Q7
 BASOPT|     Element:    P    Basis set:    DZVP-MOLOPT-PBE0-GTH-Q5
 BASOPT|     Element:    S    Basis set:    DZVP-MOLOPT-PBE0-GTH-Q6
 BASOPT|     Element:   CL    Basis set:    DZVP-MOLOPT-PBE0-GTH-Q7

 BASOPT| Information at iteration number:       0
 BASOPT| Training set | Combination | Rho difference | Condition num. | Time
 BASOPT| -----------------------------------------------------------------------
 BASOPT|        1     |       1     | 0.15165646E-01 | 0.38768529E+02 |    0.018
 BASOPT|        2     |       1     | 0.18536445E-01 | 0.36954987E+02 |    0.024
 BASOPT|        3     |       1     | 0.18193239E-01 | 0.83179481E+02 |    0.033
 BASOPT|        4     |       1     | 0.17431041E-01 | 0.74338523E+02 |    0.043
 BASOPT|        5     |       1     | 0.82776634E-02 | 0.18984284E+02 |    0.014
 BASOPT|        6     |       1     | 0.70186462E-02 | 0.18425537E+02 |    0.012
 BASOPT|        7     |       1     | 0.11947399E-01 | 0.10907017E+02 |    0.011
 BASOPT| -----------------------------------------------------------------------
 BASOPT| Total residuum value: -.14126409E+04

 BASOPT| Information at iteration number:     100
 BASOPT| Training set | Combination | Rho difference | Condition num. | Time
 BASOPT| -----------------------------------------------------------------------
 BASOPT|        1     |       1     | 0.11724865E-01 | 0.53041279E+02 |    1.560
 BASOPT|        2     |       1     | 0.13439689E-01 | 0.36269538E+02 |    2.241
 BASOPT|        3     |       1     | 0.14652774E-01 | 0.13808964E+03 |    3.059
 BASOPT|        4     |       1     | 0.15835995E-01 | 0.11218704E+03 |    3.854
 BASOPT|        5     |       1     | 0.71328190E-02 | 0.13014291E+02 |    1.195
 BASOPT|        6     |       1     | 0.57630066E-02 | 0.14367032E+02 |    0.959
 BASOPT|        7     |       1     | 0.11923390E-01 | 0.90652646E+01 |    0.881
 BASOPT| -----------------------------------------------------------------------
 BASOPT| Total residuum value: -.14194023E+04

 BASOPT| Information at iteration number:     200
 BASOPT| Training set | Combination | Rho difference | Condition num. | Time
 BASOPT| -----------------------------------------------------------------------
 BASOPT|        1     |       1     | 0.97710592E-02 | 0.40005354E+02 |    3.100
 BASOPT|        2     |       1     | 0.12875921E-01 | 0.36757456E+02 |    4.458
 BASOPT|        3     |       1     | 0.97595004E-02 | 0.86406333E+02 |    6.085
 BASOPT|        4     |       1     | 0.92498369E-02 | 0.76437369E+02 |    7.660
 BASOPT|        5     |       1     | 0.56960184E-02 | 0.18315042E+02 |    2.375
 BASOPT|        6     |       1     | 0.45160626E-02 | 0.17929834E+02 |    1.906
 BASOPT|        7     |       1     | 0.90115912E-02 | 0.10535790E+02 |    1.749
 BASOPT| -----------------------------------------------------------------------
 BASOPT| Total residuum value: -.14210877E+04

 BASOPT| Information at iteration number:     300
 BASOPT| Training set | Combination | Rho difference | Condition num. | Time
 BASOPT| -----------------------------------------------------------------------
 BASOPT|        1     |       1     | 0.93930041E-02 | 0.41777074E+02 |    4.643
 BASOPT|        2     |       1     | 0.12197047E-01 | 0.36998663E+02 |    6.674
 BASOPT|        3     |       1     | 0.89947057E-02 | 0.88509304E+02 |    9.111
 BASOPT|        4     |       1     | 0.86345040E-02 | 0.77310864E+02 |   11.469
 BASOPT|        5     |       1     | 0.55415100E-02 | 0.17734479E+02 |    3.554
 BASOPT|        6     |       1     | 0.44159340E-02 | 0.17757879E+02 |    2.852
 BASOPT|        7     |       1     | 0.86719311E-02 | 0.10173501E+02 |    2.618
 BASOPT| -----------------------------------------------------------------------
 BASOPT| Total residuum value: -.14212443E+04

 BASOPT| Information at iteration number:     400
 BASOPT| Training set | Combination | Rho difference | Condition num. | Time
 BASOPT| -----------------------------------------------------------------------
 BASOPT|        1     |       1     | 0.94818453E-02 | 0.41930886E+02 |    6.187
 BASOPT|        2     |       1     | 0.12366040E-01 | 0.37211272E+02 |    8.889
 BASOPT|        3     |       1     | 0.91407359E-02 | 0.90540969E+02 |   12.137
 BASOPT|        4     |       1     | 0.88081237E-02 | 0.79275814E+02 |   15.276
 BASOPT|        5     |       1     | 0.55973151E-02 | 0.18050465E+02 |    4.735
 BASOPT|        6     |       1     | 0.44509546E-02 | 0.17799039E+02 |    3.798
 BASOPT|        7     |       1     | 0.87468614E-02 | 0.99474776E+01 |    3.484
 BASOPT| -----------------------------------------------------------------------
 BASOPT| Total residuum value: -.14214290E+04

 BASOPT| Information at iteration number:     500
 BASOPT| Training set | Combination | Rho difference | Condition num. | Time
 BASOPT| -----------------------------------------------------------------------
 BASOPT|        1     |       1     | 0.94945429E-02 | 0.42006141E+02 |    7.732
 BASOPT|        2     |       1     | 0.12395524E-01 | 0.37338598E+02 |   11.104
 BASOPT|        3     |       1     | 0.91618716E-02 | 0.91754692E+02 |   15.164
 BASOPT|        4     |       1     | 0.88256911E-02 | 0.80560940E+02 |   19.084
 BASOPT|        5     |       1     | 0.55936152E-02 | 0.18233977E+02 |    5.916
 BASOPT|        6     |       1     | 0.44465285E-02 | 0.17888712E+02 |    4.746
 BASOPT|        7     |       1     | 0.87737281E-02 | 0.10481439E+02 |    4.352
 BASOPT| -----------------------------------------------------------------------
 BASOPT| Total residuum value: -.14214075E+04

 BASOPT| Information at iteration number:     600
 BASOPT| Training set | Combination | Rho difference | Condition num. | Time
 BASOPT| -----------------------------------------------------------------------
 BASOPT|        1     |       1     | 0.94314011E-02 | 0.42304811E+02 |    9.277
 BASOPT|        2     |       1     | 0.12294078E-01 | 0.37282288E+02 |   13.321
 BASOPT|        3     |       1     | 0.90572711E-02 | 0.92948404E+02 |   18.190
 BASOPT|        4     |       1     | 0.88075884E-02 | 0.81345468E+02 |   22.894
 BASOPT|        5     |       1     | 0.56117383E-02 | 0.18053670E+02 |    7.098
 BASOPT|        6     |       1     | 0.44651981E-02 | 0.17759960E+02 |    5.691
 BASOPT|        7     |       1     | 0.87254155E-02 | 0.10382901E+02 |    5.218
 BASOPT| -----------------------------------------------------------------------
 BASOPT| Total residuum value: -.14214938E+04

 BASOPT| Information at iteration number:     700
 BASOPT| Training set | Combination | Rho difference | Condition num. | Time
 BASOPT| -----------------------------------------------------------------------
 BASOPT|        1     |       1     | 0.93183180E-02 | 0.42629042E+02 |   10.822
 BASOPT|        2     |       1     | 0.12105957E-01 | 0.37199231E+02 |   15.538
 BASOPT|        3     |       1     | 0.88703363E-02 | 0.94119930E+02 |   21.215
 BASOPT|        4     |       1     | 0.86916969E-02 | 0.82094367E+02 |   26.706
 BASOPT|        5     |       1     | 0.55856453E-02 | 0.17819789E+02 |    8.280
 BASOPT|        6     |       1     | 0.44506964E-02 | 0.17602569E+02 |    6.638
 BASOPT|        7     |       1     | 0.86532818E-02 | 0.10248910E+02 |    6.085
 BASOPT| -----------------------------------------------------------------------
 BASOPT| Total residuum value: -.14215105E+04

 BASOPT| Information at iteration number:     800
 BASOPT| Training set | Combination | Rho difference | Condition num. | Time
 BASOPT| -----------------------------------------------------------------------
 BASOPT|        1     |       1     | 0.92973977E-02 | 0.42905329E+02 |   12.368
 BASOPT|        2     |       1     | 0.12061976E-01 | 0.37351552E+02 |   17.757
 BASOPT|        3     |       1     | 0.88156972E-02 | 0.94443785E+02 |   24.241
 BASOPT|        4     |       1     | 0.86281105E-02 | 0.82328571E+02 |   30.517
 BASOPT|        5     |       1     | 0.55673109E-02 | 0.17849201E+02 |    9.463
 BASOPT|        6     |       1     | 0.44353931E-02 | 0.17667294E+02 |    7.585
 BASOPT|        7     |       1     | 0.86322932E-02 | 0.10655626E+02 |    6.953
 BASOPT| -----------------------------------------------------------------------
 BASOPT| Total residuum value: -.14215218E+04

 BASOPT| Information at iteration number:     900
 BASOPT| Training set | Combination | Rho difference | Condition num. | Time
 BASOPT| -----------------------------------------------------------------------
 BASOPT|        1     |       1     | 0.93513151E-02 | 0.42737658E+02 |   13.912
 BASOPT|        2     |       1     | 0.12143332E-01 | 0.37475096E+02 |   19.973
 BASOPT|        3     |       1     | 0.88974783E-02 | 0.93170639E+02 |   27.265
 BASOPT|        4     |       1     | 0.86158918E-02 | 0.81360281E+02 |   34.329
 BASOPT|        5     |       1     | 0.55487237E-02 | 0.18026515E+02 |   10.646
 BASOPT|        6     |       1     | 0.44186907E-02 | 0.17806633E+02 |    8.531
 BASOPT|        7     |       1     | 0.86533951E-02 | 0.10764251E+02 |    7.822
 BASOPT| -----------------------------------------------------------------------
 BASOPT| Total residuum value: -.14215242E+04

 BASOPT| Information at iteration number:    1000
 BASOPT| Training set | Combination | Rho difference | Condition num. | Time
 BASOPT| -----------------------------------------------------------------------
 BASOPT|        1     |       1     | 0.93370659E-02 | 0.42884386E+02 |   15.456
 BASOPT|        2     |       1     | 0.12113240E-01 | 0.37468773E+02 |   22.191
 BASOPT|        3     |       1     | 0.88693699E-02 | 0.93251700E+02 |   30.291
 BASOPT|        4     |       1     | 0.86163896E-02 | 0.81328458E+02 |   38.140
 BASOPT|        5     |       1     | 0.55557421E-02 | 0.17940627E+02 |   11.830
 BASOPT|        6     |       1     | 0.44235699E-02 | 0.17761236E+02 |    9.480
 BASOPT|        7     |       1     | 0.86443173E-02 | 0.10687838E+02 |    8.690
 BASOPT| -----------------------------------------------------------------------
 BASOPT| Total residuum value: -.14215270E+04

 BASOPT| Information at iteration number:    1100
 BASOPT| Training set | Combination | Rho difference | Condition num. | Time
 BASOPT| -----------------------------------------------------------------------
 BASOPT|        1     |       1     | 0.93576811E-02 | 0.42902578E+02 |   16.999
 BASOPT|        2     |       1     | 0.12137486E-01 | 0.37515564E+02 |   24.412
 BASOPT|        3     |       1     | 0.88994460E-02 | 0.92909081E+02 |   33.319
 BASOPT|        4     |       1     | 0.86270668E-02 | 0.81035878E+02 |   41.951
 BASOPT|        5     |       1     | 0.55561142E-02 | 0.17973519E+02 |   13.015
 BASOPT|        6     |       1     | 0.44235183E-02 | 0.17796408E+02 |   10.429
 BASOPT|        7     |       1     | 0.86530312E-02 | 0.10712905E+02 |    9.559
 BASOPT| -----------------------------------------------------------------------
 BASOPT| Total residuum value: -.14215273E+04

 BASOPT| Information at iteration number:    1200
 BASOPT| Training set | Combination | Rho difference | Condition num. | Time
 BASOPT| -----------------------------------------------------------------------
 BASOPT|        1     |       1     | 0.93363498E-02 | 0.42942304E+02 |   18.543
 BASOPT|        2     |       1     | 0.12106034E-01 | 0.37489559E+02 |   26.631
 BASOPT|        3     |       1     | 0.88634737E-02 | 0.93212450E+02 |   36.346
 BASOPT|        4     |       1     | 0.86096717E-02 | 0.81261166E+02 |   45.762
 BASOPT|        5     |       1     | 0.55531959E-02 | 0.17929196E+02 |   14.199
 BASOPT|        6     |       1     | 0.44218364E-02 | 0.17758163E+02 |   11.380
 BASOPT|        7     |       1     | 0.86414254E-02 | 0.10650022E+02 |   10.427
 BASOPT| -----------------------------------------------------------------------
 BASOPT| Total residuum value: -.14215279E+04

 BASOPT| Information at iteration number:    1300
 BASOPT| Training set | Combination | Rho difference | Condition num. | Time
 BASOPT| -----------------------------------------------------------------------
 BASOPT|        1     |       1     | 0.93332547E-02 | 0.42993186E+02 |   20.088
 BASOPT|        2     |       1     | 0.12094874E-01 | 0.37498573E+02 |   28.851
 BASOPT|        3     |       1     | 0.88533082E-02 | 0.93301191E+02 |   39.374
 BASOPT|        4     |       1     | 0.86040188E-02 | 0.81312666E+02 |   49.573
 BASOPT|        5     |       1     | 0.55520652E-02 | 0.17909325E+02 |   15.384
 BASOPT|        6     |       1     | 0.44218677E-02 | 0.17749978E+02 |   12.329
 BASOPT|        7     |       1     | 0.86371335E-02 | 0.10622654E+02 |   11.296
 BASOPT| -----------------------------------------------------------------------
 BASOPT| Total residuum value: -.14215286E+04

 BASOPT| Information at iteration number:    1400
 BASOPT| Training set | Combination | Rho difference | Condition num. | Time
 BASOPT| -----------------------------------------------------------------------
 BASOPT|        1     |       1     | 0.93346899E-02 | 0.42976527E+02 |   21.634
 BASOPT|        2     |       1     | 0.12092169E-01 | 0.37511335E+02 |   31.073
 BASOPT|        3     |       1     | 0.88492170E-02 | 0.93140847E+02 |   42.401
 BASOPT|        4     |       1     | 0.85863810E-02 | 0.81169182E+02 |   53.385
 BASOPT|        5     |       1     | 0.55451951E-02 | 0.17910548E+02 |   16.570
 BASOPT|        6     |       1     | 0.44167149E-02 | 0.17753279E+02 |   13.280
 BASOPT|        7     |       1     | 0.86342605E-02 | 0.10553852E+02 |   12.167
 BASOPT| -----------------------------------------------------------------------
 BASOPT| Total residuum value: -.14215294E+04

 BASOPT| Information at iteration number:    1500
 BASOPT| Training set | Combination | Rho difference | Condition num. | Time
 BASOPT| -----------------------------------------------------------------------
 BASOPT|        1     |       1     | 0.93273074E-02 | 0.43039276E+02 |   23.190
 BASOPT|        2     |       1     | 0.12076457E-01 | 0.37515254E+02 |   33.310
 BASOPT|        3     |       1     | 0.88320167E-02 | 0.93412497E+02 |   45.436
 BASOPT|        4     |       1     | 0.85833048E-02 | 0.81360719E+02 |   57.205
 BASOPT|        5     |       1     | 0.55474825E-02 | 0.17878682E+02 |   17.759
 BASOPT|        6     |       1     | 0.44190524E-02 | 0.17728200E+02 |   14.239
 BASOPT|        7     |       1     | 0.86298608E-02 | 0.10477483E+02 |   13.044
 BASOPT| -----------------------------------------------------------------------
 BASOPT| Total residuum value: -.14215300E+04

 BASOPT| Information at iteration number:    1600
 BASOPT| Training set | Combination | Rho difference | Condition num. | Time
 BASOPT| -----------------------------------------------------------------------
 BASOPT|        1     |       1     | 0.93280522E-02 | 0.43126537E+02 |   24.742
 BASOPT|        2     |       1     | 0.12070500E-01 | 0.37572296E+02 |   35.562
 BASOPT|        3     |       1     | 0.88208999E-02 | 0.93766014E+02 |   48.476
 BASOPT|        4     |       1     | 0.85716677E-02 | 0.81643994E+02 |   61.033
 BASOPT|        5     |       1     | 0.55441487E-02 | 0.17892581E+02 |   18.959
 BASOPT|        6     |       1     | 0.44169453E-02 | 0.17729708E+02 |   15.210
 BASOPT|        7     |       1     | 0.86269679E-02 | 0.10419794E+02 |   13.929
 BASOPT| -----------------------------------------------------------------------
 BASOPT| Total residuum value: -.14215306E+04

 BASOPT| Information at iteration number:    1700
 BASOPT| Training set | Combination | Rho difference | Condition num. | Time
 BASOPT| -----------------------------------------------------------------------
 BASOPT|        1     |       1     | 0.93279644E-02 | 0.43170835E+02 |   26.287
 BASOPT|        2     |       1     | 0.12065249E-01 | 0.37592967E+02 |   37.787
 BASOPT|        3     |       1     | 0.88130675E-02 | 0.94012354E+02 |   51.504
 BASOPT|        4     |       1     | 0.85670598E-02 | 0.81835176E+02 |   64.846
 BASOPT|        5     |       1     | 0.55439217E-02 | 0.17888720E+02 |   20.145
 BASOPT|        6     |       1     | 0.44171750E-02 | 0.17718705E+02 |   16.166
 BASOPT|        7     |       1     | 0.86255271E-02 | 0.10367583E+02 |   14.802
 BASOPT| -----------------------------------------------------------------------
 BASOPT| Total residuum value: -.14215310E+04

 BASOPT| Information at iteration number:    1800
 BASOPT| Training set | Combination | Rho difference | Condition num. | Time
 BASOPT| -----------------------------------------------------------------------
 BASOPT|        1     |       1     | 0.93267436E-02 | 0.43188502E+02 |   27.832
 BASOPT|        2     |       1     | 0.12061304E-01 | 0.37597136E+02 |   40.008
 BASOPT|        3     |       1     | 0.88081507E-02 | 0.94047627E+02 |   54.530
 BASOPT|        4     |       1     | 0.85635780E-02 | 0.81847259E+02 |   68.660
 BASOPT|        5     |       1     | 0.55437020E-02 | 0.17879321E+02 |   21.331
 BASOPT|        6     |       1     | 0.44167901E-02 | 0.17709951E+02 |   17.120
 BASOPT|        7     |       1     | 0.86240470E-02 | 0.10329736E+02 |   15.678
 BASOPT| -----------------------------------------------------------------------
 BASOPT| Total residuum value: -.14215313E+04

 BASOPT| Information at iteration number:    1900
 BASOPT| Training set | Combination | Rho difference | Condition num. | Time
 BASOPT| -----------------------------------------------------------------------
 BASOPT|        1     |       1     | 0.93254939E-02 | 0.43305542E+02 |   29.379
 BASOPT|        2     |       1     | 0.12048268E-01 | 0.37633318E+02 |   42.234
 BASOPT|        3     |       1     | 0.87962069E-02 | 0.94210738E+02 |   57.557
 BASOPT|        4     |       1     | 0.85577849E-02 | 0.81931123E+02 |   72.477
 BASOPT|        5     |       1     | 0.55430634E-02 | 0.17856397E+02 |   22.518
 BASOPT|        6     |       1     | 0.44167975E-02 | 0.17696172E+02 |   18.073
 BASOPT|        7     |       1     | 0.86193080E-02 | 0.10276539E+02 |   16.553
 BASOPT| -----------------------------------------------------------------------
 BASOPT| Total residuum value: -.14215318E+04

 BASOPT| Information at iteration number:    2000
 BASOPT| Training set | Combination | Rho difference | Condition num. | Time
 BASOPT| -----------------------------------------------------------------------
 BASOPT|        1     |       1     | 0.93233452E-02 | 0.43330650E+02 |   30.927
 BASOPT|        2     |       1     | 0.12040407E-01 | 0.37638681E+02 |   44.457
 BASOPT|        3     |       1     | 0.87866154E-02 | 0.94261009E+02 |   60.584
 BASOPT|        4     |       1     | 0.85495437E-02 | 0.81948766E+02 |   76.290
 BASOPT|        5     |       1     | 0.55412741E-02 | 0.17840486E+02 |   23.704
 BASOPT|        6     |       1     | 0.44156361E-02 | 0.17680465E+02 |   19.029
 BASOPT|        7     |       1     | 0.86170010E-02 | 0.10195493E+02 |   17.427
 BASOPT| -----------------------------------------------------------------------
 BASOPT| Total residuum value: -.14215324E+04

 BASOPT| Information at iteration number:    2100
 BASOPT| Training set | Combination | Rho difference | Condition num. | Time
 BASOPT| -----------------------------------------------------------------------
 BASOPT|        1     |       1     | 0.93438237E-02 | 0.43271289E+02 |   32.476
 BASOPT|        2     |       1     | 0.12068866E-01 | 0.37673025E+02 |   46.683
 BASOPT|        3     |       1     | 0.88124929E-02 | 0.93888270E+02 |   63.613
 BASOPT|        4     |       1     | 0.85477588E-02 | 0.81659566E+02 |   80.099
 BASOPT|        5     |       1     | 0.55365741E-02 | 0.17886127E+02 |   24.890
 BASOPT|        6     |       1     | 0.44114861E-02 | 0.17712651E+02 |   19.983
 BASOPT|        7     |       1     | 0.86245590E-02 | 0.10131004E+02 |   18.299
 BASOPT| -----------------------------------------------------------------------
 BASOPT| Total residuum value: -.14215330E+04

 BASOPT| Information at iteration number:    2200
 BASOPT| Training set | Combination | Rho difference | Condition num. | Time
 BASOPT| -----------------------------------------------------------------------
 BASOPT|        1     |       1     | 0.93361137E-02 | 0.43302485E+02 |   34.026
 BASOPT|        2     |       1     | 0.12047937E-01 | 0.37651411E+02 |   48.910
 BASOPT|        3     |       1     | 0.87941203E-02 | 0.93837184E+02 |   66.641
 BASOPT|        4     |       1     | 0.85356657E-02 | 0.81559672E+02 |   83.908
 BASOPT|        5     |       1     | 0.55341789E-02 | 0.17830486E+02 |   26.080
 BASOPT|        6     |       1     | 0.44104353E-02 | 0.17676383E+02 |   20.939
 BASOPT|        7     |       1     | 0.86178789E-02 | 0.10001217E+02 |   19.171
 BASOPT| -----------------------------------------------------------------------
 BASOPT| Total residuum value: -.14215337E+04

 BASOPT| Information at iteration number:    2300
 BASOPT| Training set | Combination | Rho difference | Condition num. | Time
 BASOPT| -----------------------------------------------------------------------
 BASOPT|        1     |       1     | 0.93421113E-02 | 0.43345075E+02 |   35.574
 BASOPT|        2     |       1     | 0.12040118E-01 | 0.37666508E+02 |   51.140
 BASOPT|        3     |       1     | 0.87884653E-02 | 0.93547728E+02 |   69.667
 BASOPT|        4     |       1     | 0.85193902E-02 | 0.81241640E+02 |   87.719
 BASOPT|        5     |       1     | 0.55286318E-02 | 0.17786680E+02 |   27.270
 BASOPT|        6     |       1     | 0.44063234E-02 | 0.17649184E+02 |   21.897
 BASOPT|        7     |       1     | 0.86147257E-02 | 0.97589695E+01 |   20.043
 BASOPT| -----------------------------------------------------------------------
 BASOPT| Total residuum value: -.14215348E+04

 BASOPT| Information at iteration number:    2400
 BASOPT| Training set | Combination | Rho difference | Condition num. | Time
 BASOPT| -----------------------------------------------------------------------
 BASOPT|        1     |       1     | 0.93530642E-02 | 0.43323441E+02 |   37.122
 BASOPT|        2     |       1     | 0.12049770E-01 | 0.37671877E+02 |   53.373
 BASOPT|        3     |       1     | 0.87985426E-02 | 0.93343738E+02 |   72.697
 BASOPT|        4     |       1     | 0.85182920E-02 | 0.81080382E+02 |   91.530
 BASOPT|        5     |       1     | 0.55271795E-02 | 0.17786056E+02 |   28.463
 BASOPT|        6     |       1     | 0.44053530E-02 | 0.17656835E+02 |   22.858
 BASOPT|        7     |       1     | 0.86173893E-02 | 0.97481612E+01 |   20.914
 BASOPT| -----------------------------------------------------------------------
 BASOPT| Total residuum value: -.14215354E+04

 BASOPT| Information at iteration number:    2500
 BASOPT| Training set | Combination | Rho difference | Condition num. | Time
 BASOPT| -----------------------------------------------------------------------
 BASOPT|        1     |       1     | 0.93508922E-02 | 0.43307783E+02 |   38.697
 BASOPT|        2     |       1     | 0.12042527E-01 | 0.37657132E+02 |   55.613
 BASOPT|        3     |       1     | 0.87927282E-02 | 0.93178446E+02 |   75.740
 BASOPT|        4     |       1     | 0.85074597E-02 | 0.80926484E+02 |   95.371
 BASOPT|        5     |       1     | 0.55223129E-02 | 0.17768650E+02 |   29.660
 BASOPT|        6     |       1     | 0.44019415E-02 | 0.17647134E+02 |   23.824
 BASOPT|        7     |       1     | 0.86142088E-02 | 0.97010716E+01 |   21.800
 BASOPT| -----------------------------------------------------------------------
 BASOPT| Total residuum value: -.14215357E+04

 BASOPT| Information at iteration number:    2600
 BASOPT| Training set | Combination | Rho difference | Condition num. | Time
 BASOPT| -----------------------------------------------------------------------
 BASOPT|        1     |       1     | 0.93385715E-02 | 0.43312811E+02 |   40.251
 BASOPT|        2     |       1     | 0.12016230E-01 | 0.37608476E+02 |   57.872
 BASOPT|        3     |       1     | 0.87725978E-02 | 0.93177543E+02 |   78.781
 BASOPT|        4     |       1     | 0.84988549E-02 | 0.80886023E+02 |   99.197
 BASOPT|        5     |       1     | 0.55203966E-02 | 0.17703415E+02 |   30.868
 BASOPT|        6     |       1     | 0.44024384E-02 | 0.17608606E+02 |   24.801
 BASOPT|        7     |       1     | 0.86055677E-02 | 0.96059305E+01 |   22.678
 BASOPT| -----------------------------------------------------------------------
 BASOPT| Total residuum value: -.14215361E+04

 BASOPT| Information at iteration number:    2700
 BASOPT| Training set | Combination | Rho difference | Condition num. | Time
 BASOPT| -----------------------------------------------------------------------
 BASOPT|        1     |       1     | 0.93408822E-02 | 0.43312768E+02 |   41.836
 BASOPT|        2     |       1     | 0.12016873E-01 | 0.37612569E+02 |   60.103
 BASOPT|        3     |       1     | 0.87718669E-02 | 0.93093166E+02 |   81.832
 BASOPT|        4     |       1     | 0.84954841E-02 | 0.80801225E+02 |  103.047
 BASOPT|        5     |       1     | 0.55190657E-02 | 0.17692806E+02 |   32.060
 BASOPT|        6     |       1     | 0.44011372E-02 | 0.17601663E+02 |   25.767
 BASOPT|        7     |       1     | 0.86059774E-02 | 0.94934579E+01 |   23.574
 BASOPT| -----------------------------------------------------------------------
 BASOPT| Total residuum value: -.14215366E+04

 BASOPT| Information at iteration number:    2800
 BASOPT| Training set | Combination | Rho difference | Condition num. | Time
 BASOPT| -----------------------------------------------------------------------
 BASOPT|        1     |       1     | 0.93445083E-02 | 0.43312796E+02 |   43.399
 BASOPT|        2     |       1     | 0.12015616E-01 | 0.37607794E+02 |   62.333
 BASOPT|        3     |       1     | 0.87736356E-02 | 0.92954208E+02 |   84.865
 BASOPT|        4     |       1     | 0.84940531E-02 | 0.80662591E+02 |  106.868
 BASOPT|        5     |       1     | 0.55180469E-02 | 0.17671152E+02 |   33.255
 BASOPT|        6     |       1     | 0.44008497E-02 | 0.17590298E+02 |   26.735
 BASOPT|        7     |       1     | 0.86059916E-02 | 0.93809961E+01 |   24.459
 BASOPT| -----------------------------------------------------------------------
 BASOPT| Total residuum value: -.14215371E+04

 BASOPT| Information at iteration number:    2900
 BASOPT| Training set | Combination | Rho difference | Condition num. | Time
 BASOPT| -----------------------------------------------------------------------
 BASOPT|        1     |       1     | 0.93462821E-02 | 0.43271867E+02 |   44.946
 BASOPT|        2     |       1     | 0.12012848E-01 | 0.37580330E+02 |   64.565
 BASOPT|        3     |       1     | 0.87744212E-02 | 0.92759714E+02 |   87.898
 BASOPT|        4     |       1     | 0.84903286E-02 | 0.80488030E+02 |  110.682
 BASOPT|        5     |       1     | 0.55153796E-02 | 0.17645330E+02 |   34.446
 BASOPT|        6     |       1     | 0.43996882E-02 | 0.17576291E+02 |   27.706
 BASOPT|        7     |       1     | 0.86048278E-02 | 0.92800744E+01 |   25.332
 BASOPT| -----------------------------------------------------------------------
 BASOPT| Total residuum value: -.14215376E+04

 BASOPT| Information at iteration number:    3000
 BASOPT| Training set | Combination | Rho difference | Condition num. | Time
 BASOPT| -----------------------------------------------------------------------
 BASOPT|        1     |       1     | 0.93508083E-02 | 0.43232949E+02 |   46.503
 BASOPT|        2     |       1     | 0.12013566E-01 | 0.37564854E+02 |   66.819
 BASOPT|        3     |       1     | 0.87772177E-02 | 0.92395749E+02 |   90.943
 BASOPT|        4     |       1     | 0.84827805E-02 | 0.80149592E+02 |  114.512
 BASOPT|        5     |       1     | 0.55109206E-02 | 0.17619947E+02 |   35.645
 BASOPT|        6     |       1     | 0.43964410E-02 | 0.17561050E+02 |   28.698
 BASOPT|        7     |       1     | 0.86044734E-02 | 0.90598615E+01 |   26.211
 BASOPT| -----------------------------------------------------------------------
 BASOPT| Total residuum value: -.14215383E+04

 BASOPT| Information at iteration number:    3100
 BASOPT| Training set | Combination | Rho difference | Condition num. | Time
 BASOPT| -----------------------------------------------------------------------
 BASOPT|        1     |       1     | 0.93460083E-02 | 0.43279122E+02 |   48.071
 BASOPT|        2     |       1     | 0.11997392E-01 | 0.37558402E+02 |   69.055
 BASOPT|        3     |       1     | 0.87659559E-02 | 0.92394741E+02 |   93.988
 BASOPT|        4     |       1     | 0.84763942E-02 | 0.80095722E+02 |  118.350
 BASOPT|        5     |       1     | 0.55087036E-02 | 0.17581423E+02 |   36.856
 BASOPT|        6     |       1     | 0.43958570E-02 | 0.17534942E+02 |   29.682
 BASOPT|        7     |       1     | 0.85996900E-02 | 0.89277863E+01 |   27.092
 BASOPT| -----------------------------------------------------------------------
 BASOPT| Total residuum value: -.14215388E+04

 BASOPT| Information at iteration number:    3200
 BASOPT| Training set | Combination | Rho difference | Condition num. | Time
 BASOPT| -----------------------------------------------------------------------
 BASOPT|        1     |       1     | 0.93511584E-02 | 0.43310439E+02 |   49.625
 BASOPT|        2     |       1     | 0.11995227E-01 | 0.37576919E+02 |   71.287
 BASOPT|        3     |       1     | 0.87630862E-02 | 0.92322527E+02 |   97.067
 BASOPT|        4     |       1     | 0.84684889E-02 | 0.79968047E+02 |  122.245
 BASOPT|        5     |       1     | 0.55042459E-02 | 0.17557314E+02 |   38.060
 BASOPT|        6     |       1     | 0.43928900E-02 | 0.17512369E+02 |   30.648
 BASOPT|        7     |       1     | 0.85977861E-02 | 0.85927803E+01 |   28.003
 BASOPT| -----------------------------------------------------------------------
 BASOPT| Total residuum value: -.14215401E+04

 BASOPT| Information at iteration number:    3300
 BASOPT| Training set | Combination | Rho difference | Condition num. | Time
 BASOPT| -----------------------------------------------------------------------
 BASOPT|        1     |       1     | 0.93512682E-02 | 0.43331501E+02 |   51.179
 BASOPT|        2     |       1     | 0.11991600E-01 | 0.37582713E+02 |   73.522
 BASOPT|        3     |       1     | 0.87584819E-02 | 0.92360067E+02 |  100.150
 BASOPT|        4     |       1     | 0.84664509E-02 | 0.79967132E+02 |  126.140
 BASOPT|        5     |       1     | 0.55034613E-02 | 0.17542106E+02 |   39.267
 BASOPT|        6     |       1     | 0.43927536E-02 | 0.17498472E+02 |   31.610
 BASOPT|        7     |       1     | 0.85971631E-02 | 0.84399860E+01 |   28.926
 BASOPT| -----------------------------------------------------------------------
 BASOPT| Total residuum value: -.14215408E+04

 BASOPT| Information at iteration number:    3400
 BASOPT| Training set | Combination | Rho difference | Condition num. | Time
 BASOPT| -----------------------------------------------------------------------
 BASOPT|        1     |       1     | 0.93462535E-02 | 0.43319296E+02 |   52.730
 BASOPT|        2     |       1     | 0.11982511E-01 | 0.37564152E+02 |   75.759
 BASOPT|        3     |       1     | 0.87481483E-02 | 0.92387988E+02 |  103.187
 BASOPT|        4     |       1     | 0.84611320E-02 | 0.79947134E+02 |  129.966
 BASOPT|        5     |       1     | 0.55013786E-02 | 0.17512874E+02 |   40.462
 BASOPT|        6     |       1     | 0.43919795E-02 | 0.17470111E+02 |   32.572
 BASOPT|        7     |       1     | 0.85932735E-02 | 0.82005013E+01 |   29.806
 BASOPT| -----------------------------------------------------------------------
 BASOPT| Total residuum value: -.14215418E+04

 BASOPT| Information at iteration number:    3500
 BASOPT| Training set | Combination | Rho difference | Condition num. | Time
 BASOPT| -----------------------------------------------------------------------
 BASOPT|        1     |       1     | 0.93372251E-02 | 0.43319741E+02 |   54.280
 BASOPT|        2     |       1     | 0.11961589E-01 | 0.37526804E+02 |   77.995
 BASOPT|        3     |       1     | 0.87302061E-02 | 0.92334239E+02 |  106.218
 BASOPT|        4     |       1     | 0.84530207E-02 | 0.79804342E+02 |  133.778
 BASOPT|        5     |       1     | 0.54973548E-02 | 0.17442337E+02 |   41.657
 BASOPT|        6     |       1     | 0.43904450E-02 | 0.17410462E+02 |   33.529
 BASOPT|        7     |       1     | 0.85861730E-02 | 0.77534544E+01 |   30.680
 BASOPT| -----------------------------------------------------------------------
 BASOPT| Total residuum value: -.14215435E+04

 BASOPT| Information at iteration number:    3600
 BASOPT| Training set | Combination | Rho difference | Condition num. | Time
 BASOPT| -----------------------------------------------------------------------
 BASOPT|        1     |       1     | 0.93418093E-02 | 0.43287679E+02 |   55.829
 BASOPT|        2     |       1     | 0.11966755E-01 | 0.37515769E+02 |   80.227
 BASOPT|        3     |       1     | 0.87359245E-02 | 0.92171571E+02 |  109.248
 BASOPT|        4     |       1     | 0.84545494E-02 | 0.79647247E+02 |  137.591
 BASOPT|        5     |       1     | 0.54963462E-02 | 0.17432284E+02 |   42.854
 BASOPT|        6     |       1     | 0.43898632E-02 | 0.17401134E+02 |   34.484
 BASOPT|        7     |       1     | 0.85872739E-02 | 0.76072564E+01 |   31.554
 BASOPT| -----------------------------------------------------------------------
 BASOPT| Total residuum value: -.14215441E+04

 BASOPT| Information at iteration number:    3700
 BASOPT| Training set | Combination | Rho difference | Condition num. | Time
 BASOPT| -----------------------------------------------------------------------
 BASOPT|        1     |       1     | 0.93459800E-02 | 0.43232703E+02 |   57.379
 BASOPT|        2     |       1     | 0.11969105E-01 | 0.37486391E+02 |   82.454
 BASOPT|        3     |       1     | 0.87396635E-02 | 0.91832204E+02 |  112.278
 BASOPT|        4     |       1     | 0.84529038E-02 | 0.79320909E+02 |  141.404
 BASOPT|        5     |       1     | 0.54934570E-02 | 0.17398667E+02 |   44.051
 BASOPT|        6     |       1     | 0.43882110E-02 | 0.17374149E+02 |   35.441
 BASOPT|        7     |       1     | 0.85868378E-02 | 0.73251029E+01 |   32.428
 BASOPT| -----------------------------------------------------------------------
 BASOPT| Total residuum value: -.14215451E+04

 BASOPT| Information at iteration number:    3800
 BASOPT| Training set | Combination | Rho difference | Condition num. | Time
 BASOPT| -----------------------------------------------------------------------
 BASOPT|        1     |       1     | 0.93433235E-02 | 0.43072847E+02 |   58.931
 BASOPT|        2     |       1     | 0.11973489E-01 | 0.37396146E+02 |   84.680
 BASOPT|        3     |       1     | 0.87432020E-02 | 0.91582124E+02 |  115.307
 BASOPT|        4     |       1     | 0.84596032E-02 | 0.79142968E+02 |  145.216
 BASOPT|        5     |       1     | 0.54948238E-02 | 0.17364911E+02 |   45.246
 BASOPT|        6     |       1     | 0.43894761E-02 | 0.17341862E+02 |   36.397
 BASOPT|        7     |       1     | 0.85882713E-02 | 0.71966699E+01 |   33.301
 BASOPT| -----------------------------------------------------------------------
 BASOPT| Total residuum value: -.14215460E+04

 BASOPT| Information at iteration number:    3900
 BASOPT| Training set | Combination | Rho difference | Condition num. | Time
 BASOPT| -----------------------------------------------------------------------
 BASOPT|        1     |       1     | 0.93318320E-02 | 0.42953874E+02 |   60.481
 BASOPT|        2     |       1     | 0.11961149E-01 | 0.37294764E+02 |   86.908
 BASOPT|        3     |       1     | 0.87327412E-02 | 0.91409922E+02 |  118.339
 BASOPT|        4     |       1     | 0.84622783E-02 | 0.78979375E+02 |  149.032
 BASOPT|        5     |       1     | 0.54962570E-02 | 0.17294768E+02 |   46.439
 BASOPT|        6     |       1     | 0.43907250E-02 | 0.17277830E+02 |   37.354
 BASOPT|        7     |       1     | 0.85855173E-02 | 0.69713685E+01 |   34.175
 BASOPT| -----------------------------------------------------------------------
 BASOPT| Total residuum value: -.14215469E+04

 BASOPT| Information at iteration number:    4000
 BASOPT| Training set | Combination | Rho difference | Condition num. | Time
 BASOPT| -----------------------------------------------------------------------
 BASOPT|        1     |       1     | 0.93259164E-02 | 0.42761908E+02 |   62.032
 BASOPT|        2     |       1     | 0.11960083E-01 | 0.37171093E+02 |   89.135
 BASOPT|        3     |       1     | 0.87308289E-02 | 0.91104875E+02 |  121.370
 BASOPT|        4     |       1     | 0.84701915E-02 | 0.78717519E+02 |  152.847
 BASOPT|        5     |       1     | 0.54993386E-02 | 0.17222405E+02 |   47.630
 BASOPT|        6     |       1     | 0.43933620E-02 | 0.17204729E+02 |   38.310
 BASOPT|        7     |       1     | 0.85866003E-02 | 0.66625124E+01 |   35.049
 BASOPT| -----------------------------------------------------------------------
 BASOPT| Total residuum value: -.14215482E+04

 BASOPT| Information at iteration number:    4100
 BASOPT| Training set | Combination | Rho difference | Condition num. | Time
 BASOPT| -----------------------------------------------------------------------
 BASOPT|        1     |       1     | 0.93294943E-02 | 0.42709657E+02 |   63.583
 BASOPT|        2     |       1     | 0.11968662E-01 | 0.37164555E+02 |   91.361
 BASOPT|        3     |       1     | 0.87363912E-02 | 0.90890895E+02 |  124.403
 BASOPT|        4     |       1     | 0.84672576E-02 | 0.78540309E+02 |  156.657
 BASOPT|        5     |       1     | 0.54970994E-02 | 0.17229839E+02 |   48.822
 BASOPT|        6     |       1     | 0.43913214E-02 | 0.17205857E+02 |   39.268
 BASOPT|        7     |       1     | 0.85876722E-02 | 0.65861499E+01 |   35.923
 BASOPT| -----------------------------------------------------------------------
 BASOPT| Total residuum value: -.14215487E+04

 BASOPT| Information at iteration number:    4200
 BASOPT| Training set | Combination | Rho difference | Condition num. | Time
 BASOPT| -----------------------------------------------------------------------
 BASOPT|        1     |       1     | 0.93334880E-02 | 0.42681250E+02 |   65.134
 BASOPT|        2     |       1     | 0.11971210E-01 | 0.37150962E+02 |   93.586
 BASOPT|        3     |       1     | 0.87422087E-02 | 0.90553048E+02 |  127.434
 BASOPT|        4     |       1     | 0.84638082E-02 | 0.78228262E+02 |  160.476
 BASOPT|        5     |       1     | 0.54939347E-02 | 0.17214432E+02 |   50.017
 BASOPT|        6     |       1     | 0.43889252E-02 | 0.17192915E+02 |   40.225
 BASOPT|        7     |       1     | 0.85870651E-02 | 0.64796930E+01 |   36.796
 BASOPT| -----------------------------------------------------------------------
 BASOPT| Total residuum value: -.14215493E+04

 BASOPT| Information at iteration number:    4300
 BASOPT| Training set | Combination | Rho difference | Condition num. | Time
 BASOPT| -----------------------------------------------------------------------
 BASOPT|        1     |       1     | 0.93279230E-02 | 0.42709593E+02 |   66.686
 BASOPT|        2     |       1     | 0.11956045E-01 | 0.37115970E+02 |   95.810
 BASOPT|        3     |       1     | 0.87331102E-02 | 0.90386113E+02 |  130.465
 BASOPT|        4     |       1     | 0.84676637E-02 | 0.78004997E+02 |  164.292
 BASOPT|        5     |       1     | 0.54959065E-02 | 0.17137712E+02 |   51.210
 BASOPT|        6     |       1     | 0.43905085E-02 | 0.17128613E+02 |   41.182
 BASOPT|        7     |       1     | 0.85839013E-02 | 0.62502590E+01 |   37.669
 BASOPT| -----------------------------------------------------------------------
 BASOPT| Total residuum value: -.14215501E+04

 BASOPT| Information at iteration number:    4400
 BASOPT| Training set | Combination | Rho difference | Condition num. | Time
 BASOPT| -----------------------------------------------------------------------
 BASOPT|        1     |       1     | 0.93272515E-02 | 0.42568212E+02 |   68.239
 BASOPT|        2     |       1     | 0.11958330E-01 | 0.37046223E+02 |   98.034
 BASOPT|        3     |       1     | 0.87316082E-02 | 0.89939942E+02 |  133.497
 BASOPT|        4     |       1     | 0.84628466E-02 | 0.77616630E+02 |  168.108
 BASOPT|        5     |       1     | 0.54927730E-02 | 0.17083636E+02 |   52.404
 BASOPT|        6     |       1     | 0.43876782E-02 | 0.17074482E+02 |   42.139
 BASOPT|        7     |       1     | 0.85831189E-02 | 0.59990974E+01 |   38.543
 BASOPT| -----------------------------------------------------------------------
 BASOPT| Total residuum value: -.14215511E+04

 BASOPT| Information at iteration number:    4500
 BASOPT| Training set | Combination | Rho difference | Condition num. | Time
 BASOPT| -----------------------------------------------------------------------
 BASOPT|        1     |       1     | 0.93154070E-02 | 0.42564470E+02 |   69.791
 BASOPT|        2     |       1     | 0.11934937E-01 | 0.36994250E+02 |  100.259
 BASOPT|        3     |       1     | 0.87129596E-02 | 0.90036083E+02 |  136.530
 BASOPT|        4     |       1     | 0.84622802E-02 | 0.77659482E+02 |  171.925
 BASOPT|        5     |       1     | 0.54940317E-02 | 0.17008156E+02 |   53.597
 BASOPT|        6     |       1     | 0.43901822E-02 | 0.17009033E+02 |   43.097
 BASOPT|        7     |       1     | 0.85776493E-02 | 0.58669405E+01 |   39.419
 BASOPT| -----------------------------------------------------------------------
 BASOPT| Total residuum value: -.14215520E+04

 BASOPT| Information at iteration number:    4600
 BASOPT| Training set | Combination | Rho difference | Condition num. | Time
 BASOPT| -----------------------------------------------------------------------
 BASOPT|        1     |       1     | 0.93267341E-02 | 0.42464575E+02 |   71.344
 BASOPT|        2     |       1     | 0.11955540E-01 | 0.36987408E+02 |  102.480
 BASOPT|        3     |       1     | 0.87279705E-02 | 0.89739122E+02 |  139.565
 BASOPT|        4     |       1     | 0.84615575E-02 | 0.77449267E+02 |  175.748
 BASOPT|        5     |       1     | 0.54922844E-02 | 0.17031417E+02 |   54.789
 BASOPT|        6     |       1     | 0.43885646E-02 | 0.17027802E+02 |   44.055
 BASOPT|        7     |       1     | 0.85829389E-02 | 0.58441792E+01 |   40.295
 BASOPT| -----------------------------------------------------------------------
 BASOPT| Total residuum value: -.14215524E+04

 BASOPT| Information at iteration number:    4700
 BASOPT| Training set | Combination | Rho difference | Condition num. | Time
 BASOPT| -----------------------------------------------------------------------
 BASOPT|        1     |       1     | 0.93292495E-02 | 0.42413012E+02 |   72.898
 BASOPT|        2     |       1     | 0.11954129E-01 | 0.36948102E+02 |  104.704
 BASOPT|        3     |       1     | 0.87304333E-02 | 0.89435769E+02 |  142.601
 BASOPT|        4     |       1     | 0.84624349E-02 | 0.77182901E+02 |  179.570
 BASOPT|        5     |       1     | 0.54912596E-02 | 0.16987735E+02 |   55.982
 BASOPT|        6     |       1     | 0.43884323E-02 | 0.16997185E+02 |   45.014
 BASOPT|        7     |       1     | 0.85830602E-02 | 0.57603415E+01 |   41.171
 BASOPT| -----------------------------------------------------------------------
 BASOPT| Total residuum value: -.14215530E+04

 BASOPT| Information at iteration number:    4800
 BASOPT| Training set | Combination | Rho difference | Condition num. | Time
 BASOPT| -----------------------------------------------------------------------
 BASOPT|        1     |       1     | 0.93299139E-02 | 0.42376984E+02 |   74.452
 BASOPT|        2     |       1     | 0.11944322E-01 | 0.36903618E+02 |  106.927
 BASOPT|        3     |       1     | 0.87266959E-02 | 0.89090977E+02 |  145.638
 BASOPT|        4     |       1     | 0.84595789E-02 | 0.76848009E+02 |  183.398
 BASOPT|        5     |       1     | 0.54884904E-02 | 0.16909573E+02 |   57.176
 BASOPT|        6     |       1     | 0.43872773E-02 | 0.16936657E+02 |   45.974
 BASOPT|        7     |       1     | 0.85799115E-02 | 0.56226547E+01 |   42.049
 BASOPT| -----------------------------------------------------------------------
 BASOPT| Total residuum value: -.14215540E+04

 BASOPT| Information at iteration number:    4900
 BASOPT| Training set | Combination | Rho difference | Condition num. | Time
 BASOPT| -----------------------------------------------------------------------
 BASOPT|        1     |       1     | 0.93421517E-02 | 0.42253406E+02 |   76.006
 BASOPT|        2     |       1     | 0.11956279E-01 | 0.36861050E+02 |  109.152
 BASOPT|        3     |       1     | 0.87364275E-02 | 0.88496266E+02 |  148.676
 BASOPT|        4     |       1     | 0.84571668E-02 | 0.76346005E+02 |  187.225
 BASOPT|        5     |       1     | 0.54852346E-02 | 0.16851970E+02 |   58.372
 BASOPT|        6     |       1     | 0.43851070E-02 | 0.16891418E+02 |   46.935
 BASOPT|        7     |       1     | 0.85826843E-02 | 0.55027330E+01 |   42.926
 BASOPT| -----------------------------------------------------------------------
 BASOPT| Total residuum value: -.14215553E+04

 BASOPT| Information at iteration number:    5000
 BASOPT| Training set | Combination | Rho difference | Condition num. | Time
 BASOPT| -----------------------------------------------------------------------
 BASOPT|        1     |       1     | 0.93384203E-02 | 0.42185294E+02 |   77.558
 BASOPT|        2     |       1     | 0.11938759E-01 | 0.36792272E+02 |  111.379
 BASOPT|        3     |       1     | 0.87254153E-02 | 0.88088093E+02 |  151.713
 BASOPT|        4     |       1     | 0.84490079E-02 | 0.75968593E+02 |  191.063
 BASOPT|        5     |       1     | 0.54808270E-02 | 0.16748207E+02 |   59.568
 BASOPT|        6     |       1     | 0.43830210E-02 | 0.16809488E+02 |   47.894
 BASOPT|        7     |       1     | 0.85773351E-02 | 0.54017571E+01 |   43.802
 BASOPT| -----------------------------------------------------------------------
 BASOPT| Total residuum value: -.14215563E+04

 BASOPT| Information at iteration number:    5100
 BASOPT| Training set | Combination | Rho difference | Condition num. | Time
 BASOPT| -----------------------------------------------------------------------
 BASOPT|        1     |       1     | 0.93334051E-02 | 0.42136364E+02 |   79.111
 BASOPT|        2     |       1     | 0.11926444E-01 | 0.36744700E+02 |  113.605
 BASOPT|        3     |       1     | 0.87147052E-02 | 0.87813017E+02 |  154.751
 BASOPT|        4     |       1     | 0.84437568E-02 | 0.75719971E+02 |  194.903
 BASOPT|        5     |       1     | 0.54805761E-02 | 0.16676972E+02 |   60.765
 BASOPT|        6     |       1     | 0.43832828E-02 | 0.16751002E+02 |   48.855
 BASOPT|        7     |       1     | 0.85745532E-02 | 0.53444147E+01 |   44.680
 BASOPT| -----------------------------------------------------------------------
 BASOPT| Total residuum value: -.14215569E+04

 BASOPT| Information at iteration number:    5200
 BASOPT| Training set | Combination | Rho difference | Condition num. | Time
 BASOPT| -----------------------------------------------------------------------
 BASOPT|        1     |       1     | 0.93379017E-02 | 0.42102613E+02 |   80.663
 BASOPT|        2     |       1     | 0.11931076E-01 | 0.36740045E+02 |  115.828
 BASOPT|        3     |       1     | 0.87188406E-02 | 0.87633202E+02 |  157.788
 BASOPT|        4     |       1     | 0.84401337E-02 | 0.75575113E+02 |  198.743
 BASOPT|        5     |       1     | 0.54779807E-02 | 0.16672365E+02 |   61.963
 BASOPT|        6     |       1     | 0.43815133E-02 | 0.16747537E+02 |   49.816
 BASOPT|        7     |       1     | 0.85748535E-02 | 0.53323184E+01 |   45.556
 BASOPT| -----------------------------------------------------------------------
 BASOPT| Total residuum value: -.14215572E+04

 BASOPT| Information at iteration number:    5300
 BASOPT| Training set | Combination | Rho difference | Condition num. | Time
 BASOPT| -----------------------------------------------------------------------
 BASOPT|        1     |       1     | 0.93347072E-02 | 0.42106495E+02 |   82.214
 BASOPT|        2     |       1     | 0.11918783E-01 | 0.36728247E+02 |  118.056
 BASOPT|        3     |       1     | 0.87106736E-02 | 0.87477578E+02 |  160.824
 BASOPT|        4     |       1     | 0.84298122E-02 | 0.75422737E+02 |  202.594
 BASOPT|        5     |       1     | 0.54730902E-02 | 0.16637940E+02 |   63.159
 BASOPT|        6     |       1     | 0.43785733E-02 | 0.16722447E+02 |   50.777
 BASOPT|        7     |       1     | 0.85702014E-02 | 0.53068532E+01 |   46.432
 BASOPT| -----------------------------------------------------------------------
 BASOPT| Total residuum value: -.14215575E+04

 BASOPT| Information at iteration number:    5400
 BASOPT| Training set | Combination | Rho difference | Condition num. | Time
 BASOPT| -----------------------------------------------------------------------
 BASOPT|        1     |       1     | 0.93370872E-02 | 0.42061348E+02 |   83.767
 BASOPT|        2     |       1     | 0.11913159E-01 | 0.36699555E+02 |  120.285
 BASOPT|        3     |       1     | 0.87085548E-02 | 0.87072197E+02 |  163.864
 BASOPT|        4     |       1     | 0.84210510E-02 | 0.75070295E+02 |  206.434
 BASOPT|        5     |       1     | 0.54684797E-02 | 0.16588025E+02 |   64.356
 BASOPT|        6     |       1     | 0.43759447E-02 | 0.16688546E+02 |   51.738
 BASOPT|        7     |       1     | 0.85682310E-02 | 0.52653960E+01 |   47.309
 BASOPT| -----------------------------------------------------------------------
 BASOPT| Total residuum value: -.14215582E+04

 BASOPT| Information at iteration number:    5500
 BASOPT| Training set | Combination | Rho difference | Condition num. | Time
 BASOPT| -----------------------------------------------------------------------
 BASOPT|        1     |       1     | 0.93442434E-02 | 0.42046897E+02 |   85.321
 BASOPT|        2     |       1     | 0.11921907E-01 | 0.36706514E+02 |  122.512
 BASOPT|        3     |       1     | 0.87142060E-02 | 0.86964113E+02 |  166.907
 BASOPT|        4     |       1     | 0.84224745E-02 | 0.74982447E+02 |  210.271
 BASOPT|        5     |       1     | 0.54689651E-02 | 0.16580333E+02 |   65.553
 BASOPT|        6     |       1     | 0.43758095E-02 | 0.16682249E+02 |   52.699
 BASOPT|        7     |       1     | 0.85708765E-02 | 0.52531362E+01 |   48.186
 BASOPT| -----------------------------------------------------------------------
 BASOPT| Total residuum value: -.14215585E+04

 BASOPT| Information at iteration number:    5600
 BASOPT| Training set | Combination | Rho difference | Condition num. | Time
 BASOPT| -----------------------------------------------------------------------
 BASOPT|        1     |       1     | 0.93532132E-02 | 0.42002658E+02 |   86.872
 BASOPT|        2     |       1     | 0.11933127E-01 | 0.36703302E+02 |  124.743
 BASOPT|        3     |       1     | 0.87231808E-02 | 0.86749959E+02 |  169.952
 BASOPT|        4     |       1     | 0.84227570E-02 | 0.74812344E+02 |  214.109
 BASOPT|        5     |       1     | 0.54680147E-02 | 0.16571302E+02 |   66.750
 BASOPT|        6     |       1     | 0.43748002E-02 | 0.16673983E+02 |   53.661
 BASOPT|        7     |       1     | 0.85736171E-02 | 0.52372170E+01 |   49.063
 BASOPT| -----------------------------------------------------------------------
 BASOPT| Total residuum value: -.14215589E+04

 BASOPT| Information at iteration number:    5700
 BASOPT| Training set | Combination | Rho difference | Condition num. | Time
 BASOPT| -----------------------------------------------------------------------
 BASOPT|        1     |       1     | 0.93439058E-02 | 0.42042990E+02 |   88.423
 BASOPT|        2     |       1     | 0.11904342E-01 | 0.36668283E+02 |  126.968
 BASOPT|        3     |       1     | 0.87043219E-02 | 0.86643443E+02 |  172.997
 BASOPT|        4     |       1     | 0.84174507E-02 | 0.74663973E+02 |  217.949
 BASOPT|        5     |       1     | 0.54666912E-02 | 0.16469154E+02 |   67.947
 BASOPT|        6     |       1     | 0.43747916E-02 | 0.16595016E+02 |   54.623
 BASOPT|        7     |       1     | 0.85662303E-02 | 0.51808241E+01 |   49.941
 BASOPT| -----------------------------------------------------------------------
 BASOPT| Total residuum value: -.14215597E+04

 BASOPT| Information at iteration number:    5800
 BASOPT| Training set | Combination | Rho difference | Condition num. | Time
 BASOPT| -----------------------------------------------------------------------
 BASOPT|        1     |       1     | 0.93522293E-02 | 0.42016414E+02 |   89.982
 BASOPT|        2     |       1     | 0.11912555E-01 | 0.36669907E+02 |  129.195
 BASOPT|        3     |       1     | 0.87129492E-02 | 0.86407228E+02 |  176.042
 BASOPT|        4     |       1     | 0.84164081E-02 | 0.74468952E+02 |  221.788
 BASOPT|        5     |       1     | 0.54646368E-02 | 0.16464348E+02 |   69.144
 BASOPT|        6     |       1     | 0.43733279E-02 | 0.16595259E+02 |   55.586
 BASOPT|        7     |       1     | 0.85682976E-02 | 0.51701080E+01 |   50.818
 BASOPT| -----------------------------------------------------------------------
 BASOPT| Total residuum value: -.14215600E+04

 BASOPT| Information at iteration number:    5900
 BASOPT| Training set | Combination | Rho difference | Condition num. | Time
 BASOPT| -----------------------------------------------------------------------
 BASOPT|        1     |       1     | 0.93549312E-02 | 0.42012002E+02 |   91.535
 BASOPT|        2     |       1     | 0.11909907E-01 | 0.36666856E+02 |  131.421
 BASOPT|        3     |       1     | 0.87124567E-02 | 0.86270416E+02 |  179.090
 BASOPT|        4     |       1     | 0.84130040E-02 | 0.74344465E+02 |  225.627
 BASOPT|        5     |       1     | 0.54624361E-02 | 0.16439275E+02 |   70.340
 BASOPT|        6     |       1     | 0.43721981E-02 | 0.16578511E+02 |   56.549
 BASOPT|        7     |       1     | 0.85676321E-02 | 0.51515045E+01 |   51.697
 BASOPT| -----------------------------------------------------------------------
 BASOPT| Total residuum value: -.14215603E+04

 BASOPT| Information at iteration number:    6000
 BASOPT| Training set | Combination | Rho difference | Condition num. | Time
 BASOPT| -----------------------------------------------------------------------
 BASOPT|        1     |       1     | 0.93600814E-02 | 0.41982337E+02 |   93.096
 BASOPT|        2     |       1     | 0.11915429E-01 | 0.36662379E+02 |  133.648
 BASOPT|        3     |       1     | 0.87164415E-02 | 0.86159390E+02 |  182.139
 BASOPT|        4     |       1     | 0.84137568E-02 | 0.74257698E+02 |  229.466
 BASOPT|        5     |       1     | 0.54624719E-02 | 0.16426910E+02 |   71.536
 BASOPT|        6     |       1     | 0.43722725E-02 | 0.16568660E+02 |   57.511
 BASOPT|        7     |       1     | 0.85694032E-02 | 0.51386804E+01 |   52.576
 BASOPT| -----------------------------------------------------------------------
 BASOPT| Total residuum value: -.14215605E+04

 BASOPT| Information at iteration number:    6100
 BASOPT| Training set | Combination | Rho difference | Condition num. | Time
 BASOPT| -----------------------------------------------------------------------
 BASOPT|        1     |       1     | 0.93598859E-02 | 0.41916764E+02 |   94.649
 BASOPT|        2     |       1     | 0.11908779E-01 | 0.36627463E+02 |  135.873
 BASOPT|        3     |       1     | 0.87111084E-02 | 0.85837044E+02 |  185.187
 BASOPT|        4     |       1     | 0.84031673E-02 | 0.73988592E+02 |  233.305
 BASOPT|        5     |       1     | 0.54572513E-02 | 0.16376379E+02 |   72.732
 BASOPT|        6     |       1     | 0.43690467E-02 | 0.16528259E+02 |   58.473
 BASOPT|        7     |       1     | 0.85661984E-02 | 0.51028758E+01 |   53.456
 BASOPT| -----------------------------------------------------------------------
 BASOPT| Total residuum value: -.14215610E+04

 BASOPT| Information at iteration number:    6200
 BASOPT| Training set | Combination | Rho difference | Condition num. | Time
 BASOPT| -----------------------------------------------------------------------
 BASOPT|        1     |       1     | 0.93539652E-02 | 0.41917692E+02 |   96.201
 BASOPT|        2     |       1     | 0.11896741E-01 | 0.36600849E+02 |  138.098
 BASOPT|        3     |       1     | 0.87034122E-02 | 0.85701592E+02 |  188.234
 BASOPT|        4     |       1     | 0.84028853E-02 | 0.73853033E+02 |  237.144
 BASOPT|        5     |       1     | 0.54577897E-02 | 0.16330548E+02 |   73.927
 BASOPT|        6     |       1     | 0.43695442E-02 | 0.16492903E+02 |   59.436
 BASOPT|        7     |       1     | 0.85631442E-02 | 0.50801565E+01 |   54.335
 BASOPT| -----------------------------------------------------------------------
 BASOPT| Total residuum value: -.14215613E+04

 BASOPT| Information at iteration number:    6300
 BASOPT| Training set | Combination | Rho difference | Condition num. | Time
 BASOPT| -----------------------------------------------------------------------
 BASOPT|        1     |       1     | 0.93603525E-02 | 0.41847842E+02 |   97.753
 BASOPT|        2     |       1     | 0.11905521E-01 | 0.36574583E+02 |  140.321
 BASOPT|        3     |       1     | 0.87102069E-02 | 0.85334136E+02 |  191.280
 BASOPT|        4     |       1     | 0.84049994E-02 | 0.73555708E+02 |  240.987
 BASOPT|        5     |       1     | 0.54585902E-02 | 0.16300581E+02 |   75.121
 BASOPT|        6     |       1     | 0.43696923E-02 | 0.16470108E+02 |   60.398
 BASOPT|        7     |       1     | 0.85660220E-02 | 0.50558730E+01 |   55.215
 BASOPT| -----------------------------------------------------------------------
 BASOPT| Total residuum value: -.14215616E+04

 BASOPT| Information at iteration number:    6400
 BASOPT| Training set | Combination | Rho difference | Condition num. | Time
 BASOPT| -----------------------------------------------------------------------
 BASOPT|        1     |       1     | 0.93574777E-02 | 0.41811504E+02 |   99.305
 BASOPT|        2     |       1     | 0.11904572E-01 | 0.36556689E+02 |  142.547
 BASOPT|        3     |       1     | 0.87069160E-02 | 0.85404473E+02 |  194.326
 BASOPT|        4     |       1     | 0.84060845E-02 | 0.73629154E+02 |  244.827
 BASOPT|        5     |       1     | 0.54595289E-02 | 0.16289277E+02 |   76.316
 BASOPT|        6     |       1     | 0.43703856E-02 | 0.16454781E+02 |   61.363
 BASOPT|        7     |       1     | 0.85656426E-02 | 0.50488388E+01 |   56.095
 BASOPT| -----------------------------------------------------------------------
 BASOPT| Total residuum value: -.14215617E+04

 BASOPT| Information at iteration number:    6500
 BASOPT| Training set | Combination | Rho difference | Condition num. | Time
 BASOPT| -----------------------------------------------------------------------
 BASOPT|        1     |       1     | 0.93558322E-02 | 0.41751436E+02 |  100.856
 BASOPT|        2     |       1     | 0.11903521E-01 | 0.36528901E+02 |  144.771
 BASOPT|        3     |       1     | 0.87045622E-02 | 0.85311479E+02 |  197.372
 BASOPT|        4     |       1     | 0.84028023E-02 | 0.73569160E+02 |  248.666
 BASOPT|        5     |       1     | 0.54580576E-02 | 0.16273933E+02 |   77.510
 BASOPT|        6     |       1     | 0.43695626E-02 | 0.16438192E+02 |   62.325
 BASOPT|        7     |       1     | 0.85647553E-02 | 0.50379663E+01 |   56.976
 BASOPT| -----------------------------------------------------------------------
 BASOPT| Total residuum value: -.14215619E+04

 BASOPT| Information at iteration number:    6600
 BASOPT| Training set | Combination | Rho difference | Condition num. | Time
 BASOPT| -----------------------------------------------------------------------
 BASOPT|        1     |       1     | 0.93504842E-02 | 0.41679544E+02 |  102.407
 BASOPT|        2     |       1     | 0.11887906E-01 | 0.36470541E+02 |  146.998
 BASOPT|        3     |       1     | 0.86948621E-02 | 0.84938502E+02 |  200.417
 BASOPT|        4     |       1     | 0.83949940E-02 | 0.73251196E+02 |  252.510
 BASOPT|        5     |       1     | 0.54545093E-02 | 0.16197609E+02 |   78.704
 BASOPT|        6     |       1     | 0.43681184E-02 | 0.16380103E+02 |   63.288
 BASOPT|        7     |       1     | 0.85600426E-02 | 0.49946928E+01 |   57.856
 BASOPT| -----------------------------------------------------------------------
 BASOPT| Total residuum value: -.14215623E+04

 BASOPT| Information at iteration number:    6700
 BASOPT| Training set | Combination | Rho difference | Condition num. | Time
 BASOPT| -----------------------------------------------------------------------
 BASOPT|        1     |       1     | 0.93680442E-02 | 0.41565816E+02 |  103.959
 BASOPT|        2     |       1     | 0.11913836E-01 | 0.36461358E+02 |  149.226
 BASOPT|        3     |       1     | 0.87137735E-02 | 0.84383532E+02 |  203.464
 BASOPT|        4     |       1     | 0.83921954E-02 | 0.72821317E+02 |  256.357
 BASOPT|        5     |       1     | 0.54515663E-02 | 0.16199130E+02 |   79.898
 BASOPT|        6     |       1     | 0.43651060E-02 | 0.16387137E+02 |   64.252
 BASOPT|        7     |       1     | 0.85662028E-02 | 0.49789434E+01 |   58.735
 BASOPT| -----------------------------------------------------------------------
 BASOPT| Total residuum value: -.14215626E+04

 BASOPT| Information at iteration number:    6800
 BASOPT| Training set | Combination | Rho difference | Condition num. | Time
 BASOPT| -----------------------------------------------------------------------
 BASOPT|        1     |       1     | 0.93665401E-02 | 0.41481176E+02 |  105.511
 BASOPT|        2     |       1     | 0.11917383E-01 | 0.36418700E+02 |  151.451
 BASOPT|        3     |       1     | 0.87123533E-02 | 0.84288519E+02 |  206.511
 BASOPT|        4     |       1     | 0.83994293E-02 | 0.72761331E+02 |  260.196
 BASOPT|        5     |       1     | 0.54564505E-02 | 0.16163011E+02 |   81.094
 BASOPT|        6     |       1     | 0.43681350E-02 | 0.16352658E+02 |   65.216
 BASOPT|        7     |       1     | 0.85679169E-02 | 0.49568365E+01 |   59.615
 BASOPT| -----------------------------------------------------------------------
 BASOPT| Total residuum value: -.14215629E+04

 BASOPT| Information at iteration number:    6900
 BASOPT| Training set | Combination | Rho difference | Condition num. | Time
 BASOPT| -----------------------------------------------------------------------
 BASOPT|        1     |       1     | 0.93554687E-02 | 0.41503771E+02 |  107.064
 BASOPT|        2     |       1     | 0.11897933E-01 | 0.36397339E+02 |  153.678
 BASOPT|        3     |       1     | 0.86974518E-02 | 0.84372630E+02 |  209.559
 BASOPT|        4     |       1     | 0.83971929E-02 | 0.72811003E+02 |  264.036
 BASOPT|        5     |       1     | 0.54568088E-02 | 0.16121044E+02 |   82.288
 BASOPT|        6     |       1     | 0.43689766E-02 | 0.16317736E+02 |   66.176
 BASOPT|        7     |       1     | 0.85628713E-02 | 0.49407873E+01 |   60.495
 BASOPT| -----------------------------------------------------------------------
 BASOPT| Total residuum value: -.14215630E+04

 BASOPT| Information at iteration number:    7000
 BASOPT| Training set | Combination | Rho difference | Condition num. | Time
 BASOPT| -----------------------------------------------------------------------
 BASOPT|        1     |       1     | 0.93496946E-02 | 0.41469075E+02 |  108.615
 BASOPT|        2     |       1     | 0.11887723E-01 | 0.36363457E+02 |  155.907
 BASOPT|        3     |       1     | 0.86895700E-02 | 0.84234549E+02 |  212.605
 BASOPT|        4     |       1     | 0.83947195E-02 | 0.72692878E+02 |  267.877
 BASOPT|        5     |       1     | 0.54563915E-02 | 0.16077422E+02 |   83.482
 BASOPT|        6     |       1     | 0.43690332E-02 | 0.16280864E+02 |   67.139
 BASOPT|        7     |       1     | 0.85598957E-02 | 0.49182314E+01 |   61.374
 BASOPT| -----------------------------------------------------------------------
 BASOPT| Total residuum value: -.14215632E+04

 BASOPT| Information at iteration number:    7100
 BASOPT| Training set | Combination | Rho difference | Condition num. | Time
 BASOPT| -----------------------------------------------------------------------
[...]
 BASOPT|        2     |       1     | 0.11764728E-01 | 0.37321005E+02 | 1405.150
 BASOPT|        3     |       1     | 0.85444274E-02 | 0.78598757E+02 | 1915.031
 BASOPT|        4     |       1     | 0.82475987E-02 | 0.67979637E+02 | 2414.198
 BASOPT|        5     |       1     | 0.54091735E-02 | 0.15014187E+02 |  761.872
 BASOPT|        6     |       1     | 0.43358987E-02 | 0.15660452E+02 |  616.016
 BASOPT|        7     |       1     | 0.85178044E-02 | 0.42482781E+01 |  570.581
 BASOPT| -----------------------------------------------------------------------
 BASOPT| Total residuum value: -.14215792E+04

 BASOPT| Information at iteration number:   62100
 BASOPT| Training set | Combination | Rho difference | Condition num. | Time
 BASOPT| -----------------------------------------------------------------------
 BASOPT|        1     |       1     | 0.93768741E-02 | 0.41602511E+02 |  992.988
 BASOPT|        2     |       1     | 0.11764728E-01 | 0.37321005E+02 | 1407.388
 BASOPT|        3     |       1     | 0.85444274E-02 | 0.78598757E+02 | 1918.088
 BASOPT|        4     |       1     | 0.82475987E-02 | 0.67979637E+02 | 2418.044
 BASOPT|        5     |       1     | 0.54091735E-02 | 0.15014187E+02 |  763.087
 BASOPT|        6     |       1     | 0.43358987E-02 | 0.15660452E+02 |  616.996
 BASOPT|        7     |       1     | 0.85178044E-02 | 0.42482781E+01 |  571.502
 BASOPT| -----------------------------------------------------------------------
 BASOPT| Total residuum value: -.14215792E+04

 BASOPT| Information at iteration number:   62200
 BASOPT| Training set | Combination | Rho difference | Condition num. | Time
 BASOPT| -----------------------------------------------------------------------
 BASOPT|        1     |       1     | 0.93768741E-02 | 0.41602511E+02 |  994.575
 BASOPT|        2     |       1     | 0.11764728E-01 | 0.37321005E+02 | 1409.626
 BASOPT|        3     |       1     | 0.85444274E-02 | 0.78598757E+02 | 1921.146
 BASOPT|        4     |       1     | 0.82475987E-02 | 0.67979637E+02 | 2421.906
 BASOPT|        5     |       1     | 0.54091735E-02 | 0.15014187E+02 |  764.302
 BASOPT|        6     |       1     | 0.43358987E-02 | 0.15660452E+02 |  617.976
 BASOPT|        7     |       1     | 0.85178044E-02 | 0.42482781E+01 |  572.423
 BASOPT| -----------------------------------------------------------------------
 BASOPT| Total residuum value: -.14215792E+04

 BASOPT| Information at iteration number:   62300
 BASOPT| Training set | Combination | Rho difference | Condition num. | Time
 BASOPT| -----------------------------------------------------------------------
 BASOPT|        1     |       1     | 0.93768741E-02 | 0.41602511E+02 |  996.160
 BASOPT|        2     |       1     | 0.11764728E-01 | 0.37321005E+02 | 1411.865
 BASOPT|        3     |       1     | 0.85444274E-02 | 0.78598757E+02 | 1924.202
 BASOPT|        4     |       1     | 0.82475987E-02 | 0.67979637E+02 | 2425.750
 BASOPT|        5     |       1     | 0.54091735E-02 | 0.15014187E+02 |  765.518
 BASOPT|        6     |       1     | 0.43358987E-02 | 0.15660452E+02 |  618.958
 BASOPT|        7     |       1     | 0.85178044E-02 | 0.42482781E+01 |  573.345
 BASOPT| -----------------------------------------------------------------------
 BASOPT| Total residuum value: -.14215792E+04

 BASOPT| Information at iteration number:   62400
 BASOPT| Training set | Combination | Rho difference | Condition num. | Time
 BASOPT| -----------------------------------------------------------------------
 BASOPT|        1     |       1     | 0.93768741E-02 | 0.41602511E+02 |  997.745
 BASOPT|        2     |       1     | 0.11764728E-01 | 0.37321005E+02 | 1414.106
 BASOPT|        3     |       1     | 0.85444274E-02 | 0.78598757E+02 | 1927.261
 BASOPT|        4     |       1     | 0.82475987E-02 | 0.67979637E+02 | 2429.593
 BASOPT|        5     |       1     | 0.54091735E-02 | 0.15014187E+02 |  766.734
 BASOPT|        6     |       1     | 0.43358987E-02 | 0.15660452E+02 |  619.937
 BASOPT|        7     |       1     | 0.85178044E-02 | 0.42482781E+01 |  574.266
 BASOPT| -----------------------------------------------------------------------
 BASOPT| Total residuum value: -.14215792E+04


 -------------------------------------------------------------------------------
 -                                                                             -
 -                                DBCSR STATISTICS                             -
 -                                                                             -
 -------------------------------------------------------------------------------
 COUNTER                                    TOTAL       BLAS       SMM       ACC
 flops    52 x    52 x     8                43264       0.0%    100.0%      0.0%
 flops    68 x    68 x     5                46240       0.0%    100.0%      0.0%
 flops    52 x    52 x    12                64896       0.0%    100.0%      0.0%
 flops    68 x   112 x     5                76160       0.0%    100.0%      0.0%
 flops    52 x    52 x    16                86528       0.0%    100.0%      0.0%
 flops    52 x   112 x     8                93184       0.0%    100.0%      0.0%
 flops   112 x   112 x     5               125440       0.0%    100.0%      0.0%
 flops    52 x   112 x    12               139776       0.0%    100.0%      0.0%
 flops   112 x    52 x    12               139776       0.0%    100.0%      0.0%
 flops    52 x   112 x    16               186368       0.0%    100.0%      0.0%
 flops   116 x   112 x     8               207872       0.0%    100.0%      0.0%
 flops   116 x   116 x     8               215296       0.0%    100.0%      0.0%
 flops   116 x   112 x    12               311808       0.0%    100.0%      0.0%
 flops   112 x   116 x    12               311808       0.0%    100.0%      0.0%
 flops   116 x   116 x    12               322944       0.0%    100.0%      0.0%
 flops   112 x    52 x    16               372736       0.0%    100.0%      0.0%
 flops   112 x   112 x     8               401408       0.0%    100.0%      0.0%
 flops   116 x   112 x    16               415744       0.0%    100.0%      0.0%
 flops   116 x   116 x    16               430592       0.0%    100.0%      0.0%
 flops   112 x   116 x    16               831488       0.0%    100.0%      0.0%
 flops   112 x   112 x    12              1806336       0.0%    100.0%      0.0%
 flops   112 x   112 x    16              4816896       0.0%    100.0%      0.0%
 flops inhomo. stacks                           0       0.0%      0.0%      0.0%
 flops total                        11.446560E+06       0.0%    100.0%      0.0%
 flops max/rank                      1.262080E+06       0.0%    100.0%      0.0%
 matmuls inhomo. stacks                         0       0.0%      0.0%      0.0%
 matmuls total                                 41       0.0%    100.0%      0.0%
 number of processed stacks                    30       0.0%    100.0%      0.0%
 average stack size                                     0.0       1.4       0.0
 marketing flops                    17.543840E+06
 -------------------------------------------------------------------------------
 # multiplications                              1
 max memory usage/rank             521.457664E+06
 # max total images/rank                        3
 # max 3D layers                                1
 # MPI messages exchanged                     162
 MPI messages size (bytes):
  total size                       769.280000E+03
  min size                           0.000000E+00
  max size                          57.856000E+03
  average size                       4.748642E+03
 MPI breakdown and total messages size (bytes):
             size <=      128                 132                        0
       128 < size <=     8192                   7                    43776
      8192 < size <=    32768                  15                   295424
     32768 < size <=   131072                   8                   430080
    131072 < size <=  4194304                   0                        0
   4194304 < size <= 16777216                   0                        0
  16777216 < size                               0                        0
 -------------------------------------------------------------------------------

 *** WARNING in dbcsr_mm.F:297 :: Using a non-square number of MPI ranks ***
 *** might lead to poor performance. Used ranks: 6 Suggested: 4 9        ***

 -------------------------------------------------------------------------------
 -                                                                             -
 -                      DBCSR MESSAGE PASSING PERFORMANCE                      -
 -                                                                             -
 -------------------------------------------------------------------------------
 ROUTINE             CALLS      AVE VOLUME [Bytes]
 MP_Bcast               23                     12.
 MP_Allreduce           70                     23.
 MP_Alltoall       3745881                  43809.
 MP_ISend               18                   2449.
 MP_IRecv               18                     57.
 -------------------------------------------------------------------------------

 -------------------------------------------------------------------------------
 -                                                                             -
 -                                GRID STATISTICS                              -
 -                                                                             -
 -------------------------------------------------------------------------------
 LP    KERNEL    OPERATION                                     COUNT     PERCENT
 0     general   collocate                                        35       0.21%
 0     ortho     integrate                                        64       0.39%
 0     ortho     collocate                                        64       0.39%
 1     ortho     integrate                                        72       0.44%
 1     ortho     collocate                                        72       0.44%
 2     ortho     integrate                                      3057      18.58%
 2     ortho     collocate                                      3057      18.58%
 3     ortho     integrate                                       542       3.29%
 3     ortho     collocate                                       542       3.29%
 4     ortho     integrate                                      2961      18.00%
 4     ortho     collocate                                      2961      18.00%
 5     ortho     integrate                                       557       3.39%
 5     ortho     collocate                                       557       3.39%
 6     ortho     integrate                                       765       4.65%
 6     ortho     collocate                                       765       4.65%
 7     ortho     integrate                                       143       0.87%
 7     ortho     collocate                                       143       0.87%
 8     ortho     integrate                                        48       0.29%
 8     ortho     collocate                                        48       0.29%
 -------------------------------------------------------------------------------

 MEMORY| Estimated peak process memory [MiB]                                1125

 -------------------------------------------------------------------------------
 -                                                                             -
 -                         MESSAGE PASSING PERFORMANCE                         -
 -                                                                             -
 -------------------------------------------------------------------------------

 ROUTINE             CALLS      AVE VOLUME [Bytes]
 MP_Bcast           187358                   1454.
 MP_Allreduce       811732                     49.
 MP_Sync            187293
 MP_Alltoall            45               21347920.
 MP_ISendRecv           30                 676608.
 MP_Wait                60
 MP_comm_split      124863
 MP_ISend               24                2786400.
 MP_IRecv               24                2786400.
 -------------------------------------------------------------------------------


 -------------------------------------------------------------------------------
 -                                                                             -
 -                           R E F E R E N C E S                               -
 -                                                                             -
 -------------------------------------------------------------------------------
 
 CP2K version 8.0 (Development Version), the CP2K developers group (2020).
 CP2K is freely available from https://www.cp2k.org/ .

 Kuehne,Thomas D.; Iannuzzi,Marcella; Del Ben,Mauro;
 Rybkin,Vladimir V.; Seewald,Patrick; Stein,Frederick; Laino,Teodoro;
 Khaliullin,Rustam Z.; Schuett,Ole; Schiffmann,Florian; Golze,Dorothea;
 Wilhelm,Jan; Chulkov,Sergey; Bani-Hashemian,Mohammad Hossein;
 Weber,Valery; Borstnik,Urban; Taillefumier,Mathieu;
 Jakobovits,Alice Shoshana; Lazzaro,Alfio; Pabst,Hans; Mueller,Tiziano;
 Schade,Robert; Guidon,Manuel; Andermatt,Samuel; Holmberg,Nico;
 Schenter,Gregory K.; Hehn,Anna; Bussy,Augustin; Belleflamme,Fabian;
 Tabacchi,Gloria; Gloess,Andreas; Lass,Michael; Bethune,Iain;
 Mundy,Christopher J.; Plessl,Christian; Watkins,Matt;
 VandeVondele,Joost; Krack,Matthias; Hutter,Juerg. 
 The Journal of Chemical Physics, 152 (19), (2020). 
 CP2K: An electronic structure and molecular dynamics software package -
 Quickstep: Efficient and accurate electronic structure calculations.
 https://doi.org/10.1063/5.0007045

 Schuett, Ole; Messmer, Peter; Hutter, Juerg; VandeVondele, Joost. 
 Electronic Structure Calculations on Graphics Processing Units, John
 Wiley & Sons, Ltd, 173-190 (2016). 
 GPU-Accelerated Sparse Matrix-Matrix Multiplication for
 Linear Scaling Density Functional Theory.
 https://doi.org/10.1002/9781118670712.ch8

 Borstnik, U; VandeVondele, J; Weber, V; Hutter, J. 
 PARALLEL COMPUTING, 40 (5-6), 47-58 (2014). 
 Sparse matrix multiplication: The distributed block-compressed sparse
 row library.
 https://doi.org/10.1016/j.parco.2014.03.012

 Hutter, J; Iannuzzi, M; Schiffmann, F; VandeVondele, J. 
 WIREs Comput Mol Sci., 4 (1), 15-25 (2014). 
 CP2K: atomistic simulations of condensed matter systems.
 https://doi.org/10.1002/wcms.1159

 Marek, A; Blum, V; Johanni, R; Havu, V; Lang, B; Auckenthaler, T;
 Heinecke, A; Bungartz, H; Lederer, H. 
 Journal of Physics: Condensed Matter, 26 (21), (2014). 
 The ELPA library: scalable parallel eigenvalue solutions for
 electronic structure
 theory and computational science.
 https://doi.org/10.1088/0953-8984/26/21/213201

 Guidon, M; Hutter, J; VandeVondele, J. 
 JOURNAL OF CHEMICAL THEORY AND COMPUTATION, 6 (8), 2348-2364 (2010). 
 Auxiliary Density Matrix Methods for Hartree-Fock Exchange Calculations.
 https://doi.org/10.1021/ct1002225

 VandeVondele, J; Hutter, J. 
 JOURNAL OF CHEMICAL PHYSICS, 127 (11), 114105 (2007). 
 Gaussian basis sets for accurate calculations on molecular systems in
 gas and condensed phases.
 https://doi.org/10.1063/1.2770708

 Krack, M. 
 THEORETICAL CHEMISTRY ACCOUNTS, 114 (1-3), 145-152 (2005). 
 Pseudopotentials for H to Kr optimized for gradient-corrected
 exchange-correlation functionals.
 https://doi.org/10.1007/s00214-005-0655-y

 VandeVondele, J; Krack, M; Mohamed, F; Parrinello, M; Chassaing, T;
 Hutter, J. COMPUTER PHYSICS COMMUNICATIONS, 167 (2), 103-128 (2005). 
 QUICKSTEP: Fast and accurate density functional calculations using a
 mixed Gaussian and plane waves approach.
 https://doi.org/10.1016/j.cpc.2004.12.014

 Frigo, M; Johnson, SG. 
 PROCEEDINGS OF THE IEEE, 93 (2), 216-231 (2005). 
 The design and implementation of FFTW3.
 https://doi.org/10.1109/JPROC.2004.840301

 Martyna, GJ; Tuckerman, ME. 
 JOURNAL OF CHEMICAL PHYSICS, 110 (6), 2810-2821 (1999). 
 A reciprocal space based method for treating long range interactions in
 ab initio and force-field-based calculations in clusters.
 https://doi.org/10.1063/1.477923

 Hartwigsen, C; Goedecker, S; Hutter, J. 
 PHYSICAL REVIEW B, 58 (7), 3641-3662 (1998). 
 Relativistic separable dual-space Gaussian pseudopotentials from H to Rn.
 https://doi.org/10.1103/PhysRevB.58.3641

 Lippert, G; Hutter, J; Parrinello, M. 
 MOLECULAR PHYSICS, 92 (3), 477-487 (1997). 
 A hybrid Gaussian and plane wave density functional scheme.
 https://doi.org/10.1080/002689797170220

 Perdew, JP; Burke, K; Ernzerhof, M. 
 PHYSICAL REVIEW LETTERS, 77 (18), 3865-3868 (1996). 
 Generalized gradient approximation made simple.
 https://doi.org/10.1103/PhysRevLett.77.3865

 Goedecker, S; Teter, M; Hutter, J. 
 PHYSICAL REVIEW B, 54 (3), 1703-1710 (1996). 
 Separable dual-space Gaussian pseudopotentials.
 https://doi.org/10.1103/PhysRevB.54.1703


 -------------------------------------------------------------------------------
 -                                                                             -
 -                                T I M I N G                                  -
 -                                                                             -
 -------------------------------------------------------------------------------
 SUBROUTINE                       CALLS  ASD         SELF TIME        TOTAL TIME
                                MAXIMUM       AVERAGE  MAXIMUM  AVERAGE  MAXIMUM
 CP2K                                 1  1.0    0.002    0.004 2470.331 2470.920
 run_optimize_basis                   1  2.0    0.005    0.007 2470.320 2470.909
 driver_para_opt_basis                1  3.0    0.000    0.000 2470.300 2470.889
 driver_optimization_para_low         1  4.0    0.322    0.769 2470.299 2470.887
 compute_residuum_vectors         62431  5.0    3.002    3.554 2448.964 2450.090
 mp_sum_dv                       312156  5.8 1207.570 1874.319 1207.570 1874.319
 cp_gemm                         749172  7.2    1.022    1.171  795.208 1868.044
 cp_gemm_fm_gemm                 749172  8.2    0.650    0.723  794.186 1866.961
 cp_fm_gemm                      749172  9.2  793.536 1866.297  793.536 1866.297
 admm_fit_mo_coeffs               62431  6.0    0.129    0.164  506.089  977.191
 fit_mo_coeffs                    62431  7.0    0.527    0.607  302.834  632.739
 purify_mo_diag                   62431  7.0    0.674    0.771  203.125  348.017
 copy_dbcsr_to_fm                312156  6.8    2.887    3.631  158.380  226.333
 cp_fm_syevd                     124862  7.0    0.351    0.445  141.558  183.288
 cp_fm_redistribute_end          124862  8.0   29.879  137.689   31.215  140.159
 cp_fm_syevd_base                124862  8.0   79.148  132.952   79.148  132.952
 dbcsr_complete_redistribute     312157  7.8   15.680   26.840   92.123  115.539
 cp_fm_upper_to_full             187295  7.3   51.146  101.268   51.146  101.268
 dbcsr_desymmetrize_deep         312156  7.8    5.643   10.437   52.257   93.425
 mp_alltoall_d11v               1872941  9.3   35.121   59.169   35.121   59.169
 mp_alltoall_i22                 624313  8.8   23.815   56.397   23.815   56.397
 -------------------------------------------------------------------------------

 The number of warnings for this run is : 1
 
 -------------------------------------------------------------------------------
  **** **** ******  **  PROGRAM ENDED AT                 2020-12-08 10:44:08.794
 ***** ** ***  *** **   PROGRAM RAN ON                                   tcopt10
 **    ****   ******    PROGRAM RAN BY                                    hutter
 ***** **    ** ** **   PROGRAM PROCESS ID                                  9104
  **** **  *******  **  PROGRAM STOPPED IN /data/hutter/GITHUB/BASIS/MOLOPT/PBE0
                                           /Na
