 DBCSR| CPU Multiplication driver                                           XSMM
 DBCSR| Multrec recursion limit                                              512
 DBCSR| Multiplication stack size                                           1000
 DBCSR| Maximum elements for images                                    UNLIMITED
 DBCSR| Multiplicative factor virtual images                                   1
 DBCSR| Use multiplication densification                                       T
 DBCSR| Multiplication size stacks                                             3
 DBCSR| Use memory pool for CPU allocation                                     F
 DBCSR| Number of 3D layers                                               SINGLE
 DBCSR| Use MPI memory allocation                                              F
 DBCSR| Use RMA algorithm                                                      F
 DBCSR| Use Communication thread                                               T
 DBCSR| Communication thread load                                             87
 DBCSR| MPI: My node id                                                        0
 DBCSR| MPI: Number of nodes                                                  36
 DBCSR| OMP: Current number of threads                                         1
 DBCSR| OMP: Max number of threads                                             1
 DBCSR| Split modifier for TAS multiplication algorithm                  1.0E+00


  **** **** ******  **  PROGRAM STARTED AT               2022-05-31 12:41:44.772
 ***** ** ***  *** **   PROGRAM STARTED ON                               tcopt10
 **    ****   ******    PROGRAM STARTED BY                                hutter
 ***** **    ** ** **   PROGRAM PROCESS ID                                 84229
  **** **  *******  **  PROGRAM STARTED IN /data/hutter/GITHUB/BASIS/scMOLOPT/PB
                                           E/Rh

 CP2K| version string:                   CP2K version 10.0 (Development Version)
 CP2K| source code revision number:                                  git:d19b00a
 CP2K| cp2kflags: omp libint fftw3 libxc elpa parallel mpi3 scalapack cosma xsmm
 CP2K|             spglib sirius libvori libbqb
 CP2K| is freely available from                            https://www.cp2k.org/
 CP2K| Program compiled at                      Wed 18 May 2022 12:15:59 PM CEST
 CP2K| Program compiled on                                               tcopt10
 CP2K| Program compiled for                                                local
 CP2K| Data directory path                   /data/hutter/GITHUB/TDLRI/cp2k/data
 CP2K| Input file name                                               RhO-ref.inp

 GLOBAL| Force Environment number                                              1
 GLOBAL| Basis set file name                                        ../def2QZVPP
 GLOBAL| Potential file name                                        ../POTENTIAL
 GLOBAL| MM Potential file name                                     MM_POTENTIAL
 GLOBAL| Coordinate file name                                      __STD_INPUT__
 GLOBAL| Method name                                                        CP2K
 GLOBAL| Project name                                                     refRhO
 GLOBAL| Run type                                                         ENERGY
 GLOBAL| FFT library                                                       FFTW3
 GLOBAL| Diagonalization library                                            ELPA
 GLOBAL| Minimum number of eigenvectors for ELPA usage                        16
 GLOBAL| Orthonormality check for eigenvectors                          DISABLED
 GLOBAL| Matrix multiplication library                                     COSMA
 GLOBAL| All-to-all communication in single precision                          F
 GLOBAL| FFTs using library dependent lengths                                  F
 GLOBAL| Grid backend                                                       AUTO
 GLOBAL| Global print level                                                  LOW
 GLOBAL| MPI I/O enabled                                                       T
 GLOBAL| Total number of message passing processes                            36
 GLOBAL| Number of threads for this process                                    1
 GLOBAL| This output is from process                                           0
 GLOBAL| Stack size for threads created by OpenMP (OMP_STACKSIZE)        default
 GLOBAL| CPU model name                          AMD EPYC 7401 24-Core Processor
 GLOBAL| CPUID                                                              1002

 MEMORY| system memory details [Kb]
 MEMORY|                        rank 0           min           max       average
 MEMORY| MemTotal            263969132     263969132     263969132     263969132
 MEMORY| MemFree             237241480     237241480     237241992     237241977
 MEMORY| Buffers                  2836          2836          2836          2836
 MEMORY| Cached               20264812      20264808      20264812      20264808
 MEMORY| Slab                  1472736       1472736       1472736       1472736
 MEMORY| SReclaimable           877244        877244        877244        877244
 MEMORY| MemLikelyFree       258386372     258386372     258386884     258386866


 GENERATE|  Preliminary Number of Bonds generated:                             0
 GENERATE|  Achieved consistency in connectivity generation.

 *******************************************************************************
 *******************************************************************************
 **                                                                           **
 **     #####                         ##              ##                      **
 **    ##   ##            ##          ##              ##                      **
 **   ##     ##                       ##            ######                    **
 **   ##     ##  ##   ##  ##   #####  ##  ##   ####   ##    #####    #####    **
 **   ##     ##  ##   ##  ##  ##      ## ##   ##      ##   ##   ##  ##   ##   **
 **   ##  ## ##  ##   ##  ##  ##      ####     ###    ##   ######   ######    **
 **    ##  ###   ##   ##  ##  ##      ## ##      ##   ##   ##       ##        **
 **     #######   #####   ##   #####  ##  ##  ####    ##    #####   ##        **
 **           ##                                                    ##        **
 **                                                                           **
 **                                                ... make the atoms dance   **
 **                                                                           **
 **            Copyright (C) by CP2K developers group (2000-2022)             **
 **                      J. Chem. Phys. 152, 194103 (2020)                    **
 **                                                                           **
 *******************************************************************************


 TOTAL NUMBERS AND MAXIMUM NUMBERS

  Total number of            - Atomic kinds:                                   2
                             - Atoms:                                          2
                             - Shell sets:                                    39
                             - Shells:                                        39
                             - Primitive Cartesian functions:                 59
                             - Cartesian basis functions:                    188
                             - Spherical basis functions:                    145

  Maximum angular momentum of- Orbital basis functions:                        4
                             - Local part of the GTH pseudopotential:          2
                             - Non-local part of the GTH pseudopotential:      4


 SCF PARAMETERS         Density guess:                                   RESTART
                        --------------------------------------------------------
                        max_scf:                                              20
                        max_scf_history:                                       0
                        max_diis:                                              4
                        --------------------------------------------------------
                        eps_scf:                                        3.00E-07
                        eps_scf_history:                                0.00E+00
                        eps_diis:                                       1.00E-01
                        eps_eigval:                                     1.00E-05
                        --------------------------------------------------------
                        level_shift [a.u.]:                             0.000000
                        --------------------------------------------------------
                        Outer loop SCF in use 
                        No variables optimised in outer loop
                        eps_scf                                         3.00E-07
                        max_scf                                                5
                        No outer loop optimization
                        step_size                                       5.00E-01

 Spin 1

 Number of electrons:                                                         15
 Number of occupied orbitals:                                                 15
 Number of molecular orbitals:                                                15

 Spin 2

 Number of electrons:                                                         10
 Number of occupied orbitals:                                                 10
 Number of molecular orbitals:                                                10

 Number of orbital functions:                                                145
 Number of independent orbital functions:                                    145

 Extrapolation method: initial_guess


 SCF WAVEFUNCTION OPTIMIZATION

  ----------------------------------- OT ---------------------------------------
  Minimizer      : DIIS                : direct inversion
                                         in the iterative subspace
                                         using   7 DIIS vectors
                                         safer DIIS on
  Preconditioner : FULL_ALL            : diagonalization, state selective
  Precond_solver : DEFAULT
  stepsize       :    0.10000000                  energy_gap     :    0.08000000
  eps_taylor     :   0.10000E-15                  max_taylor     :             4
  ----------------------------------- OT ---------------------------------------

  Step     Update method      Time    Convergence         Total energy    Change
  ------------------------------------------------------------------------------
     1 OT DIIS     0.10E+00    1.2     0.00000636      -182.4200536318 -1.82E+02
     2 OT DIIS     0.10E+00    1.5     0.00000281      -182.4200536359 -4.12E-09
     3 OT DIIS     0.10E+00    1.5     0.00000028      -182.4200536369 -1.01E-09

  *** SCF run converged in     3 steps ***


  Electronic density on regular grids:        -24.4248680694        0.5751319306
  Core density on regular grids:               25.0000000000        0.0000000000
  Hard and soft densities (Lebedev):          -30.5378465540      -29.9627151469
  Total Rho_soft + Rho1_hard - Rho1_soft      -24.9999994765
  Total charge density (r-space):               0.0000005235
  Total Rho_soft + Rho0_soft (g-space):         0.0000002953

  Overlap energy of the core charge distribution:               0.00000000258870
  Self energy of the core charge distribution:               -260.60443787756941
  Core Hamiltonian energy:                                     36.62570611649473
  Hartree energy:                                             163.70454943916860
  Exchange-correlation energy:                                -15.92578446002198

  GAPW| Exc from hard and soft atomic rho1:                    -3.41007430211188
  GAPW| local Eh = 1 center integrals:                       -102.81001255546275

  Total energy:                                              -182.42005363691402

  outer SCF iter =    1 RMS gradient =   0.28E-06 energy =       -182.4200536369
  outer SCF loop converged in   1 iterations or    3 steps


  Integrated absolute spin density  :                               4.8914149373
  Ideal and single determinant S**2 :                    8.750000       8.755701

 ENERGY| Total FORCE_EVAL ( QS ) energy [a.u.]:             -182.420053636914020

 -------------------------------------------------------------------------------
 -                                                                             -
 -                                DBCSR STATISTICS                             -
 -                                                                             -
 -------------------------------------------------------------------------------
 COUNTER                                    TOTAL       BLAS       SMM       ACC
 flops    10 x    10 x    10                 6000       0.0%    100.0%      0.0%
 flops    15 x    15 x    15                20250       0.0%    100.0%      0.0%
 flops    10 x    10 x    57               148200       0.0%    100.0%      0.0%
 flops    57 x    10 x    10               182400       0.0%    100.0%      0.0%
 flops    10 x    10 x    88               228800       0.0%    100.0%      0.0%
 flops    57 x    57 x    10               259920       0.0%    100.0%      0.0%
 flops    88 x    10 x    10               281600       0.0%    100.0%      0.0%
 flops    15 x    15 x    57               333450       0.0%    100.0%      0.0%
 flops    57 x    57 x    15               389880       0.0%    100.0%      0.0%
 flops    57 x    88 x    10               401280       0.0%    100.0%      0.0%
 flops    57 x    15 x    15               410400       0.0%    100.0%      0.0%
 flops    15 x    15 x    88               514800       0.0%    100.0%      0.0%
 flops    57 x    88 x    15               601920       0.0%    100.0%      0.0%
 flops    88 x    88 x    10               619520       0.0%    100.0%      0.0%
 flops    88 x    15 x    15               633600       0.0%    100.0%      0.0%
 flops    88 x    88 x    15               929280       0.0%    100.0%      0.0%
 flops    57 x    10 x    57              1364580       0.0%    100.0%      0.0%
 flops    57 x    15 x    57              1949400       0.0%    100.0%      0.0%
 flops    88 x    10 x    57              2106720       0.0%    100.0%      0.0%
 flops    57 x    10 x    88              2106720       0.0%    100.0%      0.0%
 flops    88 x    15 x    57              3009600       0.0%    100.0%      0.0%
 flops    57 x    15 x    88              3009600       0.0%    100.0%      0.0%
 flops    88 x    10 x    88              3252480       0.0%    100.0%      0.0%
 flops    88 x    15 x    88              4646400       0.0%    100.0%      0.0%
 flops inhomo. stacks                           0       0.0%      0.0%      0.0%
 flops total                        27.406800E+06       0.0%    100.0%      0.0%
 flops max/rank                     16.730700E+06       0.0%    100.0%      0.0%
 matmuls inhomo. stacks                         0       0.0%      0.0%      0.0%
 matmuls total                                310       0.0%    100.0%      0.0%
 number of processed stacks                   310       0.0%    100.0%      0.0%
 average stack size                                     0.0       1.0       0.0
 marketing flops                    28.504260E+06
 -------------------------------------------------------------------------------
 # multiplications                            115
 max memory usage/rank             429.871104E+06
 # max total images/rank                        1
 # max 3D layers                                1
 # MPI messages exchanged                   41400
 MPI messages size (bytes):
  total size                        44.975000E+06
  min size                           0.000000E+00
  max size                          61.952000E+03
  average size                       1.086353E+03
 MPI breakdown and total messages size (bytes):
             size <=      128               38950                        0
       128 < size <=     8192                1280                  6798000
      8192 < size <=    32768                 555                  9024360
     32768 < size <=   131072                 615                 29152640
    131072 < size <=  4194304                   0                        0
   4194304 < size <= 16777216                   0                        0
  16777216 < size                               0                        0
 -------------------------------------------------------------------------------
 -                                                                             -
 -                      DBCSR MESSAGE PASSING PERFORMANCE                      -
 -                                                                             -
 -------------------------------------------------------------------------------
 ROUTINE             CALLS      AVE VOLUME [Bytes]
 MP_Bcast               25                     12.
 MP_Allreduce          638                     10.
 MP_Alltoall           785                   5551.
 MP_ISend             2752                   2241.
 MP_IRecv             2752                    846.
 -------------------------------------------------------------------------------

 -------------------------------------------------------------------------------
 -                                                                             -
 -                                GRID STATISTICS                              -
 -                                                                             -
 -------------------------------------------------------------------------------
 LP    KERNEL             BACKEND                              COUNT     PERCENT
 2     collocate ortho    REF                                   4200      13.07%
 3     collocate ortho    REF                                   3688      11.47%
 1     collocate ortho    REF                                   3672      11.42%
 2     integrate ortho    REF                                   3150       9.80%
 4     collocate ortho    REF                                   2856       8.89%
 3     integrate ortho    REF                                   2766       8.61%
 1     integrate ortho    REF                                   2754       8.57%
 4     integrate ortho    REF                                   2142       6.66%
 5     collocate ortho    REF                                   1496       4.65%
 0     collocate ortho    REF                                   1360       4.23%
 5     integrate ortho    REF                                   1122       3.49%
 0     integrate ortho    REF                                   1020       3.17%
 6     collocate ortho    REF                                    568       1.77%
 6     integrate ortho    REF                                    426       1.33%
 7     collocate ortho    REF                                    224       0.70%
 2     collocate general  REF                                    216       0.67%
 2     integrate general  REF                                    216       0.67%
 7     integrate ortho    REF                                    168       0.52%
 8     collocate ortho    REF                                     56       0.17%
 8     integrate ortho    REF                                     42       0.13%
 -------------------------------------------------------------------------------

 MEMORY| Estimated peak process memory [MiB]                                 410

 -------------------------------------------------------------------------------
 -                                                                             -
 -                         MESSAGE PASSING PERFORMANCE                         -
 -                                                                             -
 -------------------------------------------------------------------------------

 ROUTINE             CALLS      AVE VOLUME [Bytes]
 MP_Group                4
 MP_Bcast              145                1463255.
 MP_Allreduce          568                  39456.
 MP_Sync                16
 MP_Alltoall           138                5697977.
 MP_ISendRecv         1470                 115968.
 MP_Wait              2450
 MP_comm_split           6
 MP_ISend              880                 277004.
 MP_IRecv              880                 277004.
 MP_Recv                 8                   2900.
 -------------------------------------------------------------------------------


 -------------------------------------------------------------------------------
 -                                                                             -
 -                           R E F E R E N C E S                               -
 -                                                                             -
 -------------------------------------------------------------------------------
 
 CP2K version 10.0 (Development Version), the CP2K developers group (2022).
 CP2K is freely available from https://www.cp2k.org/ .

 Kuehne,Thomas D.; Iannuzzi,Marcella; Del Ben,Mauro;
 Rybkin,Vladimir V.; Seewald,Patrick; Stein,Frederick; Laino,Teodoro;
 Khaliullin,Rustam Z.; Schuett,Ole; Schiffmann,Florian; Golze,Dorothea;
 Wilhelm,Jan; Chulkov,Sergey; Bani-Hashemian,Mohammad Hossein;
 Weber,Valery; Borstnik,Urban; Taillefumier,Mathieu;
 Jakobovits,Alice Shoshana; Lazzaro,Alfio; Pabst,Hans; Mueller,Tiziano;
 Schade,Robert; Guidon,Manuel; Andermatt,Samuel; Holmberg,Nico;
 Schenter,Gregory K.; Hehn,Anna; Bussy,Augustin; Belleflamme,Fabian;
 Tabacchi,Gloria; Gloess,Andreas; Lass,Michael; Bethune,Iain;
 Mundy,Christopher J.; Plessl,Christian; Watkins,Matt;
 VandeVondele,Joost; Krack,Matthias; Hutter,Juerg. 
 The Journal of Chemical Physics, 152 (19), (2020). 
 CP2K: An electronic structure and molecular dynamics software package -
 Quickstep: Efficient and accurate electronic structure calculations.
 https://doi.org/10.1063/5.0007045

 Schuett, Ole; Messmer, Peter; Hutter, Juerg; VandeVondele, Joost. 
 Electronic Structure Calculations on Graphics Processing Units, John
 Wiley & Sons, Ltd, 173-190 (2016). 
 GPU-Accelerated Sparse Matrix-Matrix Multiplication for
 Linear Scaling Density Functional Theory.
 https://doi.org/10.1002/9781118670712.ch8

 Heinecke, A; Henry, G; Hutchinson, M; Pabst, H. 
 Proceedings of Intl. Supercomputing Conference, 981-991 (2016). 
 LIBXSMM: Accelerating Small Matrix Multiplications
 by Runtime Code Generation.
 https://doi.org/10.1109/SC.2016.83

 Borstnik, U; VandeVondele, J; Weber, V; Hutter, J. 
 PARALLEL COMPUTING, 40 (5-6), 47-58 (2014). 
 Sparse matrix multiplication: The distributed block-compressed sparse
 row library.
 https://doi.org/10.1016/j.parco.2014.03.012

 Hutter, J; Iannuzzi, M; Schiffmann, F; VandeVondele, J. 
 WIREs Comput Mol Sci., 4 (1), 15-25 (2014). 
 CP2K: atomistic simulations of condensed matter systems.
 https://doi.org/10.1002/wcms.1159

 Marek, A; Blum, V; Johanni, R; Havu, V; Lang, B; Auckenthaler, T;
 Heinecke, A; Bungartz, H; Lederer, H. 
 Journal of Physics: Condensed Matter, 26 (21), (2014). 
 The ELPA library: scalable parallel eigenvalue solutions for
 electronic structure
 theory and computational science.
 https://doi.org/10.1088/0953-8984/26/21/213201

 Krack, M. 
 THEORETICAL CHEMISTRY ACCOUNTS, 114 (1-3), 145-152 (2005). 
 Pseudopotentials for H to Kr optimized for gradient-corrected
 exchange-correlation functionals.
 https://doi.org/10.1007/s00214-005-0655-y

 Frigo, M; Johnson, SG. 
 PROCEEDINGS OF THE IEEE, 93 (2), 216-231 (2005). 
 The design and implementation of FFTW3.
 https://doi.org/10.1109/JPROC.2004.840301

 VandeVondele, J; Hutter, J. 
 JOURNAL OF CHEMICAL PHYSICS, 118 (10), 4365-4369 (2003). 
 An efficient orbital transformation method for electronic structure
 calculations.
 https://doi.org/10.1063/1.1543154

 Lippert, G; Hutter, J; Parrinello, M. 
 THEORETICAL CHEMISTRY ACCOUNTS, 103 (2), 124-140 (1999). 
 The Gaussian and augmented-plane-wave density functional method for ab
 initio molecular dynamics simulations.
 https://doi.org/10.1007/s002140050523

 Krack, M; Parrinello, M. 
 PHYSICAL CHEMISTRY CHEMICAL PHYSICS, 2 (10), 2105-2112 (2000). 
 All-electron ab-initio molecular dynamics.
 https://doi.org/10.1039/b001167n

 Hartwigsen, C; Goedecker, S; Hutter, J. 
 PHYSICAL REVIEW B, 58 (7), 3641-3662 (1998). 
 Relativistic separable dual-space Gaussian pseudopotentials from H to Rn.
 https://doi.org/10.1103/PhysRevB.58.3641

 Perdew, JP; Burke, K; Ernzerhof, M. 
 PHYSICAL REVIEW LETTERS, 77 (18), 3865-3868 (1996). 
 Generalized gradient approximation made simple.
 https://doi.org/10.1103/PhysRevLett.77.3865

 Goedecker, S; Teter, M; Hutter, J. 
 PHYSICAL REVIEW B, 54 (3), 1703-1710 (1996). 
 Separable dual-space Gaussian pseudopotentials.
 https://doi.org/10.1103/PhysRevB.54.1703


 -------------------------------------------------------------------------------
 -                                                                             -
 -                                T I M I N G                                  -
 -                                                                             -
 -------------------------------------------------------------------------------
 SUBROUTINE                       CALLS  ASD         SELF TIME        TOTAL TIME
                                MAXIMUM       AVERAGE  MAXIMUM  AVERAGE  MAXIMUM
 CP2K                                 1  1.0    0.009    0.031    5.454    5.455
 qs_energies                          1  2.0    0.000    0.000    5.202    5.202
 scf_env_do_scf                       1  3.0    0.000    0.000    4.392    4.393
 qs_ks_update_qs_env                  4  5.0    0.000    0.000    3.518    3.518
 rebuild_ks_matrix                    3  6.0    0.000    0.000    3.517    3.517
 qs_ks_build_kohn_sham_matrix         3  7.0    0.001    0.001    3.517    3.517
 scf_env_do_scf_inner_loop            3  4.0    0.000    0.000    3.200    3.200
 pw_transfer                        121 10.1    0.012    0.016    1.461    1.493
 fft_wrap_pw1pw2                    112 11.1    0.002    0.002    1.442    1.475
 fft_wrap_pw1pw2_300                 70 12.7    0.098    0.110    1.337    1.372
 qs_vxc_create                        3  8.0    0.000    0.000    1.258    1.258
 xc_vxc_pw_create                     3  9.0    0.022    0.029    1.258    1.258
 init_scf_loop                        1  4.0    0.000    0.000    1.191    1.191
 fft3d_ps                           112 13.1    0.575    0.669    1.103    1.165
 qs_rho_update_rho                    4  5.0    0.000    0.000    0.971    0.971
 rs_pw_transfer                      62  9.3    0.001    0.002    0.883    0.926
 calculate_rho_elec                   8  6.0    0.006    0.006    0.910    0.910
 xc_pw_derive                        36 11.0    0.000    0.000    0.783    0.814
 density_rs2pw                        8  7.0    0.000    0.001    0.717    0.767
 prepare_gapw_den                     3  8.0    0.000    0.000    0.746    0.754
 mp_sum_d                           572  2.7    0.630    0.667    0.630    0.667
 xc_rho_set_and_dset_create           3 10.0    0.017    0.023    0.648    0.661
 sum_up_and_integrate                 3  8.0    0.003    0.005    0.599    0.601
 integrate_v_rspace                   6  9.0    0.000    0.000    0.596    0.597
 xc_pw_divergence                     6 10.0    0.000    0.000    0.558    0.583
 qs_energies_init_hamiltonians        1  3.0    0.000    0.000    0.557    0.557
 qs_env_update_s_mstruct              1  4.0    0.000    0.000    0.531    0.556
 qs_create_task_list                  1  5.0    0.000    0.000    0.530    0.554
 generate_qs_task_list                1  6.0    0.000    0.002    0.530    0.554
 distribute_tasks                     1  7.0    0.000    0.000    0.529    0.554
 get_current_loads                   10  8.8    0.000    0.000    0.528    0.553
 load_balance_distributed             1  8.0    0.000    0.000    0.528    0.553
 mp_alltoall_l                       11  9.7    0.528    0.553    0.528    0.553
 compute_load_list                    2  9.0    0.000    0.000    0.528    0.552
 build_core_hamiltonian_matrix        1  4.0    0.000    0.001    0.025    0.550
 calculate_vxc_atom                   3  8.0    0.003    0.047    0.527    0.527
 calculate_rho_atom                   6  9.0    0.084    0.511    0.084    0.511
 mp_alltoall_z22v                   112 15.1    0.396    0.507    0.396    0.507
 potential_pw2rs                      6 10.0    0.000    0.001    0.496    0.498
 gaVxcgb_GC                           6  9.0    0.013    0.463    0.013    0.463
 rs_pw_transfer_RS2PW_300            11  9.5    0.179    0.224    0.331    0.367
 yz_to_x                             59 13.6    0.060    0.074    0.282    0.357
 mp_sum_dv                           24 11.6    0.303    0.328    0.303    0.328
 mp_waitany                         880 11.3    0.229    0.304    0.229    0.304
 rs_pw_transfer_PW2RS_300             9 11.3    0.154    0.190    0.286    0.297
 build_core_ae                        1  5.0    0.011    0.278    0.011    0.278
 x_to_yz                             53 14.7    0.065    0.076    0.241    0.276
 xc_functional_eval                  15 10.9    0.000    0.000    0.254    0.271
 pbe_lsd_eval                        15 11.9    0.254    0.271    0.254    0.271
 build_core_ppl                       1  5.0    0.010    0.258    0.010    0.258
 init_scf_run                         1  3.0    0.000    0.000    0.247    0.247
 scf_env_initial_rho_setup            1  4.0    0.000    0.000    0.247    0.247
 mp_waitall_1                      8930 13.3    0.182    0.241    0.182    0.241
 calculate_rho0_atom                  6  9.0    0.195    0.234    0.195    0.234
 grid_collocate_task_list             8  7.0    0.155    0.196    0.155    0.196
 integrate_vhg0_rspace                3  8.0    0.017    0.042    0.179    0.184
 qs_init_subsys                       1  2.0    0.004    0.004    0.176    0.176
 put_rho0_on_grid                     3  9.0    0.002    0.003    0.164    0.172
 pw_gather_p                         59 12.6    0.120    0.150    0.120    0.150
 pw_scatter_p                        53 13.7    0.114    0.133    0.114    0.133
 dbcsr_multiply_generic             115  9.5    0.003    0.003    0.130    0.132
 rs_pw_transfer_PW2RS_100             6 12.0    0.024    0.045    0.111    0.131
 mp_sum_dm                           38  7.3    0.110    0.126    0.110    0.126
 -------------------------------------------------------------------------------

 The number of warnings for this run is : 0
 
 -------------------------------------------------------------------------------
  **** **** ******  **  PROGRAM ENDED AT                 2022-05-31 12:41:50.610
 ***** ** ***  *** **   PROGRAM RAN ON                                   tcopt10
 **    ****   ******    PROGRAM RAN BY                                    hutter
 ***** **    ** ** **   PROGRAM PROCESS ID                                 84229
  **** **  *******  **  PROGRAM STOPPED IN /data/hutter/GITHUB/BASIS/scMOLOPT/PB
                                           E/Rh
