 DBCSR| CPU Multiplication driver                                           XSMM
 DBCSR| Multrec recursion limit                                              512
 DBCSR| Multiplication stack size                                           1000
 DBCSR| Maximum elements for images                                    UNLIMITED
 DBCSR| Multiplicative factor virtual images                                   1
 DBCSR| Use multiplication densification                                       T
 DBCSR| Multiplication size stacks                                             3
 DBCSR| Use memory pool for CPU allocation                                     F
 DBCSR| Number of 3D layers                                               SINGLE
 DBCSR| Use MPI memory allocation                                              F
 DBCSR| Use RMA algorithm                                                      F
 DBCSR| Use Communication thread                                               T
 DBCSR| Communication thread load                                             87
 DBCSR| MPI: My node id                                                        0
 DBCSR| MPI: Number of nodes                                                  48
 DBCSR| OMP: Current number of threads                                         1
 DBCSR| OMP: Max number of threads                                             1
 DBCSR| Split modifier for TAS multiplication algorithm                  1.0E+00


  **** **** ******  **  PROGRAM STARTED AT               2022-05-14 00:37:22.277
 ***** ** ***  *** **   PROGRAM STARTED ON                               tcopt10
 **    ****   ******    PROGRAM STARTED BY                                hutter
 ***** **    ** ** **   PROGRAM PROCESS ID                                 57156
  **** **  *******  **  PROGRAM STARTED IN /data/hutter/GITHUB/BASIS/scMOLOPT/PB
                                           E/Ni

 CP2K| version string:                   CP2K version 10.0 (Development Version)
 CP2K| source code revision number:                                  git:13fcfd8
 CP2K| cp2kflags: omp libint fftw3 libxc elpa parallel mpi3 scalapack cosma xsmm
 CP2K|             spglib sirius libvori libbqb
 CP2K| is freely available from                            https://www.cp2k.org/
 CP2K| Program compiled at                      Tue 10 May 2022 02:27:21 PM CEST
 CP2K| Program compiled on                                               tcopt10
 CP2K| Program compiled for                                                local
 CP2K| Data directory path                   /data/hutter/GITHUB/TDLRI/cp2k/data
 CP2K| Input file name                                               NiS-ref.inp

 GLOBAL| Force Environment number                                              1
 GLOBAL| Basis set file name                                        ../def2QZVPP
 GLOBAL| Potential file name                                        ../POTENTIAL
 GLOBAL| MM Potential file name                                     MM_POTENTIAL
 GLOBAL| Coordinate file name                                      __STD_INPUT__
 GLOBAL| Method name                                                        CP2K
 GLOBAL| Project name                                                     refNiS
 GLOBAL| Run type                                                         ENERGY
 GLOBAL| FFT library                                                       FFTW3
 GLOBAL| Diagonalization library                                       ScaLAPACK
 GLOBAL| Orthonormality check for eigenvectors                          DISABLED
 GLOBAL| Matrix multiplication library                                     COSMA
 GLOBAL| All-to-all communication in single precision                          F
 GLOBAL| FFTs using library dependent lengths                                  F
 GLOBAL| Grid backend                                                       AUTO
 GLOBAL| Global print level                                                  LOW
 GLOBAL| MPI I/O enabled                                                       T
 GLOBAL| Total number of message passing processes                            48
 GLOBAL| Number of threads for this process                                    1
 GLOBAL| This output is from process                                           0
 GLOBAL| Stack size for threads created by OpenMP (OMP_STACKSIZE)        default
 GLOBAL| CPU model name                          AMD EPYC 7401 24-Core Processor
 GLOBAL| CPUID                                                              1002

 MEMORY| system memory details [Kb]
 MEMORY|                        rank 0           min           max       average
 MEMORY| MemTotal            263969136     263969136     263969136     263969136
 MEMORY| MemFree             237807200     237807200     237807200     237807200
 MEMORY| Buffers                   136           136           136           136
 MEMORY| Cached               18981508      18981504      18981508      18981505
 MEMORY| Slab                  1428828       1428828       1428828       1428828
 MEMORY| SReclaimable           873484        873484        873484        873484
 MEMORY| MemLikelyFree       257662328     257662324     257662328     257662325


 GENERATE|  Preliminary Number of Bonds generated:                             0
 GENERATE|  Achieved consistency in connectivity generation.

 *******************************************************************************
 *******************************************************************************
 **                                                                           **
 **     #####                         ##              ##                      **
 **    ##   ##            ##          ##              ##                      **
 **   ##     ##                       ##            ######                    **
 **   ##     ##  ##   ##  ##   #####  ##  ##   ####   ##    #####    #####    **
 **   ##     ##  ##   ##  ##  ##      ## ##   ##      ##   ##   ##  ##   ##   **
 **   ##  ## ##  ##   ##  ##  ##      ####     ###    ##   ######   ######    **
 **    ##  ###   ##   ##  ##  ##      ## ##      ##   ##   ##       ##        **
 **     #######   #####   ##   #####  ##  ##  ####    ##    #####   ##        **
 **           ##                                                    ##        **
 **                                                                           **
 **                                                ... make the atoms dance   **
 **                                                                           **
 **            Copyright (C) by CP2K developers group (2000-2022)             **
 **                      J. Chem. Phys. 152, 194103 (2020)                    **
 **                                                                           **
 *******************************************************************************


 TOTAL NUMBERS AND MAXIMUM NUMBERS

  Total number of            - Atomic kinds:                                   2
                             - Atoms:                                          2
                             - Shell sets:                                    50
                             - Shells:                                        50
                             - Primitive Cartesian functions:                 99
                             - Cartesian basis functions:                    215
                             - Spherical basis functions:                    170

  Maximum angular momentum of the orbital basis functions:                     4


 SCF PARAMETERS         Density guess:                                   RESTART
                        --------------------------------------------------------
                        max_scf:                                              20
                        max_scf_history:                                       0
                        max_diis:                                              4
                        --------------------------------------------------------
                        eps_scf:                                        5.00E-07
                        eps_scf_history:                                0.00E+00
                        eps_diis:                                       1.00E-01
                        eps_eigval:                                     1.00E-05
                        --------------------------------------------------------
                        level_shift [a.u.]:                             0.000000
                        --------------------------------------------------------
                        Outer loop SCF in use 
                        No variables optimised in outer loop
                        eps_scf                                         5.00E-07
                        max_scf                                               10
                        No outer loop optimization
                        step_size                                       5.00E-01

 Spin 1

 Number of electrons:                                                         23
 Number of occupied orbitals:                                                 23
 Number of molecular orbitals:                                                23

 Spin 2

 Number of electrons:                                                         21
 Number of occupied orbitals:                                                 21
 Number of molecular orbitals:                                                21

 Number of orbital functions:                                                170
 Number of independent orbital functions:                                    170

 Extrapolation method: initial_guess


 SCF WAVEFUNCTION OPTIMIZATION

  ----------------------------------- OT ---------------------------------------
  Minimizer      : DIIS                : direct inversion
                                         in the iterative subspace
                                         using   7 DIIS vectors
                                         safer DIIS on
  Preconditioner : FULL_ALL            : diagonalization, state selective
  Precond_solver : DEFAULT
  stepsize       :    0.10000000                  energy_gap     :    0.08000000
  eps_taylor     :   0.10000E-15                  max_taylor     :             4
  ----------------------------------- OT ---------------------------------------

  Step     Update method      Time    Convergence         Total energy    Change
  ------------------------------------------------------------------------------
     1 OT DIIS     0.10E+00    4.1     0.00014890     -1906.1838739982 -1.91E+03
     2 OT DIIS     0.10E+00    4.5     0.00022180     -1906.1838716576  2.34E-06
     3 OT DIIS     0.10E+00    4.5     0.00002840     -1906.1838788602 -7.20E-06
     4 OT DIIS     0.10E+00    4.5     0.00001552     -1906.1838796189 -7.59E-07
     5 OT DIIS     0.10E+00    4.5     0.00000291     -1906.1838800073 -3.88E-07
     6 OT DIIS     0.10E+00    4.5     0.00000101     -1906.1838800188 -1.15E-08
     7 OT DIIS     0.10E+00    4.5     0.00000055     -1906.1838800185  2.93E-10
     8 OT DIIS     0.10E+00    4.4     0.00000046     -1906.1838800181  3.69E-10

  *** SCF run converged in     8 steps ***


  Electronic density on regular grids:        -23.4052777927       20.5947222073
  Core density on regular grids:               44.0000000000        0.0000000000
  Hard and soft densities (Lebedev):          -48.9203976636      -28.3256750864
  Total Rho_soft + Rho1_hard - Rho1_soft      -44.0000003699
  Total charge density (r-space):              -0.0000003699
  Total Rho_soft + Rho0_soft (g-space):        -0.0000006853

  Overlap energy of the core charge distribution:               0.00000000132862
  Self energy of the core charge distribution:               -803.83582570232716
  Core Hamiltonian energy:                                  -1135.29266329074471
  Hartree energy:                                              89.71417375617220
  Exchange-correlation energy:                                -16.49855776629430

  GAPW| Exc from hard and soft atomic rho1:                   -71.91970410890985
  GAPW| local Eh = 1 center integrals:                         31.64869709268160

  Total energy:                                             -1906.18388001809353

  outer SCF iter =    1 RMS gradient =   0.46E-06 energy =      -1906.1838800181
  outer SCF loop converged in   1 iterations or    8 steps


  Integrated absolute spin density  :                               1.6746964707
  Ideal and single determinant S**2 :                    2.000000       2.006711

 ENERGY| Total FORCE_EVAL ( QS ) energy [a.u.]:            -1906.183880018093532

 -------------------------------------------------------------------------------
 -                                                                             -
 -                                DBCSR STATISTICS                             -
 -                                                                             -
 -------------------------------------------------------------------------------
 COUNTER                                    TOTAL       BLAS       SMM       ACC
 flops    21 x    21 x    21               814968       0.0%    100.0%      0.0%
 flops    23 x    23 x    23              1070696       0.0%    100.0%      0.0%
 flops    70 x    70 x    21              1852200       0.0%    100.0%      0.0%
 flops    70 x    70 x    23              2028600       0.0%    100.0%      0.0%
 flops    21 x    21 x    70              2037420       0.0%    100.0%      0.0%
 flops    23 x    23 x    70              2443980       0.0%    100.0%      0.0%
 flops    70 x   100 x    21              2646000       0.0%    100.0%      0.0%
 flops    70 x   100 x    23              2898000       0.0%    100.0%      0.0%
 flops    21 x    21 x   100              2910600       0.0%    100.0%      0.0%
 flops    23 x    23 x   100              3491400       0.0%    100.0%      0.0%
 flops   100 x   100 x    21              3780000       0.0%    100.0%      0.0%
 flops   100 x   100 x    23              4140000       0.0%    100.0%      0.0%
 flops    70 x    21 x    70              4733400       0.0%    100.0%      0.0%
 flops    70 x    23 x    70              4958800       0.0%    100.0%      0.0%
 flops   170 x    21 x    21              6147540       0.0%    100.0%      0.0%
 flops    70 x    21 x   100              6762000       0.0%    100.0%      0.0%
 flops   100 x    21 x    70              6762000       0.0%    100.0%      0.0%
 flops    70 x    23 x   100              7084000       0.0%    100.0%      0.0%
 flops   100 x    23 x    70              7084000       0.0%    100.0%      0.0%
 flops   170 x    23 x    23              7374260       0.0%    100.0%      0.0%
 flops   170 x    21 x    70              8996400       0.0%    100.0%      0.0%
 flops   100 x    21 x   100              9660000       0.0%    100.0%      0.0%
 flops   170 x    23 x    70              9853200       0.0%    100.0%      0.0%
 flops   100 x    23 x   100             10120000       0.0%    100.0%      0.0%
 flops   170 x    21 x   100             12852000       0.0%    100.0%      0.0%
 flops   170 x    23 x   100             14076000       0.0%    100.0%      0.0%
 flops inhomo. stacks                           0       0.0%      0.0%      0.0%
 flops total                       146.577464E+06       0.0%    100.0%      0.0%
 flops max/rank                    142.696664E+06       0.0%    100.0%      0.0%
 matmuls inhomo. stacks                         0       0.0%      0.0%      0.0%
 matmuls total                                608       0.0%    100.0%      0.0%
 number of processed stacks                   608       0.0%    100.0%      0.0%
 average stack size                                     0.0       1.0       0.0
 marketing flops                   152.451248E+06
 -------------------------------------------------------------------------------
 # multiplications                            337
 max memory usage/rank             680.935424E+06
 # max total images/rank                        3
 # max 3D layers                                1
 # MPI messages exchanged                  323520
 MPI messages size (bytes):
  total size                       281.174080E+06
  min size                           0.000000E+00
  max size                         136.000000E+03
  average size                     869.108826E+00
 MPI breakdown and total messages size (bytes):
             size <=      128              316718                        0
       128 < size <=     8192                1478                  5734640
      8192 < size <=    32768                3542                 69440240
     32768 < size <=   131072                 891                 84823200
    131072 < size <=  4194304                 891                121176000
   4194304 < size <= 16777216                   0                        0
  16777216 < size                               0                        0
 -------------------------------------------------------------------------------

 *** WARNING in dbcsr_mm.F:290 :: Using a non-square number of MPI ranks ***
 *** might lead to poor performance. Used ranks: 48 Suggested: 49 100    ***

 -------------------------------------------------------------------------------
 -                                                                             -
 -                      DBCSR MESSAGE PASSING PERFORMANCE                      -
 -                                                                             -
 -------------------------------------------------------------------------------
 ROUTINE             CALLS      AVE VOLUME [Bytes]
 MP_Bcast               27                     12.
 MP_Allreduce         1830                      9.
 MP_Alltoall          1369                   8656.
 MP_ISend            15114                   2307.
 MP_IRecv            14856                    701.
 -------------------------------------------------------------------------------

 -------------------------------------------------------------------------------
 -                                                                             -
 -                                GRID STATISTICS                              -
 -                                                                             -
 -------------------------------------------------------------------------------
 LP    KERNEL             BACKEND                              COUNT     PERCENT
 2     collocate ortho    REF                                   6228      12.28%
 3     collocate ortho    REF                                   5598      11.04%
 2     integrate ortho    REF                                   5536      10.92%
 1     collocate ortho    REF                                   5274      10.40%
 3     integrate ortho    REF                                   4976       9.81%
 1     integrate ortho    REF                                   4688       9.25%
 4     collocate ortho    REF                                   3654       7.21%
 4     integrate ortho    REF                                   3248       6.41%
 0     collocate ortho    REF                                   2286       4.51%
 0     integrate ortho    REF                                   2032       4.01%
 5     collocate ortho    REF                                   1836       3.62%
 5     integrate ortho    REF                                   1632       3.22%
 6     collocate ortho    REF                                    828       1.63%
 2     collocate general  REF                                    768       1.51%
 2     integrate general  REF                                    768       1.51%
 6     integrate ortho    REF                                    736       1.45%
 7     collocate ortho    REF                                    270       0.53%
 7     integrate ortho    REF                                    240       0.47%
 8     collocate ortho    REF                                     54       0.11%
 8     integrate ortho    REF                                     48       0.09%
 -------------------------------------------------------------------------------

 MEMORY| Estimated peak process memory [MiB]                                 650

 -------------------------------------------------------------------------------
 -                                                                             -
 -                         MESSAGE PASSING PERFORMANCE                         -
 -                                                                             -
 -------------------------------------------------------------------------------

 ROUTINE             CALLS      AVE VOLUME [Bytes]
 MP_Group                4
 MP_Bcast              231                 833930.
 MP_Allreduce          731                 261076.
 MP_Sync                16
 MP_Alltoall           365                8277501.
 MP_ISendRecv         3196                  53640.
 MP_Wait              5380
 MP_comm_split           6
 MP_ISend             1848                 522553.
 MP_IRecv             1848                 522761.
 MP_Recv                21                   2720.
 -------------------------------------------------------------------------------


 -------------------------------------------------------------------------------
 -                                                                             -
 -                           R E F E R E N C E S                               -
 -                                                                             -
 -------------------------------------------------------------------------------
 
 CP2K version 10.0 (Development Version), the CP2K developers group (2022).
 CP2K is freely available from https://www.cp2k.org/ .

 Kuehne,Thomas D.; Iannuzzi,Marcella; Del Ben,Mauro;
 Rybkin,Vladimir V.; Seewald,Patrick; Stein,Frederick; Laino,Teodoro;
 Khaliullin,Rustam Z.; Schuett,Ole; Schiffmann,Florian; Golze,Dorothea;
 Wilhelm,Jan; Chulkov,Sergey; Bani-Hashemian,Mohammad Hossein;
 Weber,Valery; Borstnik,Urban; Taillefumier,Mathieu;
 Jakobovits,Alice Shoshana; Lazzaro,Alfio; Pabst,Hans; Mueller,Tiziano;
 Schade,Robert; Guidon,Manuel; Andermatt,Samuel; Holmberg,Nico;
 Schenter,Gregory K.; Hehn,Anna; Bussy,Augustin; Belleflamme,Fabian;
 Tabacchi,Gloria; Gloess,Andreas; Lass,Michael; Bethune,Iain;
 Mundy,Christopher J.; Plessl,Christian; Watkins,Matt;
 VandeVondele,Joost; Krack,Matthias; Hutter,Juerg. 
 The Journal of Chemical Physics, 152 (19), (2020). 
 CP2K: An electronic structure and molecular dynamics software package -
 Quickstep: Efficient and accurate electronic structure calculations.
 https://doi.org/10.1063/5.0007045

 Schuett, Ole; Messmer, Peter; Hutter, Juerg; VandeVondele, Joost. 
 Electronic Structure Calculations on Graphics Processing Units, John
 Wiley & Sons, Ltd, 173-190 (2016). 
 GPU-Accelerated Sparse Matrix-Matrix Multiplication for
 Linear Scaling Density Functional Theory.
 https://doi.org/10.1002/9781118670712.ch8

 Heinecke, A; Henry, G; Hutchinson, M; Pabst, H. 
 Proceedings of Intl. Supercomputing Conference, 981-991 (2016). 
 LIBXSMM: Accelerating Small Matrix Multiplications
 by Runtime Code Generation.
 https://doi.org/10.1109/SC.2016.83

 Borstnik, U; VandeVondele, J; Weber, V; Hutter, J. 
 PARALLEL COMPUTING, 40 (5-6), 47-58 (2014). 
 Sparse matrix multiplication: The distributed block-compressed sparse
 row library.
 https://doi.org/10.1016/j.parco.2014.03.012

 Hutter, J; Iannuzzi, M; Schiffmann, F; VandeVondele, J. 
 WIREs Comput Mol Sci., 4 (1), 15-25 (2014). 
 CP2K: atomistic simulations of condensed matter systems.
 https://doi.org/10.1002/wcms.1159

 Frigo, M; Johnson, SG. 
 PROCEEDINGS OF THE IEEE, 93 (2), 216-231 (2005). 
 The design and implementation of FFTW3.
 https://doi.org/10.1109/JPROC.2004.840301

 VandeVondele, J; Hutter, J. 
 JOURNAL OF CHEMICAL PHYSICS, 118 (10), 4365-4369 (2003). 
 An efficient orbital transformation method for electronic structure
 calculations.
 https://doi.org/10.1063/1.1543154

 Lippert, G; Hutter, J; Parrinello, M. 
 THEORETICAL CHEMISTRY ACCOUNTS, 103 (2), 124-140 (1999). 
 The Gaussian and augmented-plane-wave density functional method for ab
 initio molecular dynamics simulations.
 https://doi.org/10.1007/s002140050523

 Krack, M; Parrinello, M. 
 PHYSICAL CHEMISTRY CHEMICAL PHYSICS, 2 (10), 2105-2112 (2000). 
 All-electron ab-initio molecular dynamics.
 https://doi.org/10.1039/b001167n

 Perdew, JP; Burke, K; Ernzerhof, M. 
 PHYSICAL REVIEW LETTERS, 77 (18), 3865-3868 (1996). 
 Generalized gradient approximation made simple.
 https://doi.org/10.1103/PhysRevLett.77.3865


 -------------------------------------------------------------------------------
 -                                                                             -
 -                                T I M I N G                                  -
 -                                                                             -
 -------------------------------------------------------------------------------
 SUBROUTINE                       CALLS  ASD         SELF TIME        TOTAL TIME
                                MAXIMUM       AVERAGE  MAXIMUM  AVERAGE  MAXIMUM
 CP2K                                 1  1.0    0.014    0.040   36.804   36.817
 qs_energies                          1  2.0    0.000    0.000   36.396   36.408
 scf_env_do_scf                       1  3.0    0.000    0.000   35.717   35.730
 qs_ks_update_qs_env                  9  5.0    0.000    0.000   32.290   32.301
 rebuild_ks_matrix                    8  6.0    0.000    0.000   32.287   32.298
 qs_ks_build_kohn_sham_matrix         8  7.0    0.002    0.003   32.287   32.298
 scf_env_do_scf_inner_loop            8  4.0    0.000    0.001   31.641   31.652
 mp_sum_d                           766  4.8   14.828   15.257   14.828   15.257
 calculate_vxc_atom                   8  8.0    0.047    0.738   14.350   14.355
 gaVxcgb_GC                          16  9.0    0.278   13.341    0.278   13.341
 prepare_gapw_den                     8  8.0    0.000    0.001    7.733    7.751
 pw_transfer                        306 10.2    0.040    0.046    6.533    7.153
 fft_wrap_pw1pw2                    282 11.3    0.005    0.005    6.451    7.074
 fft_wrap_pw1pw2_300                180 12.8    0.460    0.500    6.202    6.833
 calculate_rho_atom                  16  9.0    1.245    6.357    1.245    6.357
 fft3d_ps                           282 13.3    2.580    3.324    4.773    5.428
 qs_vxc_create                        8  8.0    0.000    0.000    5.322    5.324
 xc_vxc_pw_create                     8  9.0    0.064    0.079    5.322    5.324
 xc_pw_derive                        96 11.0    0.001    0.002    3.854    4.412
 init_scf_loop                        1  4.0    0.000    0.000    4.075    4.076
 mp_sum_dv                           54 11.8    3.158    3.927    3.158    3.927
 rs_pw_transfer                     152  9.4    0.004    0.006    3.331    3.475
 qs_rho_update_rho                    9  5.0    0.000    0.000    3.366    3.367
 calculate_rho_elec                  18  6.0    0.019    0.020    3.204    3.205
 xc_pw_divergence                    16 10.0    0.001    0.001    2.649    3.177
 xc_rho_set_and_dset_create           8 10.0    0.064    0.075    2.505    2.829
 calculate_rho0_atom                 16  9.0    2.626    2.818    2.626    2.818
 density_rs2pw                       18  7.0    0.001    0.001    2.623    2.756
 mp_alltoall_z22v                   282 15.3    1.505    2.535    1.505    2.535
 sum_up_and_integrate                 8  8.0    0.017    0.019    2.365    2.370
 integrate_v_rspace                  16  9.0    0.001    0.001    2.349    2.356
 yz_to_x                            126 14.0    0.328    0.400    1.276    2.031
 potential_pw2rs                     16 10.0    0.002    0.002    1.981    1.985
 integrate_vhg0_rspace                8  8.0    0.132    0.368    1.263    1.315
 rs_pw_transfer_RS2PW_300            26  9.6    0.769    0.864    1.154    1.285
 rs_pw_transfer_PW2RS_300            24 11.3    0.754    0.778    1.139    1.181
 xc_functional_eval                  40 10.9    0.000    0.000    0.587    1.103
 pbe_lsd_eval                        40 11.9    0.587    1.103    0.587    1.103
 x_to_yz                            122 14.8    0.333    0.370    0.886    1.069
 mp_waitany                        1848 11.4    0.816    0.980    0.816    0.980
 mp_sum_dm                           88  7.4    0.837    0.864    0.837    0.864
 grid_collocate_task_list            18  7.0    0.453    0.811    0.453    0.811
 -------------------------------------------------------------------------------

 The number of warnings for this run is : 1
 
 -------------------------------------------------------------------------------
  **** **** ******  **  PROGRAM ENDED AT                 2022-05-14 00:37:59.515
 ***** ** ***  *** **   PROGRAM RAN ON                                   tcopt10
 **    ****   ******    PROGRAM RAN BY                                    hutter
 ***** **    ** ** **   PROGRAM PROCESS ID                                 57156
  **** **  *******  **  PROGRAM STOPPED IN /data/hutter/GITHUB/BASIS/scMOLOPT/PB
                                           E/Ni
