 DBCSR| CPU Multiplication driver                                           XSMM
 DBCSR| Multrec recursion limit                                              512
 DBCSR| Multiplication stack size                                           1000
 DBCSR| Maximum elements for images                                    UNLIMITED
 DBCSR| Multiplicative factor virtual images                                   1
 DBCSR| Use multiplication densification                                       T
 DBCSR| Multiplication size stacks                                             3
 DBCSR| Use memory pool for CPU allocation                                     F
 DBCSR| Number of 3D layers                                               SINGLE
 DBCSR| Use MPI memory allocation                                              F
 DBCSR| Use RMA algorithm                                                      F
 DBCSR| Use Communication thread                                               T
 DBCSR| Communication thread load                                             87
 DBCSR| MPI: My node id                                                        0
 DBCSR| MPI: Number of nodes                                                  36
 DBCSR| OMP: Current number of threads                                         1
 DBCSR| OMP: Max number of threads                                             1
 DBCSR| Split modifier for TAS multiplication algorithm                  1.0E+00


  **** **** ******  **  PROGRAM STARTED AT               2022-05-31 12:30:35.593
 ***** ** ***  *** **   PROGRAM STARTED ON                               tcopt10
 **    ****   ******    PROGRAM STARTED BY                                hutter
 ***** **    ** ** **   PROGRAM PROCESS ID                                 82269
  **** **  *******  **  PROGRAM STARTED IN /data/hutter/GITHUB/BASIS/scMOLOPT/PB
                                           E/Rh

 CP2K| version string:                   CP2K version 10.0 (Development Version)
 CP2K| source code revision number:                                  git:d19b00a
 CP2K| cp2kflags: omp libint fftw3 libxc elpa parallel mpi3 scalapack cosma xsmm
 CP2K|             spglib sirius libvori libbqb
 CP2K| is freely available from                            https://www.cp2k.org/
 CP2K| Program compiled at                      Wed 18 May 2022 12:15:59 PM CEST
 CP2K| Program compiled on                                               tcopt10
 CP2K| Program compiled for                                                local
 CP2K| Data directory path                   /data/hutter/GITHUB/TDLRI/cp2k/data
 CP2K| Input file name                                              RhF4-ref.inp

 GLOBAL| Force Environment number                                              1
 GLOBAL| Basis set file name                                        ../def2QZVPP
 GLOBAL| Potential file name                                        ../POTENTIAL
 GLOBAL| MM Potential file name                                     MM_POTENTIAL
 GLOBAL| Coordinate file name                                      __STD_INPUT__
 GLOBAL| Method name                                                        CP2K
 GLOBAL| Project name                                                    refRhF4
 GLOBAL| Run type                                                         ENERGY
 GLOBAL| FFT library                                                       FFTW3
 GLOBAL| Diagonalization library                                            ELPA
 GLOBAL| Minimum number of eigenvectors for ELPA usage                        16
 GLOBAL| Orthonormality check for eigenvectors                          DISABLED
 GLOBAL| Matrix multiplication library                                     COSMA
 GLOBAL| All-to-all communication in single precision                          F
 GLOBAL| FFTs using library dependent lengths                                  F
 GLOBAL| Grid backend                                                       AUTO
 GLOBAL| Global print level                                                  LOW
 GLOBAL| MPI I/O enabled                                                       T
 GLOBAL| Total number of message passing processes                            36
 GLOBAL| Number of threads for this process                                    1
 GLOBAL| This output is from process                                           0
 GLOBAL| Stack size for threads created by OpenMP (OMP_STACKSIZE)        default
 GLOBAL| CPU model name                          AMD EPYC 7401 24-Core Processor
 GLOBAL| CPUID                                                              1002

 MEMORY| system memory details [Kb]
 MEMORY|                        rank 0           min           max       average
 MEMORY| MemTotal            263969132     263969132     263969132     263969132
 MEMORY| MemFree             237247328     237247328     237247328     237247328
 MEMORY| Buffers                  2836          2836          2836          2836
 MEMORY| Cached               20263332      20263332      20263332      20263332
 MEMORY| Slab                  1471380       1471380       1471380       1471380
 MEMORY| SReclaimable           878100        878100        878100        878100
 MEMORY| MemLikelyFree       258391596     258391596     258391596     258391596


 GENERATE|  Preliminary Number of Bonds generated:                             0
 GENERATE|  Achieved consistency in connectivity generation.

 *******************************************************************************
 *******************************************************************************
 **                                                                           **
 **     #####                         ##              ##                      **
 **    ##   ##            ##          ##              ##                      **
 **   ##     ##                       ##            ######                    **
 **   ##     ##  ##   ##  ##   #####  ##  ##   ####   ##    #####    #####    **
 **   ##     ##  ##   ##  ##  ##      ## ##   ##      ##   ##   ##  ##   ##   **
 **   ##  ## ##  ##   ##  ##  ##      ####     ###    ##   ######   ######    **
 **    ##  ###   ##   ##  ##  ##      ## ##      ##   ##   ##       ##        **
 **     #######   #####   ##   #####  ##  ##  ####    ##    #####   ##        **
 **           ##                                                    ##        **
 **                                                                           **
 **                                                ... make the atoms dance   **
 **                                                                           **
 **            Copyright (C) by CP2K developers group (2000-2022)             **
 **                      J. Chem. Phys. 152, 194103 (2020)                    **
 **                                                                           **
 *******************************************************************************


 TOTAL NUMBERS AND MAXIMUM NUMBERS

  Total number of            - Atomic kinds:                                   2
                             - Atoms:                                          5
                             - Shell sets:                                    90
                             - Shells:                                        90
                             - Primitive Cartesian functions:                146
                             - Cartesian basis functions:                    404
                             - Spherical basis functions:                    316

  Maximum angular momentum of- Orbital basis functions:                        4
                             - Local part of the GTH pseudopotential:          2
                             - Non-local part of the GTH pseudopotential:      4


 SCF PARAMETERS         Density guess:                                   RESTART
                        --------------------------------------------------------
                        max_scf:                                              20
                        max_scf_history:                                       0
                        max_diis:                                              4
                        --------------------------------------------------------
                        eps_scf:                                        1.00E-07
                        eps_scf_history:                                0.00E+00
                        eps_diis:                                       1.00E-01
                        eps_eigval:                                     1.00E-05
                        --------------------------------------------------------
                        level_shift [a.u.]:                             0.000000
                        --------------------------------------------------------
                        Outer loop SCF in use 
                        No variables optimised in outer loop
                        eps_scf                                         1.00E-07
                        max_scf                                                5
                        No outer loop optimization
                        step_size                                       5.00E-01

 Spin 1

 Number of electrons:                                                         28
 Number of occupied orbitals:                                                 28
 Number of molecular orbitals:                                                28

 Spin 2

 Number of electrons:                                                         25
 Number of occupied orbitals:                                                 25
 Number of molecular orbitals:                                                25

 Number of orbital functions:                                                316
 Number of independent orbital functions:                                    316

 Extrapolation method: initial_guess


 SCF WAVEFUNCTION OPTIMIZATION

  ----------------------------------- OT ---------------------------------------
  Minimizer      : DIIS                : direct inversion
                                         in the iterative subspace
                                         using   7 DIIS vectors
                                         safer DIIS on
  Preconditioner : FULL_ALL            : diagonalization, state selective
  Precond_solver : DEFAULT
  stepsize       :    0.10000000                  energy_gap     :    0.08000000
  eps_taylor     :   0.10000E-15                  max_taylor     :             4
  ----------------------------------- OT ---------------------------------------

  Step     Update method      Time    Convergence         Total energy    Change
  ------------------------------------------------------------------------------
     1 OT DIIS     0.10E+00    1.2     0.00001616      -506.5449783323 -5.07E+02
     2 OT DIIS     0.10E+00    1.5     0.00000522      -506.5449785423 -2.10E-07
     3 OT DIIS     0.10E+00    1.4     0.00000310      -506.5449785718 -2.95E-08
     4 OT DIIS     0.10E+00    1.4     0.00000121      -506.5449785952 -2.35E-08
     5 OT DIIS     0.10E+00    1.4     0.00000081      -506.5449785983 -3.10E-09
     6 OT DIIS     0.10E+00    1.4     0.00000023      -506.5449786010 -2.62E-09
     7 OT DIIS     0.10E+00    1.4     0.00000012      -506.5449786012 -2.44E-10
     8 OT DIIS     0.10E+00    1.4     0.00000008      -506.5449786013 -7.65E-11

  *** SCF run converged in     8 steps ***


  Electronic density on regular grids:        -44.8702209000        8.1297791000
  Core density on regular grids:               53.0000000000        0.0000000000
  Hard and soft densities (Lebedev):          -59.0040471404      -50.8742652761
  Total Rho_soft + Rho1_hard - Rho1_soft      -53.0000027644
  Total charge density (r-space):              -0.0000027644
  Total Rho_soft + Rho0_soft (g-space):        -0.0000032320

  Overlap energy of the core charge distribution:               0.00000000000919
  Self energy of the core charge distribution:               -605.94787638889363
  Core Hamiltonian energy:                                     23.94824948034204
  Hartree energy:                                             206.19806416825114
  Exchange-correlation energy:                                -29.07704307766319

  GAPW| Exc from hard and soft atomic rho1:                   -23.10164940977389
  GAPW| local Eh = 1 center integrals:                        -78.56472337355085

  Total energy:                                              -506.54497860127918

  outer SCF iter =    1 RMS gradient =   0.80E-07 energy =       -506.5449786013
  outer SCF loop converged in   1 iterations or    8 steps


  Integrated absolute spin density  :                               2.8516703365
  Ideal and single determinant S**2 :                    3.750000       3.755485

 ENERGY| Total FORCE_EVAL ( QS ) energy [a.u.]:             -506.544978601279183

 -------------------------------------------------------------------------------
 -                                                                             -
 -                                DBCSR STATISTICS                             -
 -                                                                             -
 -------------------------------------------------------------------------------
 COUNTER                                    TOTAL       BLAS       SMM       ACC
 flops    25 x    25 x    25               250000       0.0%    100.0%      0.0%
 flops    28 x    28 x    28               351232       0.0%    100.0%      0.0%
 flops    88 x    88 x    25              3484800       0.0%    100.0%      0.0%
 flops    25 x    25 x    88              3630000       0.0%    100.0%      0.0%
 flops    88 x    88 x    28              3902976       0.0%    100.0%      0.0%
 flops    88 x    25 x    25              4510000       0.0%    100.0%      0.0%
 flops    57 x    88 x    25              4514400       0.0%    100.0%      0.0%
 flops    88 x    57 x    25              4514400       0.0%    100.0%      0.0%
 flops    28 x    28 x    88              4553472       0.0%    100.0%      0.0%
 flops    57 x    88 x    28              5056128       0.0%    100.0%      0.0%
 flops    88 x    57 x    28              5056128       0.0%    100.0%      0.0%
 flops    88 x    28 x    28              5657344       0.0%    100.0%      0.0%
 flops    25 x    25 x    57              9405000       0.0%    100.0%      0.0%
 flops    57 x    25 x    25             11685000       0.0%    100.0%      0.0%
 flops    28 x    28 x    57             11797632       0.0%    100.0%      0.0%
 flops    57 x    57 x    25             14620500       0.0%    100.0%      0.0%
 flops    57 x    28 x    28             14657664       0.0%    100.0%      0.0%
 flops    88 x    25 x    88             15875200       0.0%    100.0%      0.0%
 flops    57 x    57 x    28             16374960       0.0%    100.0%      0.0%
 flops    88 x    28 x    88             17346560       0.0%    100.0%      0.0%
 flops    88 x    25 x    57             41131200       0.0%    100.0%      0.0%
 flops    57 x    25 x    88             41131200       0.0%    100.0%      0.0%
 flops    88 x    28 x    57             44943360       0.0%    100.0%      0.0%
 flops    57 x    28 x    88             44943360       0.0%    100.0%      0.0%
 flops    57 x    25 x    57            106567200       0.0%    100.0%      0.0%
 flops    57 x    28 x    57            116444160       0.0%    100.0%      0.0%
 flops inhomo. stacks                           0       0.0%      0.0%      0.0%
 flops total                       552.403876E+06       0.0%    100.0%      0.0%
 flops max/rank                    166.838776E+06       0.0%    100.0%      0.0%
 matmuls inhomo. stacks                         0       0.0%      0.0%      0.0%
 matmuls total                               3051       0.0%    100.0%      0.0%
 number of processed stacks                  3051       0.0%    100.0%      0.0%
 average stack size                                     0.0       1.0       0.0
 marketing flops                   591.033344E+06
 -------------------------------------------------------------------------------
 # multiplications                            265
 max memory usage/rank             423.501824E+06
 # max total images/rank                        1
 # max 3D layers                                1
 # MPI messages exchanged                   95400
 MPI messages size (bytes):
  total size                       437.598720E+06
  min size                           0.000000E+00
  max size                          61.952000E+03
  average size                       4.586989E+03
 MPI breakdown and total messages size (bytes):
             size <=      128               76430                        0
       128 < size <=     8192                 570                  3212520
      8192 < size <=    32768               14755                279280960
     32768 < size <=   131072                3645                155105280
    131072 < size <=  4194304                   0                        0
   4194304 < size <= 16777216                   0                        0
  16777216 < size                               0                        0
 -------------------------------------------------------------------------------
 -                                                                             -
 -                      DBCSR MESSAGE PASSING PERFORMANCE                      -
 -                                                                             -
 -------------------------------------------------------------------------------
 ROUTINE             CALLS      AVE VOLUME [Bytes]
 MP_Bcast               27                     12.
 MP_Allreduce         1470                      9.
 MP_Alltoall          1225                   5680.
 MP_ISend             6352                   5589.
 MP_IRecv             6352                   3725.
 -------------------------------------------------------------------------------

 -------------------------------------------------------------------------------
 -                                                                             -
 -                                GRID STATISTICS                              -
 -                                                                             -
 -------------------------------------------------------------------------------
 LP    KERNEL             BACKEND                              COUNT     PERCENT
 2     collocate ortho    REF                                  20340      12.31%
 2     integrate ortho    REF                                  18080      10.94%
 1     collocate ortho    REF                                  16848      10.19%
 3     collocate ortho    REF                                  16416       9.93%
 1     integrate ortho    REF                                  14976       9.06%
 3     integrate ortho    REF                                  14592       8.83%
 4     collocate ortho    REF                                  13878       8.40%
 4     integrate ortho    REF                                  12336       7.46%
 5     collocate ortho    REF                                   7632       4.62%
 5     integrate ortho    REF                                   6784       4.10%
 0     collocate ortho    REF                                   5886       3.56%
 0     integrate ortho    REF                                   5232       3.17%
 6     collocate ortho    REF                                   3312       2.00%
 6     integrate ortho    REF                                   2944       1.78%
 2     collocate general  REF                                   1440       0.87%
 2     integrate general  REF                                   1440       0.87%
 7     collocate ortho    REF                                   1368       0.83%
 7     integrate ortho    REF                                   1216       0.74%
 8     collocate ortho    REF                                    288       0.17%
 8     integrate ortho    REF                                    256       0.15%
 -------------------------------------------------------------------------------

 MEMORY| Estimated peak process memory [MiB]                                 404

 -------------------------------------------------------------------------------
 -                                                                             -
 -                         MESSAGE PASSING PERFORMANCE                         -
 -                                                                             -
 -------------------------------------------------------------------------------

 ROUTINE             CALLS      AVE VOLUME [Bytes]
 MP_Group                4
 MP_Bcast              348                 632039.
 MP_Allreduce          860                 113447.
 MP_Sync                16
 MP_Alltoall           328                6072970.
 MP_ISendRecv         3570                 115968.
 MP_Wait              6020
 MP_comm_split           6
 MP_ISend             2200                 277004.
 MP_IRecv             2200                 277004.
 MP_Recv                 9                  12640.
 -------------------------------------------------------------------------------


 -------------------------------------------------------------------------------
 -                                                                             -
 -                           R E F E R E N C E S                               -
 -                                                                             -
 -------------------------------------------------------------------------------
 
 CP2K version 10.0 (Development Version), the CP2K developers group (2022).
 CP2K is freely available from https://www.cp2k.org/ .

 Kuehne,Thomas D.; Iannuzzi,Marcella; Del Ben,Mauro;
 Rybkin,Vladimir V.; Seewald,Patrick; Stein,Frederick; Laino,Teodoro;
 Khaliullin,Rustam Z.; Schuett,Ole; Schiffmann,Florian; Golze,Dorothea;
 Wilhelm,Jan; Chulkov,Sergey; Bani-Hashemian,Mohammad Hossein;
 Weber,Valery; Borstnik,Urban; Taillefumier,Mathieu;
 Jakobovits,Alice Shoshana; Lazzaro,Alfio; Pabst,Hans; Mueller,Tiziano;
 Schade,Robert; Guidon,Manuel; Andermatt,Samuel; Holmberg,Nico;
 Schenter,Gregory K.; Hehn,Anna; Bussy,Augustin; Belleflamme,Fabian;
 Tabacchi,Gloria; Gloess,Andreas; Lass,Michael; Bethune,Iain;
 Mundy,Christopher J.; Plessl,Christian; Watkins,Matt;
 VandeVondele,Joost; Krack,Matthias; Hutter,Juerg. 
 The Journal of Chemical Physics, 152 (19), (2020). 
 CP2K: An electronic structure and molecular dynamics software package -
 Quickstep: Efficient and accurate electronic structure calculations.
 https://doi.org/10.1063/5.0007045

 Schuett, Ole; Messmer, Peter; Hutter, Juerg; VandeVondele, Joost. 
 Electronic Structure Calculations on Graphics Processing Units, John
 Wiley & Sons, Ltd, 173-190 (2016). 
 GPU-Accelerated Sparse Matrix-Matrix Multiplication for
 Linear Scaling Density Functional Theory.
 https://doi.org/10.1002/9781118670712.ch8

 Heinecke, A; Henry, G; Hutchinson, M; Pabst, H. 
 Proceedings of Intl. Supercomputing Conference, 981-991 (2016). 
 LIBXSMM: Accelerating Small Matrix Multiplications
 by Runtime Code Generation.
 https://doi.org/10.1109/SC.2016.83

 Borstnik, U; VandeVondele, J; Weber, V; Hutter, J. 
 PARALLEL COMPUTING, 40 (5-6), 47-58 (2014). 
 Sparse matrix multiplication: The distributed block-compressed sparse
 row library.
 https://doi.org/10.1016/j.parco.2014.03.012

 Hutter, J; Iannuzzi, M; Schiffmann, F; VandeVondele, J. 
 WIREs Comput Mol Sci., 4 (1), 15-25 (2014). 
 CP2K: atomistic simulations of condensed matter systems.
 https://doi.org/10.1002/wcms.1159

 Marek, A; Blum, V; Johanni, R; Havu, V; Lang, B; Auckenthaler, T;
 Heinecke, A; Bungartz, H; Lederer, H. 
 Journal of Physics: Condensed Matter, 26 (21), (2014). 
 The ELPA library: scalable parallel eigenvalue solutions for
 electronic structure
 theory and computational science.
 https://doi.org/10.1088/0953-8984/26/21/213201

 Krack, M. 
 THEORETICAL CHEMISTRY ACCOUNTS, 114 (1-3), 145-152 (2005). 
 Pseudopotentials for H to Kr optimized for gradient-corrected
 exchange-correlation functionals.
 https://doi.org/10.1007/s00214-005-0655-y

 Frigo, M; Johnson, SG. 
 PROCEEDINGS OF THE IEEE, 93 (2), 216-231 (2005). 
 The design and implementation of FFTW3.
 https://doi.org/10.1109/JPROC.2004.840301

 VandeVondele, J; Hutter, J. 
 JOURNAL OF CHEMICAL PHYSICS, 118 (10), 4365-4369 (2003). 
 An efficient orbital transformation method for electronic structure
 calculations.
 https://doi.org/10.1063/1.1543154

 Lippert, G; Hutter, J; Parrinello, M. 
 THEORETICAL CHEMISTRY ACCOUNTS, 103 (2), 124-140 (1999). 
 The Gaussian and augmented-plane-wave density functional method for ab
 initio molecular dynamics simulations.
 https://doi.org/10.1007/s002140050523

 Krack, M; Parrinello, M. 
 PHYSICAL CHEMISTRY CHEMICAL PHYSICS, 2 (10), 2105-2112 (2000). 
 All-electron ab-initio molecular dynamics.
 https://doi.org/10.1039/b001167n

 Hartwigsen, C; Goedecker, S; Hutter, J. 
 PHYSICAL REVIEW B, 58 (7), 3641-3662 (1998). 
 Relativistic separable dual-space Gaussian pseudopotentials from H to Rn.
 https://doi.org/10.1103/PhysRevB.58.3641

 Perdew, JP; Burke, K; Ernzerhof, M. 
 PHYSICAL REVIEW LETTERS, 77 (18), 3865-3868 (1996). 
 Generalized gradient approximation made simple.
 https://doi.org/10.1103/PhysRevLett.77.3865

 Goedecker, S; Teter, M; Hutter, J. 
 PHYSICAL REVIEW B, 54 (3), 1703-1710 (1996). 
 Separable dual-space Gaussian pseudopotentials.
 https://doi.org/10.1103/PhysRevB.54.1703


 -------------------------------------------------------------------------------
 -                                                                             -
 -                                T I M I N G                                  -
 -                                                                             -
 -------------------------------------------------------------------------------
 SUBROUTINE                       CALLS  ASD         SELF TIME        TOTAL TIME
                                MAXIMUM       AVERAGE  MAXIMUM  AVERAGE  MAXIMUM
 CP2K                                 1  1.0    0.009    0.031   12.676   12.678
 qs_energies                          1  2.0    0.000    0.000   12.429   12.429
 scf_env_do_scf                       1  3.0    0.000    0.000   11.553   11.553
 scf_env_do_scf_inner_loop            8  4.0    0.000    0.000   10.362   10.362
 qs_ks_update_qs_env                  9  5.0    0.000    0.000    9.036    9.037
 rebuild_ks_matrix                    8  6.0    0.000    0.000    9.034    9.036
 qs_ks_build_kohn_sham_matrix         8  7.0    0.002    0.002    9.034    9.036
 pw_transfer                        306 10.2    0.030    0.037    3.857    3.980
 fft_wrap_pw1pw2                    282 11.3    0.004    0.005    3.807    3.932
 fft_wrap_pw1pw2_300                180 12.8    0.250    0.283    3.541    3.661
 qs_vxc_create                        8  8.0    0.000    0.000    3.378    3.378
 xc_vxc_pw_create                     8  9.0    0.055    0.074    3.378    3.378
 fft3d_ps                           282 13.3    1.504    1.762    2.943    3.141
 qs_rho_update_rho                    9  5.0    0.000    0.000    2.424    2.425
 rs_pw_transfer                     152  9.4    0.003    0.005    2.184    2.342
 xc_pw_derive                        96 11.0    0.001    0.001    2.138    2.251
 calculate_rho_elec                  18  6.0    0.013    0.014    2.174    2.174
 prepare_gapw_den                     8  8.0    0.000    0.000    1.865    1.879
 density_rs2pw                       18  7.0    0.001    0.001    1.668    1.820
 xc_rho_set_and_dset_create           8 10.0    0.044    0.057    1.751    1.783
 sum_up_and_integrate                 8  8.0    0.008    0.011    1.725    1.726
 integrate_v_rspace                  16  9.0    0.000    0.001    1.716    1.718
 xc_pw_divergence                    16 10.0    0.001    0.001    1.497    1.600
 mp_alltoall_z22v                   282 15.3    1.111    1.411    1.111    1.411
 potential_pw2rs                     16 10.0    0.001    0.001    1.317    1.319
 mp_sum_d                           770  4.7    1.077    1.210    1.077    1.210
 init_scf_loop                        1  4.0    0.000    0.000    1.190    1.190
 calculate_rho_atom                  16  9.0    0.251    1.139    0.251    1.139
 yz_to_x                            144 13.8    0.149    0.202    0.785    0.965
 rs_pw_transfer_RS2PW_300            26  9.6    0.390    0.500    0.791    0.952
 calculate_rho0_atom                 16  9.0    0.716    0.912    0.716    0.912
 calculate_vxc_atom                   8  8.0    0.012    0.065    0.880    0.880
 mp_waitany                        2200 11.4    0.604    0.815    0.604    0.815
 gaVxcgb_GC                           8  9.0    0.071    0.791    0.071    0.791
 rs_pw_transfer_PW2RS_300            24 11.3    0.409    0.490    0.749    0.789
 x_to_yz                            138 14.8    0.167    0.194    0.642    0.741
 xc_functional_eval                  24 10.8    0.000    0.000    0.673    0.713
 pbe_lsd_eval                        24 11.8    0.673    0.713    0.673    0.713
 grid_collocate_task_list            18  7.0    0.400    0.657    0.400    0.657
 integrate_vhg0_rspace                8  8.0    0.084    0.136    0.607    0.616
 mp_sum_dv                           54 11.8    0.465    0.616    0.465    0.616
 qs_energies_init_hamiltonians        1  3.0    0.000    0.000    0.598    0.598
 qs_env_update_s_mstruct              1  4.0    0.000    0.000    0.530    0.598
 qs_create_task_list                  1  5.0    0.000    0.000    0.529    0.595
 generate_qs_task_list                1  6.0    0.000    0.002    0.529    0.595
 distribute_tasks                     1  7.0    0.000    0.000    0.528    0.595
 get_current_loads                   10  8.8    0.000    0.000    0.527    0.594
 load_balance_distributed             1  8.0    0.000    0.000    0.527    0.594
 mp_alltoall_l                       11  9.7    0.527    0.594    0.527    0.594
 compute_load_list                    2  9.0    0.000    0.000    0.527    0.593
 build_core_hamiltonian_matrix        1  4.0    0.000    0.000    0.067    0.591
 mp_waitall_1                     20780 13.5    0.464    0.584    0.464    0.584
 mp_sum_dm                          220  7.4    0.460    0.513    0.460    0.513
 put_rho0_on_grid                     8  9.0    0.007    0.010    0.432    0.446
 dbcsr_multiply_generic             265  9.7    0.007    0.007    0.415    0.436
 mp_alltoall_d11v                   355 10.9    0.237    0.411    0.237    0.411
 rs_gather_matrices                  16 10.0    0.000    0.003    0.225    0.399
 grid_integrate_task_list            16 10.0    0.175    0.398    0.175    0.398
 pw_gather_p                        144 12.8    0.306    0.370    0.306    0.370
 rs_pw_transfer_PW2RS_100            16 12.0    0.060    0.069    0.290    0.336
 pw_scatter_p                       138 13.8    0.294    0.330    0.294    0.330
 build_core_ae                        1  5.0    0.028    0.296    0.028    0.296
 init_scf_run                         1  3.0    0.000    0.000    0.272    0.272
 scf_env_initial_rho_setup            1  4.0    0.000    0.000    0.272    0.272
 build_core_ppl                       1  5.0    0.023    0.265    0.023    0.265
 -------------------------------------------------------------------------------

 The number of warnings for this run is : 0
 
 -------------------------------------------------------------------------------
  **** **** ******  **  PROGRAM ENDED AT                 2022-05-31 12:30:48.656
 ***** ** ***  *** **   PROGRAM RAN ON                                   tcopt10
 **    ****   ******    PROGRAM RAN BY                                    hutter
 ***** **    ** ** **   PROGRAM PROCESS ID                                 82269
  **** **  *******  **  PROGRAM STOPPED IN /data/hutter/GITHUB/BASIS/scMOLOPT/PB
                                           E/Rh
