 DBCSR| CPU Multiplication driver                                           XSMM
 DBCSR| Multrec recursion limit                                              512
 DBCSR| Multiplication stack size                                           1000
 DBCSR| Maximum elements for images                                    UNLIMITED
 DBCSR| Multiplicative factor virtual images                                   1
 DBCSR| Use multiplication densification                                       T
 DBCSR| Multiplication size stacks                                             3
 DBCSR| Use memory pool for CPU allocation                                     F
 DBCSR| Number of 3D layers                                               SINGLE
 DBCSR| Use MPI memory allocation                                              F
 DBCSR| Use RMA algorithm                                                      F
 DBCSR| Use Communication thread                                               T
 DBCSR| Communication thread load                                             87
 DBCSR| MPI: My node id                                                        0
 DBCSR| MPI: Number of nodes                                                  36
 DBCSR| OMP: Current number of threads                                         1
 DBCSR| OMP: Max number of threads                                             1
 DBCSR| Split modifier for TAS multiplication algorithm                  1.0E+00


  **** **** ******  **  PROGRAM STARTED AT               2022-05-31 12:35:27.809
 ***** ** ***  *** **   PROGRAM STARTED ON                               tcopt10
 **    ****   ******    PROGRAM STARTED BY                                hutter
 ***** **    ** ** **   PROGRAM PROCESS ID                                 83179
  **** **  *******  **  PROGRAM STARTED IN /data/hutter/GITHUB/BASIS/scMOLOPT/PB
                                           E/Rh

 CP2K| version string:                   CP2K version 10.0 (Development Version)
 CP2K| source code revision number:                                  git:d19b00a
 CP2K| cp2kflags: omp libint fftw3 libxc elpa parallel mpi3 scalapack cosma xsmm
 CP2K|             spglib sirius libvori libbqb
 CP2K| is freely available from                            https://www.cp2k.org/
 CP2K| Program compiled at                      Wed 18 May 2022 12:15:59 PM CEST
 CP2K| Program compiled on                                               tcopt10
 CP2K| Program compiled for                                                local
 CP2K| Data directory path                   /data/hutter/GITHUB/TDLRI/cp2k/data
 CP2K| Input file name                                              RhF6-ref.inp

 GLOBAL| Force Environment number                                              1
 GLOBAL| Basis set file name                                        ../def2QZVPP
 GLOBAL| Potential file name                                        ../POTENTIAL
 GLOBAL| MM Potential file name                                     MM_POTENTIAL
 GLOBAL| Coordinate file name                                      __STD_INPUT__
 GLOBAL| Method name                                                        CP2K
 GLOBAL| Project name                                                    refRhF6
 GLOBAL| Run type                                                         ENERGY
 GLOBAL| FFT library                                                       FFTW3
 GLOBAL| Diagonalization library                                            ELPA
 GLOBAL| Minimum number of eigenvectors for ELPA usage                        16
 GLOBAL| Orthonormality check for eigenvectors                          DISABLED
 GLOBAL| Matrix multiplication library                                     COSMA
 GLOBAL| All-to-all communication in single precision                          F
 GLOBAL| FFTs using library dependent lengths                                  F
 GLOBAL| Grid backend                                                       AUTO
 GLOBAL| Global print level                                                  LOW
 GLOBAL| MPI I/O enabled                                                       T
 GLOBAL| Total number of message passing processes                            36
 GLOBAL| Number of threads for this process                                    1
 GLOBAL| This output is from process                                           0
 GLOBAL| Stack size for threads created by OpenMP (OMP_STACKSIZE)        default
 GLOBAL| CPU model name                          AMD EPYC 7401 24-Core Processor
 GLOBAL| CPUID                                                              1002

 MEMORY| system memory details [Kb]
 MEMORY|                        rank 0           min           max       average
 MEMORY| MemTotal            263969132     263969132     263969132     263969132
 MEMORY| MemFree             237245172     237245172     237245172     237245172
 MEMORY| Buffers                  2836          2836          2836          2836
 MEMORY| Cached               20264604      20264600      20264604      20264601
 MEMORY| Slab                  1471768       1471768       1471768       1471768
 MEMORY| SReclaimable           877796        877796        877796        877796
 MEMORY| MemLikelyFree       258390408     258390404     258390408     258390405


 GENERATE|  Preliminary Number of Bonds generated:                             0
 GENERATE|  Achieved consistency in connectivity generation.

 *******************************************************************************
 *******************************************************************************
 **                                                                           **
 **     #####                         ##              ##                      **
 **    ##   ##            ##          ##              ##                      **
 **   ##     ##                       ##            ######                    **
 **   ##     ##  ##   ##  ##   #####  ##  ##   ####   ##    #####    #####    **
 **   ##     ##  ##   ##  ##  ##      ## ##   ##      ##   ##   ##  ##   ##   **
 **   ##  ## ##  ##   ##  ##  ##      ####     ###    ##   ######   ######    **
 **    ##  ###   ##   ##  ##  ##      ## ##      ##   ##   ##       ##        **
 **     #######   #####   ##   #####  ##  ##  ####    ##    #####   ##        **
 **           ##                                                    ##        **
 **                                                                           **
 **                                                ... make the atoms dance   **
 **                                                                           **
 **            Copyright (C) by CP2K developers group (2000-2022)             **
 **                      J. Chem. Phys. 152, 194103 (2020)                    **
 **                                                                           **
 *******************************************************************************


 TOTAL NUMBERS AND MAXIMUM NUMBERS

  Total number of            - Atomic kinds:                                   2
                             - Atoms:                                          7
                             - Shell sets:                                   124
                             - Shells:                                       124
                             - Primitive Cartesian functions:                204
                             - Cartesian basis functions:                    548
                             - Spherical basis functions:                    430

  Maximum angular momentum of- Orbital basis functions:                        4
                             - Local part of the GTH pseudopotential:          2
                             - Non-local part of the GTH pseudopotential:      4


 SCF PARAMETERS         Density guess:                                   RESTART
                        --------------------------------------------------------
                        max_scf:                                              20
                        max_scf_history:                                       0
                        max_diis:                                              4
                        --------------------------------------------------------
                        eps_scf:                                        3.00E-07
                        eps_scf_history:                                0.00E+00
                        eps_diis:                                       1.00E-01
                        eps_eigval:                                     1.00E-05
                        --------------------------------------------------------
                        level_shift [a.u.]:                             0.000000
                        --------------------------------------------------------
                        Outer loop SCF in use 
                        No variables optimised in outer loop
                        eps_scf                                         3.00E-07
                        max_scf                                                5
                        No outer loop optimization
                        step_size                                       5.00E-01

 Spin 1

 Number of electrons:                                                         36
 Number of occupied orbitals:                                                 36
 Number of molecular orbitals:                                                36

 Spin 2

 Number of electrons:                                                         35
 Number of occupied orbitals:                                                 35
 Number of molecular orbitals:                                                35

 Number of orbital functions:                                                430
 Number of independent orbital functions:                                    430

 Extrapolation method: initial_guess


 SCF WAVEFUNCTION OPTIMIZATION

  ----------------------------------- OT ---------------------------------------
  Minimizer      : DIIS                : direct inversion
                                         in the iterative subspace
                                         using   7 DIIS vectors
                                         safer DIIS on
  Preconditioner : FULL_ALL            : diagonalization, state selective
  Precond_solver : DEFAULT
  stepsize       :    0.10000000                  energy_gap     :    0.08000000
  eps_taylor     :   0.10000E-15                  max_taylor     :             4
  ----------------------------------- OT ---------------------------------------

  Step     Update method      Time    Convergence         Total energy    Change
  ------------------------------------------------------------------------------
     1 OT DIIS     0.10E+00    1.4     0.00000022      -706.1559851675 -7.06E+02

  *** SCF run converged in     1 steps ***


  Electronic density on regular grids:        -58.0149707994       12.9850292006
  Core density on regular grids:               71.0000000000        0.0000000000
  Hard and soft densities (Lebedev):          -83.1201493213      -70.1351155683
  Total Rho_soft + Rho1_hard - Rho1_soft      -71.0000045524
  Total charge density (r-space):              -0.0000045524
  Total Rho_soft + Rho0_soft (g-space):        -0.0000051713

  Overlap energy of the core charge distribution:               0.00000000006941
  Self energy of the core charge distribution:               -815.07465575848994
  Core Hamiltonian energy:                                     14.18559992325225
  Hartree energy:                                             233.85511532129289
  Exchange-correlation energy:                                -37.25958124573002

  GAPW| Exc from hard and soft atomic rho1:                   -35.52446711700033
  GAPW| local Eh = 1 center integrals:                        -66.33799629092596

  Total energy:                                              -706.15598516753175

  outer SCF iter =    1 RMS gradient =   0.22E-06 energy =       -706.1559851675
  outer SCF loop converged in   1 iterations or    1 steps


  Integrated absolute spin density  :                               2.0602509342
  Ideal and single determinant S**2 :                    0.750000       1.752021

 ENERGY| Total FORCE_EVAL ( QS ) energy [a.u.]:             -706.155985167531753

 -------------------------------------------------------------------------------
 -                                                                             -
 -                                DBCSR STATISTICS                             -
 -                                                                             -
 -------------------------------------------------------------------------------
 COUNTER                                    TOTAL       BLAS       SMM       ACC
 flops     3 x     3 x     3                   54       0.0%    100.0%      0.0%
 flops     4 x     4 x     4                  128       0.0%    100.0%      0.0%
 flops     3 x     3 x    32                  576       0.0%    100.0%      0.0%
 flops     3 x    32 x     3                  576       0.0%    100.0%      0.0%
 flops    32 x     3 x     3                  576       0.0%    100.0%      0.0%
 flops     4 x     4 x    32                 1024       0.0%    100.0%      0.0%
 flops     4 x    32 x     4                 1024       0.0%    100.0%      0.0%
 flops    32 x     4 x     4                 1024       0.0%    100.0%      0.0%
 flops    32 x    32 x     3                 6144       0.0%    100.0%      0.0%
 flops     3 x    32 x    32                 6144       0.0%    100.0%      0.0%
 flops    32 x     3 x    32                 6144       0.0%    100.0%      0.0%
 flops     3 x     3 x    88                 7920       0.0%    100.0%      0.0%
 flops    32 x    32 x     4                 8192       0.0%    100.0%      0.0%
 flops     4 x    32 x    32                 8192       0.0%    100.0%      0.0%
 flops    32 x     4 x    32                 8192       0.0%    100.0%      0.0%
 flops    88 x     3 x     3                 9504       0.0%    100.0%      0.0%
 flops   114 x     3 x     3                10260       0.0%    100.0%      0.0%
 flops     3 x     3 x   114                10260       0.0%    100.0%      0.0%
 flops     4 x     4 x    88                14080       0.0%    100.0%      0.0%
 flops    88 x     4 x     4                16896       0.0%    100.0%      0.0%
 flops   114 x     4 x     4                18240       0.0%    100.0%      0.0%
 flops     4 x     4 x   114                18240       0.0%    100.0%      0.0%
 flops     3 x     3 x    57                20520       0.0%    100.0%      0.0%
 flops    57 x     3 x     3                26676       0.0%    100.0%      0.0%
 flops     4 x     4 x    57                36480       0.0%    100.0%      0.0%
 flops    57 x     4 x     4                47424       0.0%    100.0%      0.0%
 flops    88 x    32 x     3                84480       0.0%    100.0%      0.0%
 flops     3 x    32 x    88                84480       0.0%    100.0%      0.0%
 flops    32 x     3 x    88                84480       0.0%    100.0%      0.0%
 flops    88 x     3 x    32                84480       0.0%    100.0%      0.0%
 flops    88 x    88 x     3                92928       0.0%    100.0%      0.0%
 flops   114 x     3 x    32               109440       0.0%    100.0%      0.0%
 flops   114 x    32 x     3               109440       0.0%    100.0%      0.0%
 flops     3 x    32 x   114               109440       0.0%    100.0%      0.0%
 flops    32 x     3 x   114               109440       0.0%    100.0%      0.0%
 flops    88 x    32 x     4               112640       0.0%    100.0%      0.0%
 flops     4 x    32 x    88               112640       0.0%    100.0%      0.0%
 flops    32 x     4 x    88               112640       0.0%    100.0%      0.0%
 flops    88 x     4 x    32               112640       0.0%    100.0%      0.0%
 flops    88 x    88 x     4               123904       0.0%    100.0%      0.0%
 flops    32 x    32 x    32               131072       0.0%    100.0%      0.0%
 flops   114 x     4 x    32               145920       0.0%    100.0%      0.0%
 flops   114 x    32 x     4               145920       0.0%    100.0%      0.0%
 flops     4 x    32 x   114               145920       0.0%    100.0%      0.0%
 flops    32 x     4 x   114               145920       0.0%    100.0%      0.0%
 flops    57 x    88 x     3               180576       0.0%    100.0%      0.0%
 flops    88 x    57 x     3               180576       0.0%    100.0%      0.0%
 flops    57 x     3 x    32               218880       0.0%    100.0%      0.0%
 flops    57 x    32 x     3               218880       0.0%    100.0%      0.0%
 flops     3 x    32 x    57               218880       0.0%    100.0%      0.0%
 flops    32 x     3 x    57               218880       0.0%    100.0%      0.0%
 flops   114 x     3 x    88               240768       0.0%    100.0%      0.0%
 flops    57 x    88 x     4               240768       0.0%    100.0%      0.0%
 flops    88 x    57 x     4               240768       0.0%    100.0%      0.0%
 flops    88 x     3 x   114               240768       0.0%    100.0%      0.0%
 flops    57 x     4 x    32               291840       0.0%    100.0%      0.0%
 flops    57 x    32 x     4               291840       0.0%    100.0%      0.0%
 flops     4 x    32 x    57               291840       0.0%    100.0%      0.0%
 flops    32 x     4 x    57               291840       0.0%    100.0%      0.0%
 flops   114 x     3 x   114               311904       0.0%    100.0%      0.0%
 flops   114 x     4 x    88               321024       0.0%    100.0%      0.0%
 flops    88 x     4 x   114               321024       0.0%    100.0%      0.0%
 flops   114 x     4 x   114               415872       0.0%    100.0%      0.0%
 flops    88 x     3 x    88               604032       0.0%    100.0%      0.0%
 flops   114 x     3 x    57               623808       0.0%    100.0%      0.0%
 flops    57 x     3 x   114               623808       0.0%    100.0%      0.0%
 flops    88 x     4 x    88               743424       0.0%    100.0%      0.0%
 flops    57 x    57 x     3               818748       0.0%    100.0%      0.0%
 flops   114 x     4 x    57               831744       0.0%    100.0%      0.0%
 flops    57 x     4 x   114               831744       0.0%    100.0%      0.0%
 flops    57 x    57 x     4              1091664       0.0%    100.0%      0.0%
 flops    32 x    32 x    88              1802240       0.0%    100.0%      0.0%
 flops    88 x    88 x    32              1982464       0.0%    100.0%      0.0%
 flops    57 x     3 x    88              2106720       0.0%    100.0%      0.0%
 flops    88 x     3 x    57              2106720       0.0%    100.0%      0.0%
 flops    88 x    32 x    32              2162688       0.0%    100.0%      0.0%
 flops    32 x    32 x   114              2334720       0.0%    100.0%      0.0%
 flops   114 x    32 x    32              2334720       0.0%    100.0%      0.0%
 flops    57 x     4 x    88              2568192       0.0%    100.0%      0.0%
 flops    88 x     4 x    57              2568192       0.0%    100.0%      0.0%
 flops    57 x    88 x    32              3852288       0.0%    100.0%      0.0%
 flops    88 x    57 x    32              3852288       0.0%    100.0%      0.0%
 flops    32 x    32 x    57              4669440       0.0%    100.0%      0.0%
 flops    88 x    32 x   114              5136384       0.0%    100.0%      0.0%
 flops   114 x    32 x    88              5136384       0.0%    100.0%      0.0%
 flops    57 x    32 x    32              6070272       0.0%    100.0%      0.0%
 flops   114 x    32 x   114              6653952       0.0%    100.0%      0.0%
 flops    57 x     3 x    57              7563672       0.0%    100.0%      0.0%
 flops    57 x     4 x    57              9149184       0.0%    100.0%      0.0%
 flops    88 x    32 x    88             12390400       0.0%    100.0%      0.0%
 flops   114 x    32 x    57             13307904       0.0%    100.0%      0.0%
 flops    57 x    32 x   114             13307904       0.0%    100.0%      0.0%
 flops    57 x    57 x    32             17466624       0.0%    100.0%      0.0%
 flops    88 x    32 x    57             43017216       0.0%    100.0%      0.0%
 flops    57 x    32 x    88             43017216       0.0%    100.0%      0.0%
 flops    57 x    32 x    57            153872640       0.0%    100.0%      0.0%
 flops inhomo. stacks                           0       0.0%      0.0%      0.0%
 flops total                       381.778638E+06       0.0%    100.0%      0.0%
 flops max/rank                     82.913568E+06       0.0%    100.0%      0.0%
 matmuls inhomo. stacks                         0       0.0%      0.0%      0.0%
 matmuls total                               2990       0.0%    100.0%      0.0%
 number of processed stacks                  2528       0.0%    100.0%      0.0%
 average stack size                                     0.0       1.2       0.0
 marketing flops                   406.720128E+06
 -------------------------------------------------------------------------------
 # multiplications                             55
 max memory usage/rank             425.291776E+06
 # max total images/rank                        1
 # max 3D layers                                1
 # MPI messages exchanged                   19800
 MPI messages size (bytes):
  total size                       225.369216E+06
  min size                           0.000000E+00
  max size                         103.968000E+03
  average size                      11.382283E+03
 MPI breakdown and total messages size (bytes):
             size <=      128               11180                     8000
       128 < size <=     8192                2170                  4685200
      8192 < size <=    32768                3950                 87760000
     32768 < size <=   131072                2500                132916000
    131072 < size <=  4194304                   0                        0
   4194304 < size <= 16777216                   0                        0
  16777216 < size                               0                        0
 -------------------------------------------------------------------------------
 -                                                                             -
 -                      DBCSR MESSAGE PASSING PERFORMANCE                      -
 -                                                                             -
 -------------------------------------------------------------------------------
 ROUTINE             CALLS      AVE VOLUME [Bytes]
 MP_Bcast               97                     12.
 MP_Allreduce          464                     16.
 MP_Alltoall           609                  10366.
 MP_ISend             1312                   7563.
 MP_IRecv             1312                   7697.
 -------------------------------------------------------------------------------

 -------------------------------------------------------------------------------
 -                                                                             -
 -                                GRID STATISTICS                              -
 -                                                                             -
 -------------------------------------------------------------------------------
 LP    KERNEL             BACKEND                              COUNT     PERCENT
 2     collocate ortho    REF                                   6584      14.93%
 3     collocate ortho    REF                                   5640      12.79%
 1     collocate ortho    REF                                   5616      12.73%
 4     collocate ortho    REF                                   4776      10.83%
 2     integrate ortho    REF                                   3292       7.46%
 3     integrate ortho    REF                                   2820       6.39%
 1     integrate ortho    REF                                   2808       6.37%
 5     collocate ortho    REF                                   2696       6.11%
 4     integrate ortho    REF                                   2388       5.41%
 0     collocate ortho    REF                                   1916       4.34%
 5     integrate ortho    REF                                   1348       3.06%
 6     collocate ortho    REF                                   1140       2.58%
 0     integrate ortho    REF                                    958       2.17%
 6     integrate ortho    REF                                    570       1.29%
 7     collocate ortho    REF                                    568       1.29%
 7     integrate ortho    REF                                    284       0.64%
 2     collocate general  REF                                    252       0.57%
 2     integrate general  REF                                    252       0.57%
 8     collocate ortho    REF                                    136       0.31%
 8     integrate ortho    REF                                     68       0.15%
 -------------------------------------------------------------------------------

 MEMORY| Estimated peak process memory [MiB]                                 406

 -------------------------------------------------------------------------------
 -                                                                             -
 -                         MESSAGE PASSING PERFORMANCE                         -
 -                                                                             -
 -------------------------------------------------------------------------------

 ROUTINE             CALLS      AVE VOLUME [Bytes]
 MP_Group                4
 MP_Bcast              185                1146471.
 MP_Allreduce          549                  31688.
 MP_Sync                16
 MP_Alltoall            62                4679052.
 MP_ISendRecv          630                 115968.
 MP_Wait              1022
 MP_comm_split           6
 MP_ISend              352                 277004.
 MP_IRecv              352                 277004.
 MP_Recv                10                  20640.
 -------------------------------------------------------------------------------


 -------------------------------------------------------------------------------
 -                                                                             -
 -                           R E F E R E N C E S                               -
 -                                                                             -
 -------------------------------------------------------------------------------
 
 CP2K version 10.0 (Development Version), the CP2K developers group (2022).
 CP2K is freely available from https://www.cp2k.org/ .

 Kuehne,Thomas D.; Iannuzzi,Marcella; Del Ben,Mauro;
 Rybkin,Vladimir V.; Seewald,Patrick; Stein,Frederick; Laino,Teodoro;
 Khaliullin,Rustam Z.; Schuett,Ole; Schiffmann,Florian; Golze,Dorothea;
 Wilhelm,Jan; Chulkov,Sergey; Bani-Hashemian,Mohammad Hossein;
 Weber,Valery; Borstnik,Urban; Taillefumier,Mathieu;
 Jakobovits,Alice Shoshana; Lazzaro,Alfio; Pabst,Hans; Mueller,Tiziano;
 Schade,Robert; Guidon,Manuel; Andermatt,Samuel; Holmberg,Nico;
 Schenter,Gregory K.; Hehn,Anna; Bussy,Augustin; Belleflamme,Fabian;
 Tabacchi,Gloria; Gloess,Andreas; Lass,Michael; Bethune,Iain;
 Mundy,Christopher J.; Plessl,Christian; Watkins,Matt;
 VandeVondele,Joost; Krack,Matthias; Hutter,Juerg. 
 The Journal of Chemical Physics, 152 (19), (2020). 
 CP2K: An electronic structure and molecular dynamics software package -
 Quickstep: Efficient and accurate electronic structure calculations.
 https://doi.org/10.1063/5.0007045

 Schuett, Ole; Messmer, Peter; Hutter, Juerg; VandeVondele, Joost. 
 Electronic Structure Calculations on Graphics Processing Units, John
 Wiley & Sons, Ltd, 173-190 (2016). 
 GPU-Accelerated Sparse Matrix-Matrix Multiplication for
 Linear Scaling Density Functional Theory.
 https://doi.org/10.1002/9781118670712.ch8

 Heinecke, A; Henry, G; Hutchinson, M; Pabst, H. 
 Proceedings of Intl. Supercomputing Conference, 981-991 (2016). 
 LIBXSMM: Accelerating Small Matrix Multiplications
 by Runtime Code Generation.
 https://doi.org/10.1109/SC.2016.83

 Borstnik, U; VandeVondele, J; Weber, V; Hutter, J. 
 PARALLEL COMPUTING, 40 (5-6), 47-58 (2014). 
 Sparse matrix multiplication: The distributed block-compressed sparse
 row library.
 https://doi.org/10.1016/j.parco.2014.03.012

 Hutter, J; Iannuzzi, M; Schiffmann, F; VandeVondele, J. 
 WIREs Comput Mol Sci., 4 (1), 15-25 (2014). 
 CP2K: atomistic simulations of condensed matter systems.
 https://doi.org/10.1002/wcms.1159

 Marek, A; Blum, V; Johanni, R; Havu, V; Lang, B; Auckenthaler, T;
 Heinecke, A; Bungartz, H; Lederer, H. 
 Journal of Physics: Condensed Matter, 26 (21), (2014). 
 The ELPA library: scalable parallel eigenvalue solutions for
 electronic structure
 theory and computational science.
 https://doi.org/10.1088/0953-8984/26/21/213201

 Krack, M. 
 THEORETICAL CHEMISTRY ACCOUNTS, 114 (1-3), 145-152 (2005). 
 Pseudopotentials for H to Kr optimized for gradient-corrected
 exchange-correlation functionals.
 https://doi.org/10.1007/s00214-005-0655-y

 Frigo, M; Johnson, SG. 
 PROCEEDINGS OF THE IEEE, 93 (2), 216-231 (2005). 
 The design and implementation of FFTW3.
 https://doi.org/10.1109/JPROC.2004.840301

 VandeVondele, J; Hutter, J. 
 JOURNAL OF CHEMICAL PHYSICS, 118 (10), 4365-4369 (2003). 
 An efficient orbital transformation method for electronic structure
 calculations.
 https://doi.org/10.1063/1.1543154

 Lippert, G; Hutter, J; Parrinello, M. 
 THEORETICAL CHEMISTRY ACCOUNTS, 103 (2), 124-140 (1999). 
 The Gaussian and augmented-plane-wave density functional method for ab
 initio molecular dynamics simulations.
 https://doi.org/10.1007/s002140050523

 Krack, M; Parrinello, M. 
 PHYSICAL CHEMISTRY CHEMICAL PHYSICS, 2 (10), 2105-2112 (2000). 
 All-electron ab-initio molecular dynamics.
 https://doi.org/10.1039/b001167n

 Hartwigsen, C; Goedecker, S; Hutter, J. 
 PHYSICAL REVIEW B, 58 (7), 3641-3662 (1998). 
 Relativistic separable dual-space Gaussian pseudopotentials from H to Rn.
 https://doi.org/10.1103/PhysRevB.58.3641

 Perdew, JP; Burke, K; Ernzerhof, M. 
 PHYSICAL REVIEW LETTERS, 77 (18), 3865-3868 (1996). 
 Generalized gradient approximation made simple.
 https://doi.org/10.1103/PhysRevLett.77.3865

 Goedecker, S; Teter, M; Hutter, J. 
 PHYSICAL REVIEW B, 54 (3), 1703-1710 (1996). 
 Separable dual-space Gaussian pseudopotentials.
 https://doi.org/10.1103/PhysRevB.54.1703


 -------------------------------------------------------------------------------
 -                                                                             -
 -                                T I M I N G                                  -
 -                                                                             -
 -------------------------------------------------------------------------------
 SUBROUTINE                       CALLS  ASD         SELF TIME        TOTAL TIME
                                MAXIMUM       AVERAGE  MAXIMUM  AVERAGE  MAXIMUM
 CP2K                                 1  1.0    0.008    0.032    2.927    2.929
 qs_energies                          1  2.0    0.000    0.000    2.674    2.674
 scf_env_do_scf                       1  3.0    0.000    0.000    1.712    1.712
 init_scf_loop                        1  4.0    0.000    0.000    1.357    1.357
 qs_ks_update_qs_env                  2  5.0    0.000    0.000    1.210    1.210
 rebuild_ks_matrix                    1  6.0    0.000    0.000    1.209    1.210
 qs_ks_build_kohn_sham_matrix         1  7.0    0.000    0.000    1.209    1.210
 qs_energies_init_hamiltonians        1  3.0    0.000    0.000    0.627    0.627
 qs_rho_update_rho                    2  5.0    0.000    0.000    0.621    0.622
 build_core_hamiltonian_matrix        1  4.0    0.000    0.000    0.101    0.621
 qs_env_update_s_mstruct              1  4.0    0.000    0.000    0.525    0.606
 qs_create_task_list                  1  5.0    0.000    0.000    0.525    0.605
 generate_qs_task_list                1  6.0    0.000    0.002    0.525    0.605
 distribute_tasks                     1  7.0    0.000    0.000    0.524    0.605
 get_current_loads                   10  8.8    0.000    0.000    0.523    0.604
 load_balance_distributed             1  8.0    0.000    0.000    0.523    0.604
 mp_alltoall_l                       11  9.7    0.523    0.604    0.523    0.604
 compute_load_list                    2  9.0    0.000    0.000    0.523    0.603
 calculate_rho_elec                   4  6.0    0.003    0.003    0.547    0.547
 pw_transfer                         47  9.8    0.005    0.006    0.493    0.503
 fft_wrap_pw1pw2                     44 10.8    0.001    0.001    0.486    0.497
 rs_pw_transfer                      26  9.0    0.001    0.001    0.432    0.468
 density_rs2pw                        4  7.0    0.000    0.000    0.430    0.465
 fft_wrap_pw1pw2_300                 26 12.4    0.038    0.043    0.451    0.459
 qs_vxc_create                        1  8.0    0.000    0.000    0.389    0.389
 xc_vxc_pw_create                     1  9.0    0.008    0.010    0.389    0.389
 fft3d_ps                            44 12.8    0.203    0.220    0.356    0.379
 scf_env_do_scf_inner_loop            1  4.0    0.000    0.000    0.354    0.354
 init_scf_run                         1  3.0    0.000    0.000    0.328    0.328
 scf_env_initial_rho_setup            1  4.0    0.000    0.000    0.328    0.328
 build_core_ae                        1  5.0    0.040    0.312    0.040    0.312
 sum_up_and_integrate                 1  8.0    0.001    0.002    0.294    0.294
 integrate_v_rspace                   2  9.0    0.000    0.000    0.293    0.294
 rs_pw_transfer_RS2PW_300             5  9.4    0.075    0.098    0.230    0.269
 build_core_ppl                       1  5.0    0.031    0.269    0.031    0.269
 grid_collocate_task_list             4  7.0    0.105    0.254    0.105    0.254
 xc_pw_derive                        12 11.0    0.000    0.000    0.237    0.247
 prepare_gapw_den                     1  8.0    0.000    0.000    0.245    0.247
 mp_waitany                         352 11.1    0.179    0.228    0.179    0.228
 xc_rho_set_and_dset_create           1 10.0    0.006    0.008    0.214    0.218
 qs_init_subsys                       1  2.0    0.004    0.004    0.176    0.176
 xc_pw_divergence                     2 10.0    0.000    0.000    0.159    0.169
 potential_pw2rs                      2 10.0    0.000    0.000    0.155    0.156
 mp_sum_d                           510  1.7    0.132    0.153    0.132    0.153
 calculate_rho_atom                   2  9.0    0.034    0.145    0.034    0.145
 calculate_rho0_atom                  2  9.0    0.107    0.140    0.107    0.140
 mp_alltoall_z22v                    44 14.8    0.099    0.139    0.099    0.139
 grid_integrate_task_list             2 10.0    0.032    0.137    0.032    0.137
 prepare_preconditioner               1  5.0    0.000    0.000    0.137    0.137
 mp_alltoall_d11v                   243 10.3    0.117    0.137    0.117    0.137
 rs_gather_matrices                   2 10.0    0.000    0.000    0.106    0.126
 make_preconditioner                  2  6.0    0.000    0.000    0.122    0.122
 mp_waitall_1                      4190 12.9    0.082    0.119    0.082    0.119
 mp_sum_dm                           63  7.2    0.104    0.114    0.104    0.114
 calculate_vxc_atom                   1  8.0    0.002    0.008    0.112    0.112
 make_full_all                        2  7.0    0.000    0.000    0.108    0.109
 yz_to_x                             25 13.3    0.025    0.031    0.080    0.104
 gaVxcgb_GC                           1  9.0    0.012    0.101    0.012    0.101
 rs_pw_transfer_PW2RS_300             3 11.3    0.053    0.064    0.097    0.100
 dbcsr_multiply_generic              55  9.0    0.001    0.002    0.087    0.092
 integrate_vhg0_rspace                1  8.0    0.014    0.020    0.089    0.091
 xc_functional_eval                   3 10.7    0.000    0.000    0.086    0.089
 pbe_lsd_eval                         3 11.7    0.086    0.089    0.086    0.089
 qs_env_setup                         1  3.0    0.000    0.000    0.081    0.085
 qs_env_rebuild_pw_env                2  3.5    0.000    0.000    0.080    0.084
 pw_env_rebuild                       1  5.0    0.000    0.000    0.080    0.084
 x_to_yz                             19 14.5    0.025    0.028    0.069    0.082
 mp_sum_dv                           12 11.2    0.052    0.079    0.052    0.079
 init_rho_atom                        1  3.0    0.000    0.000    0.064    0.079
 calculate_rho_atom_coeff             2  6.0    0.009    0.057    0.074    0.074
 cp_fm_diag_elpa                      6  8.3    0.000    0.000    0.073    0.074
 cp_fm_redistribute_end               6  9.3    0.054    0.069    0.055    0.069
 cp_fm_diag_elpa_base                 6  9.2    0.014    0.065    0.014    0.066
 -------------------------------------------------------------------------------

 The number of warnings for this run is : 0
 
 -------------------------------------------------------------------------------
  **** **** ******  **  PROGRAM ENDED AT                 2022-05-31 12:35:31.152
 ***** ** ***  *** **   PROGRAM RAN ON                                   tcopt10
 **    ****   ******    PROGRAM RAN BY                                    hutter
 ***** **    ** ** **   PROGRAM PROCESS ID                                 83179
  **** **  *******  **  PROGRAM STOPPED IN /data/hutter/GITHUB/BASIS/scMOLOPT/PB
                                           E/Rh
