
  **** **** ******  **  PROGRAM STARTED AT               2021-01-28 20:31:21.653
 ***** ** ***  *** **   PROGRAM STARTED ON                               tcopt10
 **    ****   ******    PROGRAM STARTED BY                                hutter
 ***** **    ** ** **   PROGRAM PROCESS ID                                  8017
  **** **  *******  **  PROGRAM STARTED IN /data/hutter/GITHUB/BASIS/MOLOPT/PBE/
                                           Mn

 CP2K| version string:                    CP2K version 9.0 (Development Version)
 CP2K| source code revision number:                                  git:3a0fa18
 CP2K| cp2kflags: omp libint fftw3 libxc elpa parallel mpi3 scalapack xsmm spgli
 CP2K|            b sirius libvori libbqb
 CP2K| is freely available from                            https://www.cp2k.org/
 CP2K| Program compiled at                          Wed Jan 27 11:43:32 CET 2021
 CP2K| Program compiled on                                               tcopt10
 CP2K| Program compiled for                                                local
 CP2K| Data directory path                 /data/hutter/GITHUB/CURRENT/cp2k/data
 CP2K| Input file name                                               opt-all.inp

 GLOBAL| Method name                                              OPTIMIZE_BASIS
 GLOBAL| Project name                                                     molopt
 GLOBAL| Preferred FFT library                                             FFTW3
 GLOBAL| Preferred diagonalization lib.                                     ELPA
 GLOBAL| Run type                                                   ENERGY_FORCE
 GLOBAL| All-to-all communication in single precision                          F
 GLOBAL| FFTs using library dependent lengths                                  F
 GLOBAL| Global print level                                               MEDIUM
 GLOBAL| MPI I/O enabled                                                       T
 GLOBAL| Total number of message passing processes                            48
 GLOBAL| Number of threads for this process                                    1
 GLOBAL| This output is from process                                           0
 GLOBAL| CPU model name                          AMD EPYC 7401 24-Core Processor
 GLOBAL| CPUID                                                              1002

 MEMORY| system memory details [Kb]
 MEMORY|                        rank 0           min           max       average
 MEMORY| MemTotal            263969964     263969964     263969964     263969964
 MEMORY| MemFree             248386832     248386832     248386832     248386832
 MEMORY| Buffers                   136           136           136           136
 MEMORY| Cached               11053404      11053404      11053404      11053404
 MEMORY| Slab                   681392        681392        681392        681392
 MEMORY| SReclaimable           287684        287684        287684        287684
 MEMORY| MemLikelyFree       259728056     259728056     259728056     259728056


 *** Fundamental physical constants (SI units) ***

 *** Literature: B. J. Mohr and B. N. Taylor,
 ***             CODATA recommended values of the fundamental physical
 ***             constants: 2006, Web Version 5.1
 ***             http://physics.nist.gov/constants

 Speed of light in vacuum [m/s]                             2.99792458000000E+08
 Magnetic constant or permeability of vacuum [N/A**2]       1.25663706143592E-06
 Electric constant or permittivity of vacuum [F/m]          8.85418781762039E-12
 Planck constant (h) [J*s]                                  6.62606896000000E-34
 Planck constant (h-bar) [J*s]                              1.05457162825177E-34
 Elementary charge [C]                                      1.60217648700000E-19
 Electron mass [kg]                                         9.10938215000000E-31
 Electron g factor [ ]                                     -2.00231930436220E+00
 Proton mass [kg]                                           1.67262163700000E-27
 Fine-structure constant                                    7.29735253760000E-03
 Rydberg constant [1/m]                                     1.09737315685270E+07
 Avogadro constant [1/mol]                                  6.02214179000000E+23
 Boltzmann constant [J/K]                                   1.38065040000000E-23
 Atomic mass unit [kg]                                      1.66053878200000E-27
 Bohr radius [m]                                            5.29177208590000E-11

 *** Conversion factors ***

 [u] -> [a.u.]                                              1.82288848426455E+03
 [Angstrom] -> [Bohr] = [a.u.]                              1.88972613288564E+00
 [a.u.] = [Bohr] -> [Angstrom]                              5.29177208590000E-01
 [a.u.] -> [s]                                              2.41888432650478E-17
 [a.u.] -> [fs]                                             2.41888432650478E-02
 [a.u.] -> [J]                                              4.35974393937059E-18
 [a.u.] -> [N]                                              8.23872205491840E-08
 [a.u.] -> [K]                                              3.15774647902944E+05
 [a.u.] -> [kJ/mol]                                         2.62549961709828E+03
 [a.u.] -> [kcal/mol]                                       6.27509468713739E+02
 [a.u.] -> [Pa]                                             2.94210107994716E+13
 [a.u.] -> [bar]                                            2.94210107994716E+08
 [a.u.] -> [atm]                                            2.90362800883016E+08
 [a.u.] -> [eV]                                             2.72113838565563E+01
 [a.u.] -> [Hz]                                             6.57968392072181E+15
 [a.u.] -> [1/cm] (wave numbers)                            2.19474631370540E+05
 [a.u./Bohr**2] -> [1/cm]                                   5.14048714338585E+03
 
 DBCSR| CPU Multiplication driver                                           XSMM
 DBCSR| Multrec recursion limit                                              512
 DBCSR| Multiplication stack size                                           1000
 DBCSR| Maximum elements for images                                    UNLIMITED
 DBCSR| Multiplicative factor virtual images                                   1
 DBCSR| Use multiplication densification                                       T
 DBCSR| Multiplication size stacks                                             3
 DBCSR| Use memory pool for CPU allocation                                     F
 DBCSR| Number of 3D layers                                               SINGLE
 DBCSR| Use MPI memory allocation                                              F
 DBCSR| Use RMA algorithm                                                      F
 DBCSR| Use Communication thread                                               T
 DBCSR| Communication thread load                                             87
 DBCSR| MPI: My node id                                                        0
 DBCSR| MPI: Number of nodes                                                  48
 DBCSR| OMP: Current number of threads                                         1
 DBCSR| OMP: Max number of threads                                             1
 DBCSR| Split modifier for TAS multiplication algorithm                  1.0E+00

 BASOPT| Total number of calculations     18

 BASOPT| Content of basis combination      1
 BASOPT|     Element:   MN    Basis set:    TZV2P-MOLOPT-PBE-GTH-Q15
 BASOPT|     Element:    S    Basis set:    TZV2P-MOLOPT-PBE-GTH-Q6
 BASOPT|     Element:    O    Basis set:    TZV2P-MOLOPT-PBE-GTH-Q6
 BASOPT|     Element:    F    Basis set:    TZV2P-MOLOPT-PBE-GTH-Q7

 BASOPT| Content of basis combination      2
 BASOPT|     Element:   MN    Basis set:    TZVP-MOLOPT-PBE-GTH-q15
 BASOPT|     Element:    S    Basis set:    TZVP-MOLOPT-PBE-GTH-q6
 BASOPT|     Element:    O    Basis set:    TZVP-MOLOPT-PBE-GTH-q6
 BASOPT|     Element:    F    Basis set:    TZVP-MOLOPT-PBE-GTH-q7

 BASOPT| Content of basis combination      3
 BASOPT|     Element:   MN    Basis set:    DZVP-MOLOPT-PBE-GTH-q15
 BASOPT|     Element:    S    Basis set:    DZVP-MOLOPT-PBE-GTH-q6
 BASOPT|     Element:    O    Basis set:    DZVP-MOLOPT-PBE-GTH-q6
 BASOPT|     Element:    F    Basis set:    DZVP-MOLOPT-PBE-GTH-q7

 BASOPT| Information at iteration number:       0
 BASOPT| Training set | Combination | Rho difference | Condition num. | Time
 BASOPT| -----------------------------------------------------------------------
 BASOPT|        1     |       1     | 0.22309580E-02 | 0.26315057E+03 |    0.102
 BASOPT|        1     |       2     | 0.29680504E-02 | 0.21815911E+03 |    0.079
 BASOPT|        1     |       3     | 0.48670489E-02 | 0.11228341E+03 |    0.067
 BASOPT|        2     |       1     | 0.23823504E-02 | 0.64771496E+03 |    0.089
 BASOPT|        2     |       2     | 0.35247182E-02 | 0.39683135E+03 |    0.064
 BASOPT|        2     |       3     | 0.12237956E-01 | 0.15469010E+03 |    0.055
 BASOPT|        3     |       1     | 0.10247485E-02 | 0.95138491E+03 |    0.218
 BASOPT|        3     |       2     | 0.17462879E-02 | 0.58974872E+03 |    0.145
 BASOPT|        3     |       3     | 0.44421446E-02 | 0.20890371E+03 |    0.121
 BASOPT|        4     |       1     | 0.26936766E-02 | 0.89680103E+03 |    0.286
 BASOPT|        4     |       2     | 0.53749662E-02 | 0.52606886E+03 |    0.192
 BASOPT|        4     |       3     | 0.82959514E-02 | 0.20582903E+03 |    0.157
 BASOPT|        5     |       1     | 0.22511339E-02 | 0.36440987E+03 |    0.067
 BASOPT|        5     |       2     | 0.28551753E-02 | 0.27282953E+03 |    0.055
 BASOPT|        5     |       3     | 0.53429211E-02 | 0.13129274E+03 |    0.049
 BASOPT|        6     |       1     | 0.36594284E-02 | 0.37086937E+03 |    0.066
 BASOPT|        6     |       2     | 0.49187994E-02 | 0.19858417E+03 |    0.056
 BASOPT|        6     |       3     | 0.82988338E-02 | 0.85667872E+02 |    0.049
 BASOPT| -----------------------------------------------------------------------
 BASOPT| Total residuum value: -.48045268E+04

 BASOPT| Information at iteration number:     100
 BASOPT| Training set | Combination | Rho difference | Condition num. | Time
 BASOPT| -----------------------------------------------------------------------
 BASOPT|        1     |       1     | 0.22481079E-02 | 0.26182552E+03 |   11.423
 BASOPT|        1     |       2     | 0.29795849E-02 | 0.22295903E+03 |    8.574
 BASOPT|        1     |       3     | 0.49137171E-02 | 0.11113576E+03 |    7.264
 BASOPT|        2     |       1     | 0.25454241E-02 | 0.64478740E+03 |    9.645
 BASOPT|        2     |       2     | 0.36338936E-02 | 0.39504855E+03 |    6.884
 BASOPT|        2     |       3     | 0.11958974E-01 | 0.15550964E+03 |    5.939
 BASOPT|        3     |       1     | 0.10527701E-02 | 0.94786337E+03 |   25.219
 BASOPT|        3     |       2     | 0.17844303E-02 | 0.58757229E+03 |   16.514
 BASOPT|        3     |       3     | 0.44903261E-02 | 0.20868384E+03 |   13.660
 BASOPT|        4     |       1     | 0.28485659E-02 | 0.89351949E+03 |   32.987
 BASOPT|        4     |       2     | 0.55424862E-02 | 0.52417479E+03 |   22.081
 BASOPT|        4     |       3     | 0.85217260E-02 | 0.20607074E+03 |   17.976
 BASOPT|        5     |       1     | 0.24439915E-02 | 0.36858870E+03 |    7.441
 BASOPT|        5     |       2     | 0.30690806E-02 | 0.27560466E+03 |    6.386
 BASOPT|        5     |       3     | 0.55555444E-02 | 0.13207979E+03 |    5.603
 BASOPT|        6     |       1     | 0.37978231E-02 | 0.35561484E+03 |    7.636
 BASOPT|        6     |       2     | 0.50296913E-02 | 0.19296350E+03 |    6.538
 BASOPT|        6     |       3     | 0.84729397E-02 | 0.84510221E+02 |    5.663
 BASOPT| -----------------------------------------------------------------------
 BASOPT| Total residuum value: -.48044292E+04

 BASOPT| Information at iteration number:     200
 BASOPT| Training set | Combination | Rho difference | Condition num. | Time
 BASOPT| -----------------------------------------------------------------------
 BASOPT|        1     |       1     | 0.21807642E-02 | 0.26337830E+03 |   23.205
 BASOPT|        1     |       2     | 0.28892222E-02 | 0.21868524E+03 |   17.401
 BASOPT|        1     |       3     | 0.47874360E-02 | 0.11355620E+03 |   14.736
 BASOPT|        2     |       1     | 0.23806261E-02 | 0.65840179E+03 |   19.623
 BASOPT|        2     |       2     | 0.35527909E-02 | 0.39612390E+03 |   13.981
 BASOPT|        2     |       3     | 0.12397724E-01 | 0.15757230E+03 |   12.065
 BASOPT|        3     |       1     | 0.10240983E-02 | 0.96137259E+03 |   51.326
 BASOPT|        3     |       2     | 0.17320841E-02 | 0.58352155E+03 |   33.557
 BASOPT|        3     |       3     | 0.45215634E-02 | 0.20870784E+03 |   27.759
 BASOPT|        4     |       1     | 0.27362010E-02 | 0.89997209E+03 |   67.113
 BASOPT|        4     |       2     | 0.53947588E-02 | 0.51954540E+03 |   44.869
 BASOPT|        4     |       3     | 0.84350497E-02 | 0.21187830E+03 |   36.505
 BASOPT|        5     |       1     | 0.21531790E-02 | 0.37305704E+03 |   15.141
 BASOPT|        5     |       2     | 0.27140413E-02 | 0.27664070E+03 |   12.998
 BASOPT|        5     |       3     | 0.52387815E-02 | 0.13261904E+03 |   11.385
 BASOPT|        6     |       1     | 0.35755926E-02 | 0.37481219E+03 |   15.551
 BASOPT|        6     |       2     | 0.48018691E-02 | 0.20140140E+03 |   13.297
 BASOPT|        6     |       3     | 0.81303396E-02 | 0.86125162E+02 |   11.505
 BASOPT| -----------------------------------------------------------------------
 BASOPT| Total residuum value: -.48046019E+04

 BASOPT| Information at iteration number:     300
 BASOPT| Training set | Combination | Rho difference | Condition num. | Time
 BASOPT| -----------------------------------------------------------------------
 BASOPT|        1     |       1     | 0.21978168E-02 | 0.25505943E+03 |   35.009
 BASOPT|        1     |       2     | 0.29073804E-02 | 0.20925867E+03 |   26.246
 BASOPT|        1     |       3     | 0.48535032E-02 | 0.11309768E+03 |   22.239
 BASOPT|        2     |       1     | 0.23811533E-02 | 0.63561870E+03 |   29.598
 BASOPT|        2     |       2     | 0.35697138E-02 | 0.38374269E+03 |   21.112
 BASOPT|        2     |       3     | 0.12516935E-01 | 0.15514768E+03 |   18.218
 BASOPT|        3     |       1     | 0.10206130E-02 | 0.92521534E+03 |   77.498
 BASOPT|        3     |       2     | 0.17303391E-02 | 0.56278478E+03 |   50.622
 BASOPT|        3     |       3     | 0.43959436E-02 | 0.20633343E+03 |   41.880
 BASOPT|        4     |       1     | 0.27019568E-02 | 0.86669148E+03 |  101.260
 BASOPT|        4     |       2     | 0.53473931E-02 | 0.50313305E+03 |   67.713
 BASOPT|        4     |       3     | 0.82039331E-02 | 0.20820182E+03 |   55.035
 BASOPT|        5     |       1     | 0.21602882E-02 | 0.36916951E+03 |   22.861
 BASOPT|        5     |       2     | 0.27224370E-02 | 0.26871644E+03 |   19.640
 BASOPT|        5     |       3     | 0.53864153E-02 | 0.13077182E+03 |   17.194
 BASOPT|        6     |       1     | 0.35918419E-02 | 0.37602587E+03 |   23.477
 BASOPT|        6     |       2     | 0.48278635E-02 | 0.20082547E+03 |   20.089
 BASOPT|        6     |       3     | 0.83423014E-02 | 0.85146779E+02 |   17.374
 BASOPT| -----------------------------------------------------------------------
 BASOPT| Total residuum value: -.48046261E+04

 BASOPT| Information at iteration number:     400
 BASOPT| Training set | Combination | Rho difference | Condition num. | Time
 BASOPT| -----------------------------------------------------------------------
 BASOPT|        1     |       1     | 0.21819706E-02 | 0.24873009E+03 |   46.857
 BASOPT|        1     |       2     | 0.28851089E-02 | 0.20631610E+03 |   35.086
 BASOPT|        1     |       3     | 0.48386782E-02 | 0.11377972E+03 |   29.757
 BASOPT|        2     |       1     | 0.23965684E-02 | 0.61960529E+03 |   39.575
 BASOPT|        2     |       2     | 0.36288748E-02 | 0.37519949E+03 |   28.261
 BASOPT|        2     |       3     | 0.12586054E-01 | 0.15656430E+03 |   24.379
 BASOPT|        3     |       1     | 0.10283039E-02 | 0.89959639E+03 |  103.626
 BASOPT|        3     |       2     | 0.17476048E-02 | 0.54774771E+03 |   67.711
 BASOPT|        3     |       3     | 0.44515306E-02 | 0.20706983E+03 |   56.005
 BASOPT|        4     |       1     | 0.27111966E-02 | 0.84322856E+03 |  135.412
 BASOPT|        4     |       2     | 0.53954716E-02 | 0.49128088E+03 |   90.587
 BASOPT|        4     |       3     | 0.83181615E-02 | 0.21126316E+03 |   73.662
 BASOPT|        5     |       1     | 0.21237163E-02 | 0.37838864E+03 |   30.606
 BASOPT|        5     |       2     | 0.26777535E-02 | 0.26816508E+03 |   26.301
 BASOPT|        5     |       3     | 0.53597606E-02 | 0.13103013E+03 |   23.014
 BASOPT|        6     |       1     | 0.35641618E-02 | 0.37762743E+03 |   31.421
 BASOPT|        6     |       2     | 0.47946017E-02 | 0.20034137E+03 |   26.905
 BASOPT|        6     |       3     | 0.82797835E-02 | 0.84968092E+02 |   23.258
 BASOPT| -----------------------------------------------------------------------
 BASOPT| Total residuum value: -.48046364E+04

 BASOPT| Information at iteration number:     500
 BASOPT| Training set | Combination | Rho difference | Condition num. | Time
 BASOPT| -----------------------------------------------------------------------
 BASOPT|        1     |       1     | 0.21620266E-02 | 0.25130805E+03 |   58.735
 BASOPT|        1     |       2     | 0.28580251E-02 | 0.20747250E+03 |   43.931
 BASOPT|        1     |       3     | 0.48197766E-02 | 0.11431868E+03 |   37.280
 BASOPT|        2     |       1     | 0.23863508E-02 | 0.62516393E+03 |   49.554
 BASOPT|        2     |       2     | 0.36325673E-02 | 0.37960107E+03 |   35.408
 BASOPT|        2     |       3     | 0.12585546E-01 | 0.15813506E+03 |   30.543
 BASOPT|        3     |       1     | 0.10203355E-02 | 0.90647461E+03 |  129.763
 BASOPT|        3     |       2     | 0.17302135E-02 | 0.55322668E+03 |   84.801
 BASOPT|        3     |       3     | 0.44516243E-02 | 0.20951825E+03 |   70.131
 BASOPT|        4     |       1     | 0.26985629E-02 | 0.84935302E+03 |  169.580
 BASOPT|        4     |       2     | 0.53788977E-02 | 0.49634061E+03 |  113.467
 BASOPT|        4     |       3     | 0.83332307E-02 | 0.21394464E+03 |   92.245
 BASOPT|        5     |       1     | 0.20729090E-02 | 0.38429568E+03 |   38.352
 BASOPT|        5     |       2     | 0.26140197E-02 | 0.27180946E+03 |   32.960
 BASOPT|        5     |       3     | 0.53045212E-02 | 0.13227353E+03 |   28.849
 BASOPT|        6     |       1     | 0.35210261E-02 | 0.38207019E+03 |   39.367
 BASOPT|        6     |       2     | 0.47441406E-02 | 0.20218775E+03 |   33.716
 BASOPT|        6     |       3     | 0.82201016E-02 | 0.85810391E+02 |   29.143
 BASOPT| -----------------------------------------------------------------------
 BASOPT| Total residuum value: -.48046427E+04

 BASOPT| Information at iteration number:     600
 BASOPT| Training set | Combination | Rho difference | Condition num. | Time
 BASOPT| -----------------------------------------------------------------------
 BASOPT|        1     |       1     | 0.21673825E-02 | 0.25271816E+03 |   70.594
 BASOPT|        1     |       2     | 0.28551985E-02 | 0.20682408E+03 |   52.779
 BASOPT|        1     |       3     | 0.47779023E-02 | 0.11385054E+03 |   44.806
 BASOPT|        2     |       1     | 0.24029379E-02 | 0.62961117E+03 |   59.537
 BASOPT|        2     |       2     | 0.36379946E-02 | 0.38087912E+03 |   42.557
 BASOPT|        2     |       3     | 0.12681329E-01 | 0.15802235E+03 |   36.709
 BASOPT|        3     |       1     | 0.10222975E-02 | 0.90952960E+03 |  155.901
 BASOPT|        3     |       2     | 0.17134946E-02 | 0.55269459E+03 |  101.894
 BASOPT|        3     |       3     | 0.44090070E-02 | 0.20961776E+03 |   84.261
 BASOPT|        4     |       1     | 0.26963941E-02 | 0.85088470E+03 |  203.730
 BASOPT|        4     |       2     | 0.53532769E-02 | 0.49570330E+03 |  136.344
 BASOPT|        4     |       3     | 0.83402492E-02 | 0.21403805E+03 |  110.830
 BASOPT|        5     |       1     | 0.20795892E-02 | 0.38545624E+03 |   46.099
 BASOPT|        5     |       2     | 0.26155994E-02 | 0.27205967E+03 |   39.620
 BASOPT|        5     |       3     | 0.53042576E-02 | 0.13229883E+03 |   34.681
 BASOPT|        6     |       1     | 0.35202469E-02 | 0.38404933E+03 |   47.322
 BASOPT|        6     |       2     | 0.47420415E-02 | 0.20251194E+03 |   40.528
 BASOPT|        6     |       3     | 0.82187397E-02 | 0.85767048E+02 |   35.024
 BASOPT| -----------------------------------------------------------------------
 BASOPT| Total residuum value: -.48046439E+04

 BASOPT| Information at iteration number:     700
 BASOPT| Training set | Combination | Rho difference | Condition num. | Time
 BASOPT| -----------------------------------------------------------------------
 BASOPT|        1     |       1     | 0.21683290E-02 | 0.25182068E+03 |   82.474
 BASOPT|        1     |       2     | 0.28580494E-02 | 0.20458356E+03 |   61.629
 BASOPT|        1     |       3     | 0.48620575E-02 | 0.11304517E+03 |   52.331
 BASOPT|        2     |       1     | 0.24034817E-02 | 0.62294250E+03 |   69.522
 BASOPT|        2     |       2     | 0.36561518E-02 | 0.37733731E+03 |   49.712
 BASOPT|        2     |       3     | 0.12517559E-01 | 0.15770691E+03 |   42.881
 BASOPT|        3     |       1     | 0.10295565E-02 | 0.89799296E+03 |  182.034
 BASOPT|        3     |       2     | 0.17338763E-02 | 0.54632121E+03 |  118.991
 BASOPT|        3     |       3     | 0.44542276E-02 | 0.20985722E+03 |   98.396
 BASOPT|        4     |       1     | 0.27072019E-02 | 0.83985456E+03 |  237.859
 BASOPT|        4     |       2     | 0.53957533E-02 | 0.49078340E+03 |  159.226
 BASOPT|        4     |       3     | 0.83694641E-02 | 0.21451523E+03 |  129.393
 BASOPT|        5     |       1     | 0.20783160E-02 | 0.38893773E+03 |   53.853
 BASOPT|        5     |       2     | 0.26166167E-02 | 0.27178691E+03 |   46.285
 BASOPT|        5     |       3     | 0.53356695E-02 | 0.13177433E+03 |   40.515
 BASOPT|        6     |       1     | 0.35157868E-02 | 0.38597486E+03 |   55.274
 BASOPT|        6     |       2     | 0.47357347E-02 | 0.20274143E+03 |   47.348
 BASOPT|        6     |       3     | 0.82581630E-02 | 0.85821979E+02 |   40.911
 BASOPT| -----------------------------------------------------------------------
 BASOPT| Total residuum value: -.48046523E+04

 BASOPT| Information at iteration number:     800
 BASOPT| Training set | Combination | Rho difference | Condition num. | Time
 BASOPT| -----------------------------------------------------------------------
 BASOPT|        1     |       1     | 0.21742454E-02 | 0.25204086E+03 |   94.369
 BASOPT|        1     |       2     | 0.28612488E-02 | 0.20306283E+03 |   70.481
 BASOPT|        1     |       3     | 0.48545678E-02 | 0.11315130E+03 |   59.859
 BASOPT|        2     |       1     | 0.23958976E-02 | 0.62539432E+03 |   79.512
 BASOPT|        2     |       2     | 0.36430820E-02 | 0.37826493E+03 |   56.868
 BASOPT|        2     |       3     | 0.12446275E-01 | 0.15688838E+03 |   49.054
 BASOPT|        3     |       1     | 0.10229303E-02 | 0.90269821E+03 |  208.177
 BASOPT|        3     |       2     | 0.17172320E-02 | 0.54818734E+03 |  136.087
 BASOPT|        3     |       3     | 0.44975891E-02 | 0.20802580E+03 |  112.536
 BASOPT|        4     |       1     | 0.26895107E-02 | 0.84409225E+03 |  271.995
 BASOPT|        4     |       2     | 0.53638052E-02 | 0.49216605E+03 |  182.100
 BASOPT|        4     |       3     | 0.83962594E-02 | 0.21243955E+03 |  147.973
 BASOPT|        5     |       1     | 0.20848118E-02 | 0.38778784E+03 |   61.609
 BASOPT|        5     |       2     | 0.26225577E-02 | 0.27060772E+03 |   52.951
 BASOPT|        5     |       3     | 0.52557913E-02 | 0.13160168E+03 |   46.353
 BASOPT|        6     |       1     | 0.35295918E-02 | 0.38601097E+03 |   63.231
 BASOPT|        6     |       2     | 0.47551558E-02 | 0.20247107E+03 |   54.163
 BASOPT|        6     |       3     | 0.81753801E-02 | 0.86284858E+02 |   46.797
 BASOPT| -----------------------------------------------------------------------
 BASOPT| Total residuum value: -.48046569E+04

 BASOPT| Information at iteration number:     900
 BASOPT| Training set | Combination | Rho difference | Condition num. | Time
 BASOPT| -----------------------------------------------------------------------
 BASOPT|        1     |       1     | 0.21678597E-02 | 0.25122625E+03 |  106.232
 BASOPT|        1     |       2     | 0.28554587E-02 | 0.20344982E+03 |   79.334
 BASOPT|        1     |       3     | 0.48317365E-02 | 0.11330359E+03 |   67.395
 BASOPT|        2     |       1     | 0.23898440E-02 | 0.62309054E+03 |   89.498
 BASOPT|        2     |       2     | 0.36354039E-02 | 0.37735212E+03 |   64.025
 BASOPT|        2     |       3     | 0.12452724E-01 | 0.15674506E+03 |   55.225
 BASOPT|        3     |       1     | 0.10211433E-02 | 0.90014231E+03 |  234.324
 BASOPT|        3     |       2     | 0.17153210E-02 | 0.54730241E+03 |  153.183
 BASOPT|        3     |       3     | 0.44868065E-02 | 0.20778746E+03 |  126.728
 BASOPT|        4     |       1     | 0.26878327E-02 | 0.84220529E+03 |  306.140
 BASOPT|        4     |       2     | 0.53612140E-02 | 0.49152932E+03 |  204.979
 BASOPT|        4     |       3     | 0.83950395E-02 | 0.21221125E+03 |  166.566
 BASOPT|        5     |       1     | 0.20796473E-02 | 0.38727978E+03 |   69.364
 BASOPT|        5     |       2     | 0.26169451E-02 | 0.27016045E+03 |   59.616
 BASOPT|        5     |       3     | 0.52304251E-02 | 0.13142024E+03 |   52.186
 BASOPT|        6     |       1     | 0.35223195E-02 | 0.38514278E+03 |   71.200
 BASOPT|        6     |       2     | 0.47478717E-02 | 0.20225574E+03 |   60.987
 BASOPT|        6     |       3     | 0.81451459E-02 | 0.86416038E+02 |   52.686
 BASOPT| -----------------------------------------------------------------------
 BASOPT| Total residuum value: -.48046590E+04

 BASOPT| Information at iteration number:    1000
 BASOPT| Training set | Combination | Rho difference | Condition num. | Time
 BASOPT| -----------------------------------------------------------------------
 BASOPT|        1     |       1     | 0.21706720E-02 | 0.24977621E+03 |  118.110
 BASOPT|        1     |       2     | 0.28572926E-02 | 0.20211716E+03 |   88.188
 BASOPT|        1     |       3     | 0.48489424E-02 | 0.11326199E+03 |   74.931
 BASOPT|        2     |       1     | 0.23932746E-02 | 0.61787882E+03 |   99.486
 BASOPT|        2     |       2     | 0.36423482E-02 | 0.37477834E+03 |   71.180
 BASOPT|        2     |       3     | 0.12440713E-01 | 0.15655258E+03 |   61.399
 BASOPT|        3     |       1     | 0.10240998E-02 | 0.89299344E+03 |  260.473
 BASOPT|        3     |       2     | 0.17211662E-02 | 0.54370939E+03 |  170.279
 BASOPT|        3     |       3     | 0.44718815E-02 | 0.20747066E+03 |  140.906
 BASOPT|        4     |       1     | 0.26919706E-02 | 0.83592614E+03 |  340.280
 BASOPT|        4     |       2     | 0.53770658E-02 | 0.48873797E+03 |  227.868
 BASOPT|        4     |       3     | 0.83862781E-02 | 0.21184149E+03 |  185.161
 BASOPT|        5     |       1     | 0.20860722E-02 | 0.38815853E+03 |   77.118
 BASOPT|        5     |       2     | 0.26258821E-02 | 0.26923432E+03 |   66.280
 BASOPT|        5     |       3     | 0.52597868E-02 | 0.13122536E+03 |   58.020
 BASOPT|        6     |       1     | 0.35299392E-02 | 0.38481610E+03 |   79.159
 BASOPT|        6     |       2     | 0.47567149E-02 | 0.20185885E+03 |   67.801
 BASOPT|        6     |       3     | 0.81862204E-02 | 0.86268296E+02 |   58.572
 BASOPT| -----------------------------------------------------------------------
 BASOPT| Total residuum value: -.48046627E+04

 BASOPT| Information at iteration number:    1100
 BASOPT| Training set | Combination | Rho difference | Condition num. | Time
 BASOPT| -----------------------------------------------------------------------
 BASOPT|        1     |       1     | 0.21696532E-02 | 0.24709100E+03 |  130.017
 BASOPT|        1     |       2     | 0.28503968E-02 | 0.20038335E+03 |   97.042
 BASOPT|        1     |       3     | 0.48519421E-02 | 0.11313618E+03 |   82.470
 BASOPT|        2     |       1     | 0.23967190E-02 | 0.61098311E+03 |  109.474
 BASOPT|        2     |       2     | 0.36469980E-02 | 0.37082607E+03 |   78.340
 BASOPT|        2     |       3     | 0.12462758E-01 | 0.15618106E+03 |   67.572
 BASOPT|        3     |       1     | 0.10244026E-02 | 0.88351273E+03 |  286.621
 BASOPT|        3     |       2     | 0.17115418E-02 | 0.53770698E+03 |  187.376
 BASOPT|        3     |       3     | 0.44547695E-02 | 0.20695251E+03 |  155.077
 BASOPT|        4     |       1     | 0.26833953E-02 | 0.82748927E+03 |  374.424
 BASOPT|        4     |       2     | 0.53626087E-02 | 0.48382695E+03 |  250.749
 BASOPT|        4     |       3     | 0.83734065E-02 | 0.21140325E+03 |  203.749
 BASOPT|        5     |       1     | 0.20839825E-02 | 0.39014437E+03 |   84.873
 BASOPT|        5     |       2     | 0.26191216E-02 | 0.26788745E+03 |   72.947
 BASOPT|        5     |       3     | 0.52896327E-02 | 0.13079749E+03 |   63.859
 BASOPT|        6     |       1     | 0.35205834E-02 | 0.38479973E+03 |   87.119
 BASOPT|        6     |       2     | 0.47473692E-02 | 0.20099679E+03 |   74.619
 BASOPT|        6     |       3     | 0.82121965E-02 | 0.85824176E+02 |   64.459
 BASOPT| -----------------------------------------------------------------------
 BASOPT| Total residuum value: -.48046667E+04

 BASOPT| Information at iteration number:    1200
 BASOPT| Training set | Combination | Rho difference | Condition num. | Time
 BASOPT| -----------------------------------------------------------------------
 BASOPT|        1     |       1     | 0.21784816E-02 | 0.24438357E+03 |  141.919
 BASOPT|        1     |       2     | 0.28566319E-02 | 0.19863124E+03 |  105.893
 BASOPT|        1     |       3     | 0.48539794E-02 | 0.11282896E+03 |   90.014
 BASOPT|        2     |       1     | 0.23921776E-02 | 0.60284613E+03 |  119.456
 BASOPT|        2     |       2     | 0.36451489E-02 | 0.36711328E+03 |   85.503
 BASOPT|        2     |       3     | 0.12441698E-01 | 0.15569166E+03 |   73.745
 BASOPT|        3     |       1     | 0.10223513E-02 | 0.87228509E+03 |  312.766
 BASOPT|        3     |       2     | 0.17064604E-02 | 0.53206466E+03 |  204.477
 BASOPT|        3     |       3     | 0.44502149E-02 | 0.20644861E+03 |  169.244
 BASOPT|        4     |       1     | 0.26661284E-02 | 0.81787334E+03 |  408.570
 BASOPT|        4     |       2     | 0.53551124E-02 | 0.47951728E+03 |  273.630
 BASOPT|        4     |       3     | 0.83859232E-02 | 0.21087990E+03 |  222.338
 BASOPT|        5     |       1     | 0.20886825E-02 | 0.39406002E+03 |   92.634
 BASOPT|        5     |       2     | 0.26249096E-02 | 0.26705808E+03 |   79.617
 BASOPT|        5     |       3     | 0.53047775E-02 | 0.13027244E+03 |   69.697
 BASOPT|        6     |       1     | 0.35301019E-02 | 0.38553448E+03 |   95.078
 BASOPT|        6     |       2     | 0.47622181E-02 | 0.20024547E+03 |   81.439
 BASOPT|        6     |       3     | 0.82336316E-02 | 0.85482445E+02 |   70.352
 BASOPT| -----------------------------------------------------------------------
 BASOPT| Total residuum value: -.48046729E+04

 BASOPT| Information at iteration number:    1300
 BASOPT| Training set | Combination | Rho difference | Condition num. | Time
 BASOPT| -----------------------------------------------------------------------
 BASOPT|        1     |       1     | 0.21825377E-02 | 0.24264103E+03 |  153.802
 BASOPT|        1     |       2     | 0.28572547E-02 | 0.19684476E+03 |  114.747
 BASOPT|        1     |       3     | 0.48685356E-02 | 0.11254609E+03 |   97.554
 BASOPT|        2     |       1     | 0.23912130E-02 | 0.59894695E+03 |  129.442
 BASOPT|        2     |       2     | 0.36446545E-02 | 0.36494885E+03 |   92.669
 BASOPT|        2     |       3     | 0.12420361E-01 | 0.15488617E+03 |   79.920
 BASOPT|        3     |       1     | 0.10219478E-02 | 0.86711710E+03 |  338.919
 BASOPT|        3     |       2     | 0.17006751E-02 | 0.52874068E+03 |  221.591
 BASOPT|        3     |       3     | 0.44458514E-02 | 0.20514331E+03 |  183.424
 BASOPT|        4     |       1     | 0.26562080E-02 | 0.81331801E+03 |  442.723
 BASOPT|        4     |       2     | 0.53474302E-02 | 0.47684551E+03 |  296.515
 BASOPT|        4     |       3     | 0.83834196E-02 | 0.20941402E+03 |  240.928
 BASOPT|        5     |       1     | 0.20909972E-02 | 0.39595415E+03 |  100.400
 BASOPT|        5     |       2     | 0.26260256E-02 | 0.26603845E+03 |   86.289
 BASOPT|        5     |       3     | 0.53161844E-02 | 0.12980760E+03 |   75.532
 BASOPT|        6     |       1     | 0.35327878E-02 | 0.38589780E+03 |  103.043
 BASOPT|        6     |       2     | 0.47676397E-02 | 0.19954432E+03 |   88.262
 BASOPT|        6     |       3     | 0.82511104E-02 | 0.85298034E+02 |   76.248
 BASOPT| -----------------------------------------------------------------------
 BASOPT| Total residuum value: -.48046769E+04

 BASOPT| Information at iteration number:    1400
 BASOPT| Training set | Combination | Rho difference | Condition num. | Time
 BASOPT| -----------------------------------------------------------------------
 BASOPT|        1     |       1     | 0.21851469E-02 | 0.23938431E+03 |  165.700
 BASOPT|        1     |       2     | 0.28520744E-02 | 0.19464956E+03 |  123.597
 BASOPT|        1     |       3     | 0.48589486E-02 | 0.11191750E+03 |  105.093
 BASOPT|        2     |       1     | 0.23978121E-02 | 0.59013459E+03 |  139.430
 BASOPT|        2     |       2     | 0.36521624E-02 | 0.36053983E+03 |   99.839
 BASOPT|        2     |       3     | 0.12407066E-01 | 0.15370635E+03 |   86.096
 BASOPT|        3     |       1     | 0.10219114E-02 | 0.85468592E+03 |  365.067
 BASOPT|        3     |       2     | 0.16909496E-02 | 0.52155437E+03 |  238.711
 BASOPT|        3     |       3     | 0.44431483E-02 | 0.20355930E+03 |  197.582
 BASOPT|        4     |       1     | 0.26423119E-02 | 0.80247676E+03 |  476.874
 BASOPT|        4     |       2     | 0.53450287E-02 | 0.47130770E+03 |  319.405
 BASOPT|        4     |       3     | 0.84318063E-02 | 0.20766065E+03 |  259.517
 BASOPT|        5     |       1     | 0.20886200E-02 | 0.40039906E+03 |  108.167
 BASOPT|        5     |       2     | 0.26211603E-02 | 0.26475125E+03 |   92.970
 BASOPT|        5     |       3     | 0.53158793E-02 | 0.12897247E+03 |   81.367
 BASOPT|        6     |       1     | 0.35302960E-02 | 0.38788103E+03 |  111.009
 BASOPT|        6     |       2     | 0.47684751E-02 | 0.19867306E+03 |   95.094
 BASOPT|        6     |       3     | 0.82474738E-02 | 0.84959233E+02 |   82.147
 BASOPT| -----------------------------------------------------------------------
 BASOPT| Total residuum value: -.48046827E+04

 BASOPT| Information at iteration number:    1500
 BASOPT| Training set | Combination | Rho difference | Condition num. | Time
 BASOPT| -----------------------------------------------------------------------
 BASOPT|        1     |       1     | 0.21824848E-02 | 0.23965455E+03 |  177.573
 BASOPT|        1     |       2     | 0.28466034E-02 | 0.19368414E+03 |  132.451
 BASOPT|        1     |       3     | 0.48901592E-02 | 0.11160303E+03 |  112.633
 BASOPT|        2     |       1     | 0.24072346E-02 | 0.59027455E+03 |  149.414
 BASOPT|        2     |       2     | 0.36587993E-02 | 0.36102778E+03 |  107.001
 BASOPT|        2     |       3     | 0.12347121E-01 | 0.15303045E+03 |   92.273
 BASOPT|        3     |       1     | 0.10232509E-02 | 0.85474604E+03 |  391.224
 BASOPT|        3     |       2     | 0.16885894E-02 | 0.52198148E+03 |  255.822
 BASOPT|        3     |       3     | 0.44330566E-02 | 0.20240501E+03 |  211.721
 BASOPT|        4     |       1     | 0.26451672E-02 | 0.80265339E+03 |  511.017
 BASOPT|        4     |       2     | 0.53538371E-02 | 0.47188118E+03 |  342.288
 BASOPT|        4     |       3     | 0.84311768E-02 | 0.20619716E+03 |  278.101
 BASOPT|        5     |       1     | 0.20898990E-02 | 0.40208171E+03 |  115.929
 BASOPT|        5     |       2     | 0.26219040E-02 | 0.26478577E+03 |   99.641
 BASOPT|        5     |       3     | 0.53304742E-02 | 0.12878775E+03 |   87.202
 BASOPT|        6     |       1     | 0.35292721E-02 | 0.38870920E+03 |  118.968
 BASOPT|        6     |       2     | 0.47669647E-02 | 0.19839629E+03 |  101.913
 BASOPT|        6     |       3     | 0.82773677E-02 | 0.85123057E+02 |   88.039
 BASOPT| -----------------------------------------------------------------------
 BASOPT| Total residuum value: -.48046853E+04

 BASOPT| Information at iteration number:    1600
 BASOPT| Training set | Combination | Rho difference | Condition num. | Time
 BASOPT| -----------------------------------------------------------------------
 BASOPT|        1     |       1     | 0.21808024E-02 | 0.23995956E+03 |  189.455
 BASOPT|        1     |       2     | 0.28402326E-02 | 0.19339374E+03 |  141.306
 BASOPT|        1     |       3     | 0.48803455E-02 | 0.11135934E+03 |  120.173
 BASOPT|        2     |       1     | 0.24080655E-02 | 0.59162838E+03 |  159.399
 BASOPT|        2     |       2     | 0.36619171E-02 | 0.36119551E+03 |  114.167
 BASOPT|        2     |       3     | 0.12344140E-01 | 0.15284891E+03 |   98.447
 BASOPT|        3     |       1     | 0.10224273E-02 | 0.85688178E+03 |  417.384
 BASOPT|        3     |       2     | 0.16809619E-02 | 0.52218305E+03 |  272.938
 BASOPT|        3     |       3     | 0.44327412E-02 | 0.20232843E+03 |  225.863
 BASOPT|        4     |       1     | 0.26408602E-02 | 0.80433474E+03 |  545.166
 BASOPT|        4     |       2     | 0.53505394E-02 | 0.47199827E+03 |  365.179
 BASOPT|        4     |       3     | 0.84580765E-02 | 0.20614863E+03 |  296.686
 BASOPT|        5     |       1     | 0.20861624E-02 | 0.40560145E+03 |  123.691
 BASOPT|        5     |       2     | 0.26150232E-02 | 0.26548444E+03 |  106.317
 BASOPT|        5     |       3     | 0.53164969E-02 | 0.12866759E+03 |   93.035
 BASOPT|        6     |       1     | 0.35264976E-02 | 0.38955031E+03 |  126.936
 BASOPT|        6     |       2     | 0.47628361E-02 | 0.19819617E+03 |  108.740
 BASOPT|        6     |       3     | 0.82608244E-02 | 0.85217389E+02 |   93.933
 BASOPT| -----------------------------------------------------------------------
 BASOPT| Total residuum value: -.48046883E+04

 BASOPT| Information at iteration number:    1700
 BASOPT| Training set | Combination | Rho difference | Condition num. | Time
 BASOPT| -----------------------------------------------------------------------
 BASOPT|        1     |       1     | 0.21736981E-02 | 0.24019503E+03 |  201.350
 BASOPT|        1     |       2     | 0.28294649E-02 | 0.19300763E+03 |  150.163
 BASOPT|        1     |       3     | 0.48721713E-02 | 0.11128852E+03 |  127.707
 BASOPT|        2     |       1     | 0.24147413E-02 | 0.59195682E+03 |  169.388
 BASOPT|        2     |       2     | 0.36742124E-02 | 0.36133528E+03 |  121.327
 BASOPT|        2     |       3     | 0.12288508E-01 | 0.15329525E+03 |  104.623
 BASOPT|        3     |       1     | 0.10229689E-02 | 0.85657489E+03 |  443.579
 BASOPT|        3     |       2     | 0.16788540E-02 | 0.52157557E+03 |  290.049
 BASOPT|        3     |       3     | 0.44632869E-02 | 0.20321644E+03 |  240.035
 BASOPT|        4     |       1     | 0.26377116E-02 | 0.80386197E+03 |  579.311
 BASOPT|        4     |       2     | 0.53633412E-02 | 0.47166595E+03 |  388.067
 BASOPT|        4     |       3     | 0.85381389E-02 | 0.20704480E+03 |  315.272
 BASOPT|        5     |       1     | 0.20743588E-02 | 0.41163884E+03 |  131.447
 BASOPT|        5     |       2     | 0.26013335E-02 | 0.26691723E+03 |  112.988
 BASOPT|        5     |       3     | 0.52702042E-02 | 0.12902188E+03 |   98.864
 BASOPT|        6     |       1     | 0.35169883E-02 | 0.39102559E+03 |  134.899
 BASOPT|        6     |       2     | 0.47522640E-02 | 0.19793756E+03 |  115.554
 BASOPT|        6     |       3     | 0.82039917E-02 | 0.85646340E+02 |   99.819
 BASOPT| -----------------------------------------------------------------------
 BASOPT| Total residuum value: -.48046913E+04

 BASOPT| Information at iteration number:    1800
 BASOPT| Training set | Combination | Rho difference | Condition num. | Time
 BASOPT| -----------------------------------------------------------------------
 BASOPT|        1     |       1     | 0.21679491E-02 | 0.24102082E+03 |  213.243
 BASOPT|        1     |       2     | 0.28218241E-02 | 0.19360330E+03 |  159.016
 BASOPT|        1     |       3     | 0.48722907E-02 | 0.11135402E+03 |  135.248
 BASOPT|        2     |       1     | 0.24152730E-02 | 0.59404741E+03 |  179.370
 BASOPT|        2     |       2     | 0.36833411E-02 | 0.36221511E+03 |  128.491
 BASOPT|        2     |       3     | 0.12259756E-01 | 0.15362629E+03 |  110.795
 BASOPT|        3     |       1     | 0.10226630E-02 | 0.85953764E+03 |  469.727
 BASOPT|        3     |       2     | 0.16776246E-02 | 0.52282601E+03 |  307.159
 BASOPT|        3     |       3     | 0.44853359E-02 | 0.20393339E+03 |  254.203
 BASOPT|        4     |       1     | 0.26367545E-02 | 0.80639319E+03 |  613.454
 BASOPT|        4     |       2     | 0.53700426E-02 | 0.47271271E+03 |  410.960
 BASOPT|        4     |       3     | 0.85788630E-02 | 0.20791692E+03 |  333.858
 BASOPT|        5     |       1     | 0.20622641E-02 | 0.41597178E+03 |  139.207
 BASOPT|        5     |       2     | 0.25873823E-02 | 0.26852348E+03 |  119.661
 BASOPT|        5     |       3     | 0.52388906E-02 | 0.12921243E+03 |  104.693
 BASOPT|        6     |       1     | 0.35106325E-02 | 0.39211857E+03 |  142.857
 BASOPT|        6     |       2     | 0.47434560E-02 | 0.19809337E+03 |  122.371
 BASOPT|        6     |       3     | 0.81681302E-02 | 0.86043931E+02 |  105.706
 BASOPT| -----------------------------------------------------------------------
 BASOPT| Total residuum value: -.48046933E+04

 BASOPT| Information at iteration number:    1900
 BASOPT| Training set | Combination | Rho difference | Condition num. | Time
 BASOPT| -----------------------------------------------------------------------
 BASOPT|        1     |       1     | 0.21632006E-02 | 0.24069816E+03 |  225.084
 BASOPT|        1     |       2     | 0.28151338E-02 | 0.19366659E+03 |  167.872
 BASOPT|        1     |       3     | 0.48699648E-02 | 0.11127789E+03 |  142.783
 BASOPT|        2     |       1     | 0.24191255E-02 | 0.59269706E+03 |  189.355
 BASOPT|        2     |       2     | 0.36916633E-02 | 0.36129456E+03 |  135.654
 BASOPT|        2     |       3     | 0.12257106E-01 | 0.15355524E+03 |  116.969
 BASOPT|        3     |       1     | 0.10233078E-02 | 0.85754106E+03 |  495.871
 BASOPT|        3     |       2     | 0.16769137E-02 | 0.52135322E+03 |  324.267
 BASOPT|        3     |       3     | 0.44962692E-02 | 0.20398674E+03 |  268.383
 BASOPT|        4     |       1     | 0.26365663E-02 | 0.80452449E+03 |  647.591
 BASOPT|        4     |       2     | 0.53726880E-02 | 0.47152571E+03 |  433.852
 BASOPT|        4     |       3     | 0.85989651E-02 | 0.20811699E+03 |  352.440
 BASOPT|        5     |       1     | 0.20537842E-02 | 0.41781383E+03 |  146.967
 BASOPT|        5     |       2     | 0.25772484E-02 | 0.26880114E+03 |  126.334
 BASOPT|        5     |       3     | 0.52256467E-02 | 0.12908098E+03 |  110.539
 BASOPT|        6     |       1     | 0.35030548E-02 | 0.39287715E+03 |  150.833
 BASOPT|        6     |       2     | 0.47346098E-02 | 0.19816284E+03 |  129.187
 BASOPT|        6     |       3     | 0.81496122E-02 | 0.86124774E+02 |  111.592
 BASOPT| -----------------------------------------------------------------------
 BASOPT| Total residuum value: -.48046943E+04

 BASOPT| Information at iteration number:    2000
 BASOPT| Training set | Combination | Rho difference | Condition num. | Time
 BASOPT| -----------------------------------------------------------------------
 BASOPT|        1     |       1     | 0.21608055E-02 | 0.24013402E+03 |  236.949
 BASOPT|        1     |       2     | 0.28099004E-02 | 0.19439733E+03 |  176.730
 BASOPT|        1     |       3     | 0.48906085E-02 | 0.11124012E+03 |  150.322
 BASOPT|        2     |       1     | 0.24218867E-02 | 0.58969226E+03 |  199.343
 BASOPT|        2     |       2     | 0.36970415E-02 | 0.36018215E+03 |  142.819
 BASOPT|        2     |       3     | 0.12238591E-01 | 0.15329532E+03 |  123.143
 BASOPT|        3     |       1     | 0.10203336E-02 | 0.85389710E+03 |  522.022
 BASOPT|        3     |       2     | 0.16689568E-02 | 0.52013140E+03 |  341.381
 BASOPT|        3     |       3     | 0.44893473E-02 | 0.20383740E+03 |  282.542
 BASOPT|        4     |       1     | 0.26281912E-02 | 0.80174368E+03 |  681.731
 BASOPT|        4     |       2     | 0.53594734E-02 | 0.47074789E+03 |  456.740
 BASOPT|        4     |       3     | 0.85709959E-02 | 0.20817877E+03 |  371.026
 BASOPT|        5     |       1     | 0.20445819E-02 | 0.42012955E+03 |  154.728
 BASOPT|        5     |       2     | 0.25652083E-02 | 0.26941060E+03 |  133.009
 BASOPT|        5     |       3     | 0.52418909E-02 | 0.12875493E+03 |  116.372
 BASOPT|        6     |       1     | 0.34998994E-02 | 0.39416155E+03 |  158.802
 BASOPT|        6     |       2     | 0.47295897E-02 | 0.19849471E+03 |  136.005
 BASOPT|        6     |       3     | 0.81792009E-02 | 0.86125484E+02 |  117.482
 BASOPT| -----------------------------------------------------------------------
 BASOPT| Total residuum value: -.48046965E+04

 BASOPT| Information at iteration number:    2100
 BASOPT| Training set | Combination | Rho difference | Condition num. | Time
 BASOPT| -----------------------------------------------------------------------
 BASOPT|        1     |       1     | 0.21625105E-02 | 0.23931995E+03 |  248.808
 BASOPT|        1     |       2     | 0.28076837E-02 | 0.19397483E+03 |  185.586
 BASOPT|        1     |       3     | 0.49110758E-02 | 0.11103708E+03 |  157.861
 BASOPT|        2     |       1     | 0.24280149E-02 | 0.58730869E+03 |  209.327
 BASOPT|        2     |       2     | 0.37006248E-02 | 0.35869290E+03 |  149.982
 BASOPT|        2     |       3     | 0.12229102E-01 | 0.15277450E+03 |  129.322
 BASOPT|        3     |       1     | 0.10195138E-02 | 0.85069382E+03 |  548.170
 BASOPT|        3     |       2     | 0.16620256E-02 | 0.51788443E+03 |  358.492
 BASOPT|        3     |       3     | 0.44760190E-02 | 0.20305260E+03 |  296.696
 BASOPT|        4     |       1     | 0.26248045E-02 | 0.79888978E+03 |  715.869
 BASOPT|        4     |       2     | 0.53500545E-02 | 0.46894221E+03 |  479.631
 BASOPT|        4     |       3     | 0.85481585E-02 | 0.20734611E+03 |  389.617
 BASOPT|        5     |       1     | 0.20451065E-02 | 0.42122855E+03 |  162.486
 BASOPT|        5     |       2     | 0.25625907E-02 | 0.26905056E+03 |  139.683
 BASOPT|        5     |       3     | 0.52699451E-02 | 0.12839595E+03 |  122.194
 BASOPT|        6     |       1     | 0.34991247E-02 | 0.39481352E+03 |  166.774
 BASOPT|        6     |       2     | 0.47281421E-02 | 0.19840793E+03 |  142.822
 BASOPT|        6     |       3     | 0.82160145E-02 | 0.85885053E+02 |  123.375
 BASOPT| -----------------------------------------------------------------------
 BASOPT| Total residuum value: -.48046988E+04

 BASOPT| Information at iteration number:    2200
 BASOPT| Training set | Combination | Rho difference | Condition num. | Time
 BASOPT| -----------------------------------------------------------------------
 BASOPT|        1     |       1     | 0.21632849E-02 | 0.23906114E+03 |  260.669
 BASOPT|        1     |       2     | 0.28079095E-02 | 0.19371682E+03 |  194.439
 BASOPT|        1     |       3     | 0.49081827E-02 | 0.11092369E+03 |  165.402
 BASOPT|        2     |       1     | 0.24284939E-02 | 0.58666060E+03 |  219.314
 BASOPT|        2     |       2     | 0.37033172E-02 | 0.35798684E+03 |  157.153
 BASOPT|        2     |       3     | 0.12238060E-01 | 0.15242000E+03 |  135.499
 BASOPT|        3     |       1     | 0.10204959E-02 | 0.84991360E+03 |  574.322
 BASOPT|        3     |       2     | 0.16630569E-02 | 0.51686328E+03 |  375.609
 BASOPT|        3     |       3     | 0.44781120E-02 | 0.20248308E+03 |  310.865
 BASOPT|        4     |       1     | 0.26257451E-02 | 0.79810429E+03 |  750.011
 BASOPT|        4     |       2     | 0.53553728E-02 | 0.46803775E+03 |  502.523
 BASOPT|        4     |       3     | 0.85591807E-02 | 0.20674129E+03 |  408.208
 BASOPT|        5     |       1     | 0.20473047E-02 | 0.42176857E+03 |  170.249
 BASOPT|        5     |       2     | 0.25657561E-02 | 0.26877608E+03 |  146.363
 BASOPT|        5     |       3     | 0.52717238E-02 | 0.12816784E+03 |  128.025
 BASOPT|        6     |       1     | 0.35029715E-02 | 0.39486608E+03 |  174.731
 BASOPT|        6     |       2     | 0.47322106E-02 | 0.19819387E+03 |  149.643
 BASOPT|        6     |       3     | 0.82169206E-02 | 0.85777150E+02 |  129.270
 BASOPT| -----------------------------------------------------------------------
 BASOPT| Total residuum value: -.48047002E+04

 BASOPT| Information at iteration number:    2300
 BASOPT| Training set | Combination | Rho difference | Condition num. | Time
 BASOPT| -----------------------------------------------------------------------
 BASOPT|        1     |       1     | 0.21602922E-02 | 0.23899949E+03 |  272.516
 BASOPT|        1     |       2     | 0.27996594E-02 | 0.19357293E+03 |  203.296
 BASOPT|        1     |       3     | 0.49012259E-02 | 0.11084830E+03 |  172.943
 BASOPT|        2     |       1     | 0.24283035E-02 | 0.58730695E+03 |  229.300
 BASOPT|        2     |       2     | 0.37039661E-02 | 0.35736220E+03 |  164.315
 BASOPT|        2     |       3     | 0.12268437E-01 | 0.15228201E+03 |  141.679
 BASOPT|        3     |       1     | 0.10193713E-02 | 0.85121334E+03 |  600.482
 BASOPT|        3     |       2     | 0.16562289E-02 | 0.51597693E+03 |  392.721
 BASOPT|        3     |       3     | 0.44603139E-02 | 0.20234133E+03 |  325.022
 BASOPT|        4     |       1     | 0.26256815E-02 | 0.80523910E+03 |  784.159
 BASOPT|        4     |       2     | 0.53554463E-02 | 0.46706001E+03 |  525.407
 BASOPT|        4     |       3     | 0.85592164E-02 | 0.20660700E+03 |  426.794
 BASOPT|        5     |       1     | 0.20454408E-02 | 0.42454439E+03 |  178.000
 BASOPT|        5     |       2     | 0.25602079E-02 | 0.26900006E+03 |  153.029
 BASOPT|        5     |       3     | 0.52907860E-02 | 0.12802219E+03 |  133.858
 BASOPT|        6     |       1     | 0.35004526E-02 | 0.39465096E+03 |  182.691
 BASOPT|        6     |       2     | 0.47269076E-02 | 0.19768935E+03 |  156.459
 BASOPT|        6     |       3     | 0.82323731E-02 | 0.85528519E+02 |  135.166
 BASOPT| -----------------------------------------------------------------------
 BASOPT| Total residuum value: -.48047021E+04

 BASOPT| Information at iteration number:    2400
 BASOPT| Training set | Combination | Rho difference | Condition num. | Time
 BASOPT| -----------------------------------------------------------------------
 BASOPT|        1     |       1     | 0.21580595E-02 | 0.23876708E+03 |  284.361
 BASOPT|        1     |       2     | 0.27959445E-02 | 0.19343734E+03 |  212.173
 BASOPT|        1     |       3     | 0.49000307E-02 | 0.11077440E+03 |  180.486
 BASOPT|        2     |       1     | 0.24276636E-02 | 0.58759552E+03 |  239.288
 BASOPT|        2     |       2     | 0.37020408E-02 | 0.35705227E+03 |  171.483
 BASOPT|        2     |       3     | 0.12275226E-01 | 0.15202910E+03 |  147.859
 BASOPT|        3     |       1     | 0.10184144E-02 | 0.85207844E+03 |  626.683
 BASOPT|        3     |       2     | 0.16539705E-02 | 0.51569485E+03 |  409.841
 BASOPT|        3     |       3     | 0.44551898E-02 | 0.20192286E+03 |  339.201
 BASOPT|        4     |       1     | 0.26273455E-02 | 0.80846685E+03 |  818.314
 BASOPT|        4     |       2     | 0.53612462E-02 | 0.46668978E+03 |  548.302
 BASOPT|        4     |       3     | 0.85708955E-02 | 0.20606180E+03 |  445.386
 BASOPT|        5     |       1     | 0.20480556E-02 | 0.42554309E+03 |  185.759
 BASOPT|        5     |       2     | 0.25621466E-02 | 0.26888021E+03 |  159.704
 BASOPT|        5     |       3     | 0.53075291E-02 | 0.12788101E+03 |  139.689
 BASOPT|        6     |       1     | 0.35009976E-02 | 0.39390283E+03 |  190.648
 BASOPT|        6     |       2     | 0.47266318E-02 | 0.19716130E+03 |  163.282
 BASOPT|        6     |       3     | 0.82474011E-02 | 0.85290906E+02 |  141.065
 BASOPT| -----------------------------------------------------------------------
 BASOPT| Total residuum value: -.48047031E+04

 BASOPT| Information at iteration number:    2500
 BASOPT| Training set | Combination | Rho difference | Condition num. | Time
 BASOPT| -----------------------------------------------------------------------
 BASOPT|        1     |       1     | 0.21549520E-02 | 0.23875702E+03 |  296.204
 BASOPT|        1     |       2     | 0.27901772E-02 | 0.19346928E+03 |  221.053
 BASOPT|        1     |       3     | 0.48956884E-02 | 0.11077202E+03 |  188.028
 BASOPT|        2     |       1     | 0.24261444E-02 | 0.58848219E+03 |  249.270
 BASOPT|        2     |       2     | 0.37040298E-02 | 0.35650859E+03 |  178.657
 BASOPT|        2     |       3     | 0.12321328E-01 | 0.15205920E+03 |  154.034
 BASOPT|        3     |       1     | 0.10183124E-02 | 0.85402731E+03 |  652.869
 BASOPT|        3     |       2     | 0.16527880E-02 | 0.51519053E+03 |  426.961
 BASOPT|        3     |       3     | 0.44277929E-02 | 0.20205143E+03 |  353.368
 BASOPT|        4     |       1     | 0.26291850E-02 | 0.81764491E+03 |  852.469
 BASOPT|        4     |       2     | 0.53713330E-02 | 0.46599880E+03 |  571.203
 BASOPT|        4     |       3     | 0.85609550E-02 | 0.20623419E+03 |  463.970
 BASOPT|        5     |       1     | 0.20472783E-02 | 0.42827271E+03 |  193.526
 BASOPT|        5     |       2     | 0.25609481E-02 | 0.26918259E+03 |  166.385
 BASOPT|        5     |       3     | 0.53414909E-02 | 0.12781352E+03 |  145.517
 BASOPT|        6     |       1     | 0.35017092E-02 | 0.39350920E+03 |  198.605
 BASOPT|        6     |       2     | 0.47254229E-02 | 0.19660610E+03 |  170.109
 BASOPT|        6     |       3     | 0.82833364E-02 | 0.85008951E+02 |  146.966
 BASOPT| -----------------------------------------------------------------------
 BASOPT| Total residuum value: -.48047042E+04

 BASOPT| Information at iteration number:    2600
 BASOPT| Training set | Combination | Rho difference | Condition num. | Time
 BASOPT| -----------------------------------------------------------------------
 BASOPT|        1     |       1     | 0.21493409E-02 | 0.23746029E+03 |  308.089
 BASOPT|        1     |       2     | 0.27791606E-02 | 0.19323977E+03 |  229.922
 BASOPT|        1     |       3     | 0.48879255E-02 | 0.11100787E+03 |  195.569
 BASOPT|        2     |       1     | 0.24252557E-02 | 0.58759336E+03 |  259.258
 BASOPT|        2     |       2     | 0.37019696E-02 | 0.35430580E+03 |  185.826
 BASOPT|        2     |       3     | 0.12341985E-01 | 0.15225566E+03 |  160.213
 BASOPT|        3     |       1     | 0.10177123E-02 | 0.85958684E+03 |  679.058
 BASOPT|        3     |       2     | 0.16488812E-02 | 0.51243360E+03 |  444.067
 BASOPT|        3     |       3     | 0.44146687E-02 | 0.20223494E+03 |  367.546
 BASOPT|        4     |       1     | 0.26336656E-02 | 0.83105189E+03 |  886.644
 BASOPT|        4     |       2     | 0.53811834E-02 | 0.46323199E+03 |  594.097
 BASOPT|        4     |       3     | 0.85738951E-02 | 0.20631882E+03 |  482.554
 BASOPT|        5     |       1     | 0.20535313E-02 | 0.43182244E+03 |  201.286
 BASOPT|        5     |       2     | 0.25646151E-02 | 0.26890910E+03 |  173.062
 BASOPT|        5     |       3     | 0.53775638E-02 | 0.12781256E+03 |  151.346
 BASOPT|        6     |       1     | 0.35022336E-02 | 0.39097255E+03 |  206.564
 BASOPT|        6     |       2     | 0.47228968E-02 | 0.19505572E+03 |  176.924
 BASOPT|        6     |       3     | 0.83073819E-02 | 0.84517360E+02 |  152.860
 BASOPT| -----------------------------------------------------------------------
 BASOPT| Total residuum value: -.48047077E+04

 BASOPT| Information at iteration number:    2700
 BASOPT| Training set | Combination | Rho difference | Condition num. | Time
 BASOPT| -----------------------------------------------------------------------
 BASOPT|        1     |       1     | 0.21504503E-02 | 0.23738598E+03 |  319.936
 BASOPT|        1     |       2     | 0.27793741E-02 | 0.19294306E+03 |  238.806
 BASOPT|        1     |       3     | 0.48907027E-02 | 0.11097914E+03 |  203.113
 BASOPT|        2     |       1     | 0.24244290E-02 | 0.58794991E+03 |  269.248
 BASOPT|        2     |       2     | 0.37002339E-02 | 0.35427581E+03 |  192.994
 BASOPT|        2     |       3     | 0.12340706E-01 | 0.15221655E+03 |  166.393
 BASOPT|        3     |       1     | 0.10173430E-02 | 0.86153727E+03 |  705.253
 BASOPT|        3     |       2     | 0.16476128E-02 | 0.51231269E+03 |  461.176
 BASOPT|        3     |       3     | 0.44082985E-02 | 0.20212771E+03 |  381.705
 BASOPT|        4     |       1     | 0.26318439E-02 | 0.83299916E+03 |  920.806
 BASOPT|        4     |       2     | 0.53791537E-02 | 0.46306197E+03 |  616.994
 BASOPT|        4     |       3     | 0.85650070E-02 | 0.20615535E+03 |  501.144
 BASOPT|        5     |       1     | 0.20557700E-02 | 0.43258752E+03 |  209.045
 BASOPT|        5     |       2     | 0.25665034E-02 | 0.26892742E+03 |  179.741
 BASOPT|        5     |       3     | 0.53842813E-02 | 0.12782741E+03 |  157.174
 BASOPT|        6     |       1     | 0.35046713E-02 | 0.39092603E+03 |  214.525
 BASOPT|        6     |       2     | 0.47253729E-02 | 0.19488934E+03 |  183.746
 BASOPT|        6     |       3     | 0.83170319E-02 | 0.84469488E+02 |  158.759
 BASOPT| -----------------------------------------------------------------------
 BASOPT| Total residuum value: -.48047085E+04

 BASOPT| Information at iteration number:    2800
 BASOPT| Training set | Combination | Rho difference | Condition num. | Time
 BASOPT| -----------------------------------------------------------------------
 BASOPT|        1     |       1     | 0.21536932E-02 | 0.23693831E+03 |  331.783
 BASOPT|        1     |       2     | 0.27805864E-02 | 0.19251496E+03 |  247.685
 BASOPT|        1     |       3     | 0.48977321E-02 | 0.11113956E+03 |  210.653
 BASOPT|        2     |       1     | 0.24241777E-02 | 0.58892998E+03 |  279.234
 BASOPT|        2     |       2     | 0.36983442E-02 | 0.35407830E+03 |  200.163
 BASOPT|        2     |       3     | 0.12345709E-01 | 0.15218176E+03 |  172.570
 BASOPT|        3     |       1     | 0.10168522E-02 | 0.86348670E+03 |  731.441
 BASOPT|        3     |       2     | 0.16435085E-02 | 0.51181744E+03 |  478.285
 BASOPT|        3     |       3     | 0.43990483E-02 | 0.20182887E+03 |  395.861
 BASOPT|        4     |       1     | 0.26292368E-02 | 0.83461810E+03 |  954.982
 BASOPT|        4     |       2     | 0.53720315E-02 | 0.46241883E+03 |  639.895
 BASOPT|        4     |       3     | 0.85432435E-02 | 0.20576077E+03 |  519.733
 BASOPT|        5     |       1     | 0.20621153E-02 | 0.43334059E+03 |  216.804
 BASOPT|        5     |       2     | 0.25711729E-02 | 0.26873096E+03 |  186.416
 BASOPT|        5     |       3     | 0.53922767E-02 | 0.12789995E+03 |  163.024
 BASOPT|        6     |       1     | 0.35114394E-02 | 0.39043415E+03 |  222.485
 BASOPT|        6     |       2     | 0.47312934E-02 | 0.19458655E+03 |  190.568
 BASOPT|        6     |       3     | 0.83292903E-02 | 0.84423983E+02 |  164.654
 BASOPT| -----------------------------------------------------------------------
 BASOPT| Total residuum value: -.48047103E+04

 BASOPT| Information at iteration number:    2900
 BASOPT| Training set | Combination | Rho difference | Condition num. | Time
 BASOPT| -----------------------------------------------------------------------
 BASOPT|        1     |       1     | 0.21546981E-02 | 0.23672591E+03 |  343.657
 BASOPT|        1     |       2     | 0.27809825E-02 | 0.19236985E+03 |  256.568
 BASOPT|        1     |       3     | 0.48899534E-02 | 0.11123186E+03 |  218.196
 BASOPT|        2     |       1     | 0.24250982E-02 | 0.58992637E+03 |  289.221
 BASOPT|        2     |       2     | 0.36996617E-02 | 0.35399569E+03 |  207.334
 BASOPT|        2     |       3     | 0.12372005E-01 | 0.15227918E+03 |  178.749
 BASOPT|        3     |       1     | 0.10171933E-02 | 0.86740796E+03 |  757.635
 BASOPT|        3     |       2     | 0.16445008E-02 | 0.51175925E+03 |  495.401
 BASOPT|        3     |       3     | 0.43906244E-02 | 0.20191991E+03 |  410.020
 BASOPT|        4     |       1     | 0.26320129E-02 | 0.83830667E+03 |  989.150
 BASOPT|        4     |       2     | 0.53779044E-02 | 0.46217102E+03 |  662.793
 BASOPT|        4     |       3     | 0.85451680E-02 | 0.20578397E+03 |  538.318
 BASOPT|        5     |       1     | 0.20674189E-02 | 0.43461436E+03 |  224.570
 BASOPT|        5     |       2     | 0.25766338E-02 | 0.26883567E+03 |  193.095
 BASOPT|        5     |       3     | 0.54041617E-02 | 0.12796419E+03 |  168.856
 BASOPT|        6     |       1     | 0.35178262E-02 | 0.38984337E+03 |  230.442
 BASOPT|        6     |       2     | 0.47365180E-02 | 0.19430455E+03 |  197.390
 BASOPT|        6     |       3     | 0.83389763E-02 | 0.84280932E+02 |  170.551
 BASOPT| -----------------------------------------------------------------------
 BASOPT| Total residuum value: -.48047116E+04

 BASOPT| Information at iteration number:    3000
 BASOPT| Training set | Combination | Rho difference | Condition num. | Time
 BASOPT| -----------------------------------------------------------------------
 BASOPT|        1     |       1     | 0.21554040E-02 | 0.23635692E+03 |  355.503
 BASOPT|        1     |       2     | 0.27798282E-02 | 0.19172882E+03 |  265.455
 BASOPT|        1     |       3     | 0.48938783E-02 | 0.11129943E+03 |  225.737
 BASOPT|        2     |       1     | 0.24260888E-02 | 0.59040121E+03 |  299.216
 BASOPT|        2     |       2     | 0.36975902E-02 | 0.35354945E+03 |  214.503
 BASOPT|        2     |       3     | 0.12379898E-01 | 0.15212156E+03 |  184.927
 BASOPT|        3     |       1     | 0.10169658E-02 | 0.86850127E+03 |  783.828
 BASOPT|        3     |       2     | 0.16415384E-02 | 0.51107509E+03 |  512.512
 BASOPT|        3     |       3     | 0.43796178E-02 | 0.20141586E+03 |  424.175
 BASOPT|        4     |       1     | 0.26324752E-02 | 0.83901577E+03 | 1023.315
 BASOPT|        4     |       2     | 0.53745553E-02 | 0.46136912E+03 |  685.681
 BASOPT|        4     |       3     | 0.85276914E-02 | 0.20513701E+03 |  556.902
 BASOPT|        5     |       1     | 0.20727498E-02 | 0.43515914E+03 |  232.333
 BASOPT|        5     |       2     | 0.25801428E-02 | 0.26847188E+03 |  199.770
 BASOPT|        5     |       3     | 0.54080055E-02 | 0.12796975E+03 |  174.685
 BASOPT|        6     |       1     | 0.35201958E-02 | 0.38924258E+03 |  238.403
 BASOPT|        6     |       2     | 0.47385921E-02 | 0.19391719E+03 |  204.212
 BASOPT|        6     |       3     | 0.83434456E-02 | 0.84241562E+02 |  176.446
 BASOPT| -----------------------------------------------------------------------
 BASOPT| Total residuum value: -.48047122E+04

 BASOPT| Information at iteration number:    3100
 BASOPT| Training set | Combination | Rho difference | Condition num. | Time
 BASOPT| -----------------------------------------------------------------------
 BASOPT|        1     |       1     | 0.21565757E-02 | 0.23637395E+03 |  367.360
 BASOPT|        1     |       2     | 0.27803347E-02 | 0.19108020E+03 |  274.338
 BASOPT|        1     |       3     | 0.48955114E-02 | 0.11117847E+03 |  233.277
 BASOPT|        2     |       1     | 0.24235636E-02 | 0.59130178E+03 |  309.223
 BASOPT|        2     |       2     | 0.36938013E-02 | 0.35369817E+03 |  221.674
 BASOPT|        2     |       3     | 0.12375342E-01 | 0.15184285E+03 |  191.104
 BASOPT|        3     |       1     | 0.10157433E-02 | 0.86853167E+03 |  810.038
 BASOPT|        3     |       2     | 0.16403001E-02 | 0.51129196E+03 |  529.625
 BASOPT|        3     |       3     | 0.43808618E-02 | 0.20085496E+03 |  438.323
 BASOPT|        4     |       1     | 0.26292525E-02 | 0.83840007E+03 | 1057.480
 BASOPT|        4     |       2     | 0.53713107E-02 | 0.46137079E+03 |  708.580
 BASOPT|        4     |       3     | 0.85253601E-02 | 0.20442835E+03 |  575.482
 BASOPT|        5     |       1     | 0.20776618E-02 | 0.43557803E+03 |  240.100
 BASOPT|        5     |       2     | 0.25848755E-02 | 0.26837821E+03 |  206.452
 BASOPT|        5     |       3     | 0.54103950E-02 | 0.12790644E+03 |  180.557
 BASOPT|        6     |       1     | 0.35253385E-02 | 0.38877102E+03 |  246.366
 BASOPT|        6     |       2     | 0.47445817E-02 | 0.19365208E+03 |  211.032
 BASOPT|        6     |       3     | 0.83482662E-02 | 0.84140854E+02 |  182.342
 BASOPT| -----------------------------------------------------------------------
 BASOPT| Total residuum value: -.48047143E+04

 BASOPT| Information at iteration number:    3200
 BASOPT| Training set | Combination | Rho difference | Condition num. | Time
 BASOPT| -----------------------------------------------------------------------
 BASOPT|        1     |       1     | 0.21542196E-02 | 0.23665582E+03 |  379.198
 BASOPT|        1     |       2     | 0.27768027E-02 | 0.19072919E+03 |  283.224
 BASOPT|        1     |       3     | 0.48922988E-02 | 0.11126769E+03 |  240.821
 BASOPT|        2     |       1     | 0.24241194E-02 | 0.59263323E+03 |  319.228
 BASOPT|        2     |       2     | 0.36977476E-02 | 0.35415786E+03 |  228.846
 BASOPT|        2     |       3     | 0.12401673E-01 | 0.15213382E+03 |  197.279
 BASOPT|        3     |       1     | 0.10163279E-02 | 0.87080939E+03 |  836.237
 BASOPT|        3     |       2     | 0.16415857E-02 | 0.51167373E+03 |  546.737
 BASOPT|        3     |       3     | 0.43791965E-02 | 0.20123023E+03 |  452.468
 BASOPT|        4     |       1     | 0.26284592E-02 | 0.84101807E+03 | 1091.644
 BASOPT|        4     |       2     | 0.53709563E-02 | 0.46156756E+03 |  731.489
 BASOPT|        4     |       3     | 0.85159619E-02 | 0.20484788E+03 |  594.055
 BASOPT|        5     |       1     | 0.20721918E-02 | 0.43695505E+03 |  247.863
 BASOPT|        5     |       2     | 0.25780446E-02 | 0.26888905E+03 |  213.132
 BASOPT|        5     |       3     | 0.54108313E-02 | 0.12813913E+03 |  186.396
 BASOPT|        6     |       1     | 0.35216337E-02 | 0.38914072E+03 |  254.329
 BASOPT|        6     |       2     | 0.47400906E-02 | 0.19381639E+03 |  217.857
 BASOPT|        6     |       3     | 0.83487091E-02 | 0.84156278E+02 |  188.238
 BASOPT| -----------------------------------------------------------------------
 BASOPT| Total residuum value: -.48047154E+04

 BASOPT| Information at iteration number:    3300
 BASOPT| Training set | Combination | Rho difference | Condition num. | Time
 BASOPT| -----------------------------------------------------------------------
 BASOPT|        1     |       1     | 0.21580940E-02 | 0.23644031E+03 |  391.040
 BASOPT|        1     |       2     | 0.27791045E-02 | 0.19028768E+03 |  292.117
 BASOPT|        1     |       3     | 0.48940181E-02 | 0.11120903E+03 |  248.362
 BASOPT|        2     |       1     | 0.24209614E-02 | 0.59270868E+03 |  329.232
 BASOPT|        2     |       2     | 0.36929751E-02 | 0.35364285E+03 |  236.016
 BASOPT|        2     |       3     | 0.12407025E-01 | 0.15210031E+03 |  203.459
 BASOPT|        3     |       1     | 0.10157062E-02 | 0.87118857E+03 |  862.439
 BASOPT|        3     |       2     | 0.16386452E-02 | 0.51090988E+03 |  563.851
 BASOPT|        3     |       3     | 0.43685245E-02 | 0.20116705E+03 |  466.611
 BASOPT|        4     |       1     | 0.26253803E-02 | 0.84146005E+03 | 1125.809
 BASOPT|        4     |       2     | 0.53638255E-02 | 0.46073638E+03 |  754.395
 BASOPT|        4     |       3     | 0.84976430E-02 | 0.20479301E+03 |  612.644
 BASOPT|        5     |       1     | 0.20798382E-02 | 0.43727905E+03 |  255.626
 BASOPT|        5     |       2     | 0.25843834E-02 | 0.26865653E+03 |  219.809
 BASOPT|        5     |       3     | 0.54196083E-02 | 0.12810254E+03 |  192.234
 BASOPT|        6     |       1     | 0.35273011E-02 | 0.38876725E+03 |  262.288
 BASOPT|        6     |       2     | 0.47459905E-02 | 0.19356378E+03 |  224.678
 BASOPT|        6     |       3     | 0.83595760E-02 | 0.84085601E+02 |  194.137
 BASOPT| -----------------------------------------------------------------------
 BASOPT| Total residuum value: -.48047163E+04

 BASOPT| Information at iteration number:    3400
 BASOPT| Training set | Combination | Rho difference | Condition num. | Time
 BASOPT| -----------------------------------------------------------------------
 BASOPT|        1     |       1     | 0.21622180E-02 | 0.23642561E+03 |  402.884
 BASOPT|        1     |       2     | 0.27824049E-02 | 0.18960942E+03 |  300.996
 BASOPT|        1     |       3     | 0.49032350E-02 | 0.11097763E+03 |  255.902
 BASOPT|        2     |       1     | 0.24173224E-02 | 0.59327514E+03 |  339.236
 BASOPT|        2     |       2     | 0.36896427E-02 | 0.35328242E+03 |  243.185
 BASOPT|        2     |       3     | 0.12424889E-01 | 0.15176123E+03 |  209.634
 BASOPT|        3     |       1     | 0.10167985E-02 | 0.87319172E+03 |  888.639
 BASOPT|        3     |       2     | 0.16390955E-02 | 0.51040178E+03 |  580.962
 BASOPT|        3     |       3     | 0.43540204E-02 | 0.20061361E+03 |  480.752
 BASOPT|        4     |       1     | 0.26240080E-02 | 0.84336007E+03 | 1159.978
 BASOPT|        4     |       2     | 0.53632425E-02 | 0.46007137E+03 |  777.291
 BASOPT|        4     |       3     | 0.84815316E-02 | 0.20410036E+03 |  631.216
 BASOPT|        5     |       1     | 0.20899303E-02 | 0.43807128E+03 |  263.390
 BASOPT|        5     |       2     | 0.25945534E-02 | 0.26850271E+03 |  226.483
 BASOPT|        5     |       3     | 0.54575015E-02 | 0.12793188E+03 |  198.072
 BASOPT|        6     |       1     | 0.35339484E-02 | 0.38841392E+03 |  270.248
 BASOPT|        6     |       2     | 0.47529852E-02 | 0.19313305E+03 |  231.498
 BASOPT|        6     |       3     | 0.84017522E-02 | 0.83727392E+02 |  200.035
 BASOPT| -----------------------------------------------------------------------
 BASOPT| Total residuum value: -.48047176E+04

 BASOPT| Information at iteration number:    3500
 BASOPT| Training set | Combination | Rho difference | Condition num. | Time
 BASOPT| -----------------------------------------------------------------------
 BASOPT|        1     |       1     | 0.21616094E-02 | 0.23674295E+03 |  414.762
 BASOPT|        1     |       2     | 0.27819054E-02 | 0.18922726E+03 |  309.885
 BASOPT|        1     |       3     | 0.49010985E-02 | 0.11086630E+03 |  263.445
 BASOPT|        2     |       1     | 0.24150573E-02 | 0.59473954E+03 |  349.239
 BASOPT|        2     |       2     | 0.36897809E-02 | 0.35357641E+03 |  250.357
 BASOPT|        2     |       3     | 0.12432245E-01 | 0.15152836E+03 |  215.812
 BASOPT|        3     |       1     | 0.10172201E-02 | 0.87488949E+03 |  914.837
 BASOPT|        3     |       2     | 0.16410845E-02 | 0.51087709E+03 |  598.076
 BASOPT|        3     |       3     | 0.43570165E-02 | 0.20017433E+03 |  494.898
 BASOPT|        4     |       1     | 0.26238145E-02 | 0.84457314E+03 | 1194.142
 BASOPT|        4     |       2     | 0.53673397E-02 | 0.46029851E+03 |  800.188
 BASOPT|        4     |       3     | 0.84912706E-02 | 0.20354835E+03 |  649.786
 BASOPT|        5     |       1     | 0.20914484E-02 | 0.43898876E+03 |  271.153
 BASOPT|        5     |       2     | 0.25968323E-02 | 0.26865162E+03 |  233.163
 BASOPT|        5     |       3     | 0.54596288E-02 | 0.12787300E+03 |  203.905
 BASOPT|        6     |       1     | 0.35356654E-02 | 0.38826404E+03 |  278.209
 BASOPT|        6     |       2     | 0.47549877E-02 | 0.19292203E+03 |  238.321
 BASOPT|        6     |       3     | 0.84027051E-02 | 0.83647159E+02 |  205.935
 BASOPT| -----------------------------------------------------------------------
 BASOPT| Total residuum value: -.48047185E+04

 BASOPT| Information at iteration number:    3600
 BASOPT| Training set | Combination | Rho difference | Condition num. | Time
 BASOPT| -----------------------------------------------------------------------
 BASOPT|        1     |       1     | 0.21589824E-02 | 0.23679908E+03 |  426.692
 BASOPT|        1     |       2     | 0.27774485E-02 | 0.18881354E+03 |  318.767
 BASOPT|        1     |       3     | 0.49014596E-02 | 0.11086054E+03 |  270.992
 BASOPT|        2     |       1     | 0.24097915E-02 | 0.59632328E+03 |  359.302
 BASOPT|        2     |       2     | 0.36856949E-02 | 0.35312506E+03 |  257.528
 BASOPT|        2     |       3     | 0.12444616E-01 | 0.15178339E+03 |  221.984
 BASOPT|        3     |       1     | 0.10171394E-02 | 0.87981592E+03 |  941.037
 BASOPT|        3     |       2     | 0.16405342E-02 | 0.51029908E+03 |  615.191
 BASOPT|        3     |       3     | 0.43493462E-02 | 0.20061987E+03 |  509.043
 BASOPT|        4     |       1     | 0.26229202E-02 | 0.84982865E+03 | 1228.305
 BASOPT|        4     |       2     | 0.53673861E-02 | 0.45939408E+03 |  823.080
 BASOPT|        4     |       3     | 0.84815285E-02 | 0.20404422E+03 |  668.351
 BASOPT|        5     |       1     | 0.20930234E-02 | 0.44100418E+03 |  278.914
 BASOPT|        5     |       2     | 0.25967946E-02 | 0.26886543E+03 |  239.840
 BASOPT|        5     |       3     | 0.54743559E-02 | 0.12796366E+03 |  209.738
 BASOPT|        6     |       1     | 0.35341663E-02 | 0.38757868E+03 |  286.168
 BASOPT|        6     |       2     | 0.47524844E-02 | 0.19250058E+03 |  245.145
 BASOPT|        6     |       3     | 0.84152788E-02 | 0.83472573E+02 |  211.834
 BASOPT| -----------------------------------------------------------------------
 BASOPT| Total residuum value: -.48047199E+04

 BASOPT| Information at iteration number:    3700
 BASOPT| Training set | Combination | Rho difference | Condition num. | Time
 BASOPT| -----------------------------------------------------------------------
 BASOPT|        1     |       1     | 0.21527491E-02 | 0.23854756E+03 |  438.629
 BASOPT|        1     |       2     | 0.27687233E-02 | 0.18830867E+03 |  327.642
 BASOPT|        1     |       3     | 0.48877929E-02 | 0.11065039E+03 |  278.536
 BASOPT|        2     |       1     | 0.24082223E-02 | 0.60244281E+03 |  369.368
 BASOPT|        2     |       2     | 0.36871928E-02 | 0.35536418E+03 |  264.699
 BASOPT|        2     |       3     | 0.12481375E-01 | 0.15184840E+03 |  228.156
 BASOPT|        3     |       1     | 0.10176659E-02 | 0.88483869E+03 |  967.228
 BASOPT|        3     |       2     | 0.16394619E-02 | 0.51338012E+03 |  632.306
 BASOPT|        3     |       3     | 0.43416488E-02 | 0.20083400E+03 |  523.181
 BASOPT|        4     |       1     | 0.26243545E-02 | 0.85377829E+03 | 1262.462
 BASOPT|        4     |       2     | 0.53694544E-02 | 0.46152671E+03 |  845.972
 BASOPT|        4     |       3     | 0.84863789E-02 | 0.20422221E+03 |  686.908
 BASOPT|        5     |       1     | 0.20865076E-02 | 0.44411044E+03 |  286.684
 BASOPT|        5     |       2     | 0.25881153E-02 | 0.27010634E+03 |  246.520
 BASOPT|        5     |       3     | 0.54722267E-02 | 0.12813749E+03 |  215.571
 BASOPT|        6     |       1     | 0.35290775E-02 | 0.38817506E+03 |  294.129
 BASOPT|        6     |       2     | 0.47450092E-02 | 0.19255170E+03 |  251.971
 BASOPT|        6     |       3     | 0.84126934E-02 | 0.83461069E+02 |  217.734
 BASOPT| -----------------------------------------------------------------------
 BASOPT| Total residuum value: -.48047215E+04

 BASOPT| Information at iteration number:    3800
 BASOPT| Training set | Combination | Rho difference | Condition num. | Time
 BASOPT| -----------------------------------------------------------------------
 BASOPT|        1     |       1     | 0.21523368E-02 | 0.23904622E+03 |  450.562
 BASOPT|        1     |       2     | 0.27665095E-02 | 0.18858996E+03 |  336.529
 BASOPT|        1     |       3     | 0.48779922E-02 | 0.11058378E+03 |  286.078
 BASOPT|        2     |       1     | 0.24077506E-02 | 0.60289107E+03 |  379.405
 BASOPT|        2     |       2     | 0.36870903E-02 | 0.35573903E+03 |  271.872
 BASOPT|        2     |       3     | 0.12486799E-01 | 0.15194215E+03 |  234.332
 BASOPT|        3     |       1     | 0.10158079E-02 | 0.88956174E+03 |  993.430
 BASOPT|        3     |       2     | 0.16360633E-02 | 0.51407218E+03 |  649.424
 BASOPT|        3     |       3     | 0.43426869E-02 | 0.20112639E+03 |  537.328
 BASOPT|        4     |       1     | 0.26203892E-02 | 0.85925993E+03 | 1296.616
 BASOPT|        4     |       2     | 0.53627996E-02 | 0.46213887E+03 |  868.856
 BASOPT|        4     |       3     | 0.84925075E-02 | 0.20463281E+03 |  705.472
 BASOPT|        5     |       1     | 0.20823987E-02 | 0.44583638E+03 |  294.451
 BASOPT|        5     |       2     | 0.25825390E-02 | 0.27086146E+03 |  253.198
 BASOPT|        5     |       3     | 0.54676323E-02 | 0.12813824E+03 |  221.407
 BASOPT|        6     |       1     | 0.35281383E-02 | 0.38882565E+03 |  302.091
 BASOPT|        6     |       2     | 0.47429928E-02 | 0.19274426E+03 |  258.801
 BASOPT|        6     |       3     | 0.84068235E-02 | 0.83469353E+02 |  223.635
 BASOPT| -----------------------------------------------------------------------
 BASOPT| Total residuum value: -.48047218E+04

 BASOPT| Information at iteration number:    3900
 BASOPT| Training set | Combination | Rho difference | Condition num. | Time
 BASOPT| -----------------------------------------------------------------------
 BASOPT|        1     |       1     | 0.21523502E-02 | 0.23967127E+03 |  462.490
 BASOPT|        1     |       2     | 0.27654919E-02 | 0.18886362E+03 |  345.403
 BASOPT|        1     |       3     | 0.48813799E-02 | 0.11058847E+03 |  293.623
 BASOPT|        2     |       1     | 0.24107856E-02 | 0.60430384E+03 |  389.409
 BASOPT|        2     |       2     | 0.36905275E-02 | 0.35654717E+03 |  279.038
 BASOPT|        2     |       3     | 0.12481616E-01 | 0.15197389E+03 |  240.503
 BASOPT|        3     |       1     | 0.10154648E-02 | 0.89314633E+03 | 1019.622
 BASOPT|        3     |       2     | 0.16346703E-02 | 0.51555593E+03 |  666.535
 BASOPT|        3     |       3     | 0.43419048E-02 | 0.20120551E+03 |  551.470
 BASOPT|        4     |       1     | 0.26214436E-02 | 0.86264971E+03 | 1330.767
 BASOPT|        4     |       2     | 0.53656758E-02 | 0.46335225E+03 |  891.740
 BASOPT|        4     |       3     | 0.84995374E-02 | 0.20470635E+03 |  724.083
 BASOPT|        5     |       1     | 0.20821852E-02 | 0.44732345E+03 |  302.210
 BASOPT|        5     |       2     | 0.25819806E-02 | 0.27152973E+03 |  259.871
 BASOPT|        5     |       3     | 0.54725913E-02 | 0.12817574E+03 |  227.246
 BASOPT|        6     |       1     | 0.35295185E-02 | 0.38915956E+03 |  310.054
 BASOPT|        6     |       2     | 0.47426341E-02 | 0.19277653E+03 |  265.627
[...]
 BASOPT| Total residuum value: -.48048419E+04

 BASOPT| Information at iteration number:   30900
 BASOPT| Training set | Combination | Rho difference | Condition num. | Time
 BASOPT| -----------------------------------------------------------------------
 BASOPT|        1     |       1     | 0.20885409E-02 | 0.23035072E+03 | 3686.752
 BASOPT|        1     |       2     | 0.26458286E-02 | 0.17572166E+03 | 2711.278
 BASOPT|        1     |       3     | 0.50305585E-02 | 0.10684034E+03 | 2375.193
 BASOPT|        2     |       1     | 0.32317962E-02 | 0.59924073E+03 | 2959.410
 BASOPT|        2     |       2     | 0.39052025E-02 | 0.32480755E+03 | 2163.991
 BASOPT|        2     |       3     | 0.12434753E-01 | 0.14505661E+03 | 1864.400
 BASOPT|        3     |       1     | 0.10105678E-02 | 0.91738001E+03 | 8105.674
 BASOPT|        3     |       2     | 0.15444064E-02 | 0.45924173E+03 | 5252.583
 BASOPT|        3     |       3     | 0.43346536E-02 | 0.19711789E+03 | 4414.132
 BASOPT|        4     |       1     | 0.39162880E-02 | 0.85342199E+03 | ********
 BASOPT|        4     |       2     | 0.54641020E-02 | 0.41210475E+03 | 7058.129
 BASOPT|        4     |       3     | 0.87836890E-02 | 0.20266586E+03 | 6446.288
 BASOPT|        5     |       1     | 0.19961952E-02 | 0.46538693E+03 | 2356.751
 BASOPT|        5     |       2     | 0.25004795E-02 | 0.25521950E+03 | 1996.507
 BASOPT|        5     |       3     | 0.56342998E-02 | 0.12230275E+03 | 1701.233
 BASOPT|        6     |       1     | 0.37021209E-02 | 0.25182644E+03 | 2332.213
 BASOPT|        6     |       2     | 0.47281385E-02 | 0.18656213E+03 | 2051.644
 BASOPT|        6     |       3     | 0.85614269E-02 | 0.80782505E+02 | 1828.709
 BASOPT| -----------------------------------------------------------------------
 BASOPT| Total residuum value: -.48048419E+04

 BASOPT| Information at iteration number:   31000
 BASOPT| Training set | Combination | Rho difference | Condition num. | Time
 BASOPT| -----------------------------------------------------------------------
 BASOPT|        1     |       1     | 0.20885409E-02 | 0.23035072E+03 | 3698.510
 BASOPT|        1     |       2     | 0.26458286E-02 | 0.17572166E+03 | 2720.038
 BASOPT|        1     |       3     | 0.50305585E-02 | 0.10684034E+03 | 2382.932
 BASOPT|        2     |       1     | 0.32317962E-02 | 0.59924073E+03 | 2968.974
 BASOPT|        2     |       2     | 0.39052025E-02 | 0.32480755E+03 | 2170.998
 BASOPT|        2     |       3     | 0.12434753E-01 | 0.14505661E+03 | 1870.439
 BASOPT|        3     |       1     | 0.10105678E-02 | 0.91738001E+03 | 8131.928
 BASOPT|        3     |       2     | 0.15444064E-02 | 0.45924173E+03 | 5269.587
 BASOPT|        3     |       3     | 0.43346536E-02 | 0.19711789E+03 | 4428.411
 BASOPT|        4     |       1     | 0.39162880E-02 | 0.85342199E+03 | ********
 BASOPT|        4     |       2     | 0.54641020E-02 | 0.41210475E+03 | 7081.011
 BASOPT|        4     |       3     | 0.87836890E-02 | 0.20266586E+03 | 6467.129
 BASOPT|        5     |       1     | 0.19961952E-02 | 0.46538693E+03 | 2364.294
 BASOPT|        5     |       2     | 0.25004795E-02 | 0.25521950E+03 | 2002.974
 BASOPT|        5     |       3     | 0.56342998E-02 | 0.12230275E+03 | 1706.730
 BASOPT|        6     |       1     | 0.37021209E-02 | 0.25182644E+03 | 2339.781
 BASOPT|        6     |       2     | 0.47281385E-02 | 0.18656213E+03 | 2058.290
 BASOPT|        6     |       3     | 0.85614270E-02 | 0.80782505E+02 | 1834.610
 BASOPT| -----------------------------------------------------------------------
 BASOPT| Total residuum value: -.48048419E+04

 BASOPT| Information at iteration number:   31100
 BASOPT| Training set | Combination | Rho difference | Condition num. | Time
 BASOPT| -----------------------------------------------------------------------
 BASOPT|        1     |       1     | 0.20885409E-02 | 0.23035072E+03 | 3710.307
 BASOPT|        1     |       2     | 0.26458286E-02 | 0.17572166E+03 | 2728.796
 BASOPT|        1     |       3     | 0.50305585E-02 | 0.10684034E+03 | 2390.681
 BASOPT|        2     |       1     | 0.32317962E-02 | 0.59924073E+03 | 2978.542
 BASOPT|        2     |       2     | 0.39052025E-02 | 0.32480755E+03 | 2178.008
 BASOPT|        2     |       3     | 0.12434753E-01 | 0.14505661E+03 | 1876.479
 BASOPT|        3     |       1     | 0.10105678E-02 | 0.91738001E+03 | 8158.183
 BASOPT|        3     |       2     | 0.15444064E-02 | 0.45924173E+03 | 5286.593
 BASOPT|        3     |       3     | 0.43346536E-02 | 0.19711789E+03 | 4442.699
 BASOPT|        4     |       1     | 0.39162880E-02 | 0.85342199E+03 | ********
 BASOPT|        4     |       2     | 0.54641020E-02 | 0.41210475E+03 | 7103.894
 BASOPT|        4     |       3     | 0.87836890E-02 | 0.20266586E+03 | 6487.975
 BASOPT|        5     |       1     | 0.19961952E-02 | 0.46538693E+03 | 2371.838
 BASOPT|        5     |       2     | 0.25004795E-02 | 0.25521950E+03 | 2009.440
 BASOPT|        5     |       3     | 0.56342998E-02 | 0.12230275E+03 | 1712.229
 BASOPT|        6     |       1     | 0.37021209E-02 | 0.25182644E+03 | 2347.329
 BASOPT|        6     |       2     | 0.47281385E-02 | 0.18656213E+03 | 2064.934
 BASOPT|        6     |       3     | 0.85614270E-02 | 0.80782505E+02 | 1840.537
 BASOPT| -----------------------------------------------------------------------
 BASOPT| Total residuum value: -.48048419E+04


 -------------------------------------------------------------------------------
 -                                                                             -
 -                                DBCSR STATISTICS                             -
 -                                                                             -
 -------------------------------------------------------------------------------
 COUNTER                                    TOTAL       BLAS       SMM       ACC
 flops   116 x   144 x    15              1503360       0.0%    100.0%      0.0%
 flops   144 x   116 x    15              1503360       0.0%    100.0%      0.0%
 flops   116 x   116 x    10              1614720       0.0%    100.0%      0.0%
 flops   116 x   116 x    11              1776192       0.0%    100.0%      0.0%
 flops   144 x   144 x    15              1866240       0.0%    100.0%      0.0%
 flops   116 x   144 x    10              2004480       0.0%    100.0%      0.0%
 flops   116 x   144 x    11              2204928       0.0%    100.0%      0.0%
 flops   144 x   144 x    10              2488320       0.0%    100.0%      0.0%
 flops   144 x   144 x    11              2737152       0.0%    100.0%      0.0%
 flops   116 x   144 x    14              2806272       0.0%    100.0%      0.0%
 flops   144 x   116 x    14              2806272       0.0%    100.0%      0.0%
 flops   144 x   144 x    14              3483648       0.0%    100.0%      0.0%
 flops   116 x   116 x    15              3633120       0.0%    100.0%      0.0%
 flops   116 x   116 x    14              6781824       0.0%    100.0%      0.0%
 flops   144 x   144 x    20              7464960       0.0%    100.0%      0.0%
 flops   144 x   116 x    20             12026880       0.0%    100.0%      0.0%
 flops   116 x   144 x    20             12026880       0.0%    100.0%      0.0%
 flops   116 x   116 x    20             48441600       0.0%    100.0%      0.0%
 flops inhomo. stacks                           0       0.0%      0.0%      0.0%
 flops total                       117.170208E+06       0.0%    100.0%      0.0%
 flops max/rank                      6.718720E+06       0.0%    100.0%      0.0%
 matmuls inhomo. stacks                         0       0.0%      0.0%      0.0%
 matmuls total                                225       0.0%    100.0%      0.0%
 number of processed stacks                   135       0.0%    100.0%      0.0%
 average stack size                                     0.0       1.7       0.0
 marketing flops                   186.589248E+06
 -------------------------------------------------------------------------------
 # multiplications                              2
 max memory usage/rank             160.419840E+06
 # max total images/rank                        3
 # max 3D layers                                1
 # MPI messages exchanged                     132
 MPI messages size (bytes):
  total size                         2.789184E+06
  min size                           0.000000E+00
  max size                          97.280000E+03
  average size                      21.130182E+03
 MPI breakdown and total messages size (bytes):
             size <=      128                  84                        0
       128 < size <=     8192                   0                        0
      8192 < size <=    32768                  12                   262080
     32768 < size <=   131072                  36                  2527104
    131072 < size <=  4194304                   0                        0
   4194304 < size <= 16777216                   0                        0
  16777216 < size                               0                        0
 -------------------------------------------------------------------------------

 *** WARNING in dbcsr_mm.F:294 :: Using a non-square number of MPI ranks ***
 *** might lead to poor performance. Used ranks: 3 Suggested: 4 4        ***

 -------------------------------------------------------------------------------
 -                                                                             -
 -                      DBCSR MESSAGE PASSING PERFORMANCE                      -
 -                                                                             -
 -------------------------------------------------------------------------------
 ROUTINE             CALLS      AVE VOLUME [Bytes]
 MP_Bcast               19                     12.
 MP_Allreduce           69                     21.
 MP_Alltoall       2245062                 102423.
 MP_ISend               24                   5918.
 MP_IRecv               16                     52.
 -------------------------------------------------------------------------------

 -------------------------------------------------------------------------------
 -                                                                             -
 -                                GRID STATISTICS                              -
 -                                                                             -
 -------------------------------------------------------------------------------
 LP    KERNEL             BACKEND                              COUNT     PERCENT
 2     collocate ortho    REF                                  31281      16.05%
 2     integrate ortho    REF                                  31281      16.05%
 4     collocate ortho    REF                                  26508      13.60%
 4     integrate ortho    REF                                  26508      13.60%
 5     collocate ortho    REF                                  21687      11.13%
 5     integrate ortho    REF                                  21687      11.13%
 6     collocate ortho    REF                                   7110       3.65%
 6     integrate ortho    REF                                   7110       3.65%
 7     collocate ortho    REF                                   6501       3.34%
 7     integrate ortho    REF                                   6501       3.34%
 8     collocate ortho    REF                                   4344       2.23%
 8     integrate ortho    REF                                   4344       2.23%
 0     collocate general  REF                                     60       0.03%
 -------------------------------------------------------------------------------

 MEMORY| Estimated peak process memory [MiB]                                 197

 -------------------------------------------------------------------------------
 -                                                                             -
 -                         MESSAGE PASSING PERFORMANCE                         -
 -                                                                             -
 -------------------------------------------------------------------------------

 ROUTINE             CALLS      AVE VOLUME [Bytes]
 MP_Bcast            31216                   1935.
 MP_Allreduce       281001                    131.
 MP_Sync             31181
 MP_Alltoall            34                3746304.
 MP_ISendRecv           34                 251061.
 MP_Wait                34
 MP_comm_split           1
 -------------------------------------------------------------------------------


 -------------------------------------------------------------------------------
 -                                                                             -
 -                           R E F E R E N C E S                               -
 -                                                                             -
 -------------------------------------------------------------------------------
 
 CP2K version 9.0 (Development Version), the CP2K developers group (2020).
 CP2K is freely available from https://www.cp2k.org/ .

 Kuehne,Thomas D.; Iannuzzi,Marcella; Del Ben,Mauro;
 Rybkin,Vladimir V.; Seewald,Patrick; Stein,Frederick; Laino,Teodoro;
 Khaliullin,Rustam Z.; Schuett,Ole; Schiffmann,Florian; Golze,Dorothea;
 Wilhelm,Jan; Chulkov,Sergey; Bani-Hashemian,Mohammad Hossein;
 Weber,Valery; Borstnik,Urban; Taillefumier,Mathieu;
 Jakobovits,Alice Shoshana; Lazzaro,Alfio; Pabst,Hans; Mueller,Tiziano;
 Schade,Robert; Guidon,Manuel; Andermatt,Samuel; Holmberg,Nico;
 Schenter,Gregory K.; Hehn,Anna; Bussy,Augustin; Belleflamme,Fabian;
 Tabacchi,Gloria; Gloess,Andreas; Lass,Michael; Bethune,Iain;
 Mundy,Christopher J.; Plessl,Christian; Watkins,Matt;
 VandeVondele,Joost; Krack,Matthias; Hutter,Juerg. 
 The Journal of Chemical Physics, 152 (19), (2020). 
 CP2K: An electronic structure and molecular dynamics software package -
 Quickstep: Efficient and accurate electronic structure calculations.
 https://doi.org/10.1063/5.0007045

 Schuett, Ole; Messmer, Peter; Hutter, Juerg; VandeVondele, Joost. 
 Electronic Structure Calculations on Graphics Processing Units, John
 Wiley & Sons, Ltd, 173-190 (2016). 
 GPU-Accelerated Sparse Matrix-Matrix Multiplication for
 Linear Scaling Density Functional Theory.
 https://doi.org/10.1002/9781118670712.ch8

 Borstnik, U; VandeVondele, J; Weber, V; Hutter, J. 
 PARALLEL COMPUTING, 40 (5-6), 47-58 (2014). 
 Sparse matrix multiplication: The distributed block-compressed sparse
 row library.
 https://doi.org/10.1016/j.parco.2014.03.012

 Hutter, J; Iannuzzi, M; Schiffmann, F; VandeVondele, J. 
 WIREs Comput Mol Sci., 4 (1), 15-25 (2014). 
 CP2K: atomistic simulations of condensed matter systems.
 https://doi.org/10.1002/wcms.1159

 Marek, A; Blum, V; Johanni, R; Havu, V; Lang, B; Auckenthaler, T;
 Heinecke, A; Bungartz, H; Lederer, H. 
 Journal of Physics: Condensed Matter, 26 (21), (2014). 
 The ELPA library: scalable parallel eigenvalue solutions for
 electronic structure
 theory and computational science.
 https://doi.org/10.1088/0953-8984/26/21/213201

 Guidon, M; Hutter, J; VandeVondele, J. 
 JOURNAL OF CHEMICAL THEORY AND COMPUTATION, 6 (8), 2348-2364 (2010). 
 Auxiliary Density Matrix Methods for Hartree-Fock Exchange Calculations.
 https://doi.org/10.1021/ct1002225

 VandeVondele, J; Hutter, J. 
 JOURNAL OF CHEMICAL PHYSICS, 127 (11), 114105 (2007). 
 Gaussian basis sets for accurate calculations on molecular systems in
 gas and condensed phases.
 https://doi.org/10.1063/1.2770708

 Krack, M. 
 THEORETICAL CHEMISTRY ACCOUNTS, 114 (1-3), 145-152 (2005). 
 Pseudopotentials for H to Kr optimized for gradient-corrected
 exchange-correlation functionals.
 https://doi.org/10.1007/s00214-005-0655-y

 VandeVondele, J; Krack, M; Mohamed, F; Parrinello, M; Chassaing, T;
 Hutter, J. COMPUTER PHYSICS COMMUNICATIONS, 167 (2), 103-128 (2005). 
 QUICKSTEP: Fast and accurate density functional calculations using a
 mixed Gaussian and plane waves approach.
 https://doi.org/10.1016/j.cpc.2004.12.014

 Frigo, M; Johnson, SG. 
 PROCEEDINGS OF THE IEEE, 93 (2), 216-231 (2005). 
 The design and implementation of FFTW3.
 https://doi.org/10.1109/JPROC.2004.840301

 Hartwigsen, C; Goedecker, S; Hutter, J. 
 PHYSICAL REVIEW B, 58 (7), 3641-3662 (1998). 
 Relativistic separable dual-space Gaussian pseudopotentials from H to Rn.
 https://doi.org/10.1103/PhysRevB.58.3641

 Lippert, G; Hutter, J; Parrinello, M. 
 MOLECULAR PHYSICS, 92 (3), 477-487 (1997). 
 A hybrid Gaussian and plane wave density functional scheme.
 https://doi.org/10.1080/002689797170220

 Perdew, JP; Burke, K; Ernzerhof, M. 
 PHYSICAL REVIEW LETTERS, 77 (18), 3865-3868 (1996). 
 Generalized gradient approximation made simple.
 https://doi.org/10.1103/PhysRevLett.77.3865

 Goedecker, S; Teter, M; Hutter, J. 
 PHYSICAL REVIEW B, 54 (3), 1703-1710 (1996). 
 Separable dual-space Gaussian pseudopotentials.
 https://doi.org/10.1103/PhysRevB.54.1703


 -------------------------------------------------------------------------------
 -                                                                             -
 -                                T I M I N G                                  -
 -                                                                             -
 -------------------------------------------------------------------------------
 SUBROUTINE                       CALLS  ASD         SELF TIME        TOTAL TIME
                                MAXIMUM       AVERAGE  MAXIMUM  AVERAGE  MAXIMUM
 CP2K                                 1  1.0     0.00     0.00 10690.16 10690.88
 run_optimize_basis                   1  2.0     0.00     0.00 10690.15 10690.86
 driver_para_opt_basis                1  3.0     0.00     0.00 10690.14 10690.85
 driver_optimization_para_low         1  4.0     0.36     0.80 10690.14 10690.85
 compute_residuum_vectors         31181  5.0     2.38     3.05 10673.17 10673.98
 mp_sum_dv                       155906  5.8  6525.44  8955.91  6525.44  8955.91
 cp_gemm                         654801  7.1     0.88     1.37  2266.80  7209.40
 cp_gemm_fm_gemm                 654801  8.1     0.51     0.84  2265.92  7208.43
 cp_fm_gemm                      654801  9.1  2265.40  7207.83  2265.40  7207.83
 admm_fit_mo_coeffs               31181  6.0     0.09     0.15  1274.67  3040.67
 build_overlap_matrix_low         62366  6.0  1022.15  2535.61  1023.91  2538.15
 fit_mo_coeffs                    31181  7.0     0.32     0.41  1008.54  2383.74
 copy_dbcsr_to_fm                187087  6.7     2.23     3.89   580.52  1281.00
 dbcsr_desymmetrize_deep         187087  7.7    10.76    39.48   468.53  1103.22
 mp_alltoall_i22                 374176  8.7   435.38  1085.18   435.38  1085.18
 purify_mo_diag                   31181  7.0     0.62     1.14   266.03   661.05
 cp_fm_syevd                      93543  7.2     0.27     0.43   124.01   279.39
 cp_fm_syevd_base                 93543  8.2   123.62   278.99   123.62   278.99
 cp_fm_upper_to_full             124726  7.1    91.77   250.18    91.77   250.18
 dbcsr_complete_redistribute     187089  7.7    34.33   100.72    90.58   226.02
 -------------------------------------------------------------------------------

 The number of warnings for this run is : 1
 
 -------------------------------------------------------------------------------
  **** **** ******  **  PROGRAM ENDED AT                 2021-01-29 12:46:16.783
 ***** ** ***  *** **   PROGRAM RAN ON                                   tcopt10
 **    ****   ******    PROGRAM RAN BY                                    hutter
 ***** **    ** ** **   PROGRAM PROCESS ID                                 69120
  **** **  *******  **  PROGRAM STOPPED IN /data/hutter/GITHUB/BASIS/MOLOPT/PBE/
                                           Mn
