 DBCSR| CPU Multiplication driver                                           XSMM
 DBCSR| Multrec recursion limit                                              512
 DBCSR| Multiplication stack size                                           1000
 DBCSR| Maximum elements for images                                    UNLIMITED
 DBCSR| Multiplicative factor virtual images                                   1
 DBCSR| Use multiplication densification                                       T
 DBCSR| Multiplication size stacks                                             3
 DBCSR| Use memory pool for CPU allocation                                     F
 DBCSR| Number of 3D layers                                               SINGLE
 DBCSR| Use MPI memory allocation                                              F
 DBCSR| Use RMA algorithm                                                      F
 DBCSR| Use Communication thread                                               T
 DBCSR| Communication thread load                                             87
 DBCSR| MPI: My node id                                                        0
 DBCSR| MPI: Number of nodes                                                  12
 DBCSR| OMP: Current number of threads                                         1
 DBCSR| OMP: Max number of threads                                             1
 DBCSR| Split modifier for TAS multiplication algorithm                  1.0E+00


  **** **** ******  **  PROGRAM STARTED AT               2022-05-30 18:00:58.969
 ***** ** ***  *** **   PROGRAM STARTED ON                               tcopt10
 **    ****   ******    PROGRAM STARTED BY                                hutter
 ***** **    ** ** **   PROGRAM PROCESS ID                                 80180
  **** **  *******  **  PROGRAM STARTED IN /data/hutter/GITHUB/BASIS/scMOLOPT/PB
                                           E/Mo

 CP2K| version string:                   CP2K version 10.0 (Development Version)
 CP2K| source code revision number:                                  git:d19b00a
 CP2K| cp2kflags: omp libint fftw3 libxc elpa parallel mpi3 scalapack cosma xsmm
 CP2K|             spglib sirius libvori libbqb
 CP2K| is freely available from                            https://www.cp2k.org/
 CP2K| Program compiled at                      Wed 18 May 2022 12:15:59 PM CEST
 CP2K| Program compiled on                                               tcopt10
 CP2K| Program compiled for                                                local
 CP2K| Data directory path                   /data/hutter/GITHUB/TDLRI/cp2k/data
 CP2K| Input file name                                              MoF3-ref.inp

 GLOBAL| Force Environment number                                              1
 GLOBAL| Basis set file name                                        ../def2QZVPP
 GLOBAL| Potential file name                                        ../POTENTIAL
 GLOBAL| MM Potential file name                                     MM_POTENTIAL
 GLOBAL| Coordinate file name                                      __STD_INPUT__
 GLOBAL| Method name                                                        CP2K
 GLOBAL| Project name                                                    refMoF3
 GLOBAL| Run type                                                         ENERGY
 GLOBAL| FFT library                                                       FFTW3
 GLOBAL| Diagonalization library                                            ELPA
 GLOBAL| Minimum number of eigenvectors for ELPA usage                        16
 GLOBAL| Orthonormality check for eigenvectors                          DISABLED
 GLOBAL| Matrix multiplication library                                     COSMA
 GLOBAL| All-to-all communication in single precision                          F
 GLOBAL| FFTs using library dependent lengths                                  F
 GLOBAL| Grid backend                                                       AUTO
 GLOBAL| Global print level                                                  LOW
 GLOBAL| MPI I/O enabled                                                       T
 GLOBAL| Total number of message passing processes                            12
 GLOBAL| Number of threads for this process                                    1
 GLOBAL| This output is from process                                           0
 GLOBAL| Stack size for threads created by OpenMP (OMP_STACKSIZE)        default
 GLOBAL| CPU model name                          AMD EPYC 7401 24-Core Processor
 GLOBAL| CPUID                                                              1002

 MEMORY| system memory details [Kb]
 MEMORY|                        rank 0           min           max       average
 MEMORY| MemTotal            263969132     263969132     263969132     263969132
 MEMORY| MemFree             224303504     224303504     224303504     224303504
 MEMORY| Buffers                  2836          2836          2836          2836
 MEMORY| Cached               20278052      20278052      20278052      20278052
 MEMORY| Slab                  1471224       1471224       1471224       1471224
 MEMORY| SReclaimable           880188        880188        880188        880188
 MEMORY| MemLikelyFree       245464580     245464580     245464580     245464580


 GENERATE|  Preliminary Number of Bonds generated:                             0
 GENERATE|  Achieved consistency in connectivity generation.

 *******************************************************************************
 *******************************************************************************
 **                                                                           **
 **     #####                         ##              ##                      **
 **    ##   ##            ##          ##              ##                      **
 **   ##     ##                       ##            ######                    **
 **   ##     ##  ##   ##  ##   #####  ##  ##   ####   ##    #####    #####    **
 **   ##     ##  ##   ##  ##  ##      ## ##   ##      ##   ##   ##  ##   ##   **
 **   ##  ## ##  ##   ##  ##  ##      ####     ###    ##   ######   ######    **
 **    ##  ###   ##   ##  ##  ##      ## ##      ##   ##   ##       ##        **
 **     #######   #####   ##   #####  ##  ##  ####    ##    #####   ##        **
 **           ##                                                    ##        **
 **                                                                           **
 **                                                ... make the atoms dance   **
 **                                                                           **
 **            Copyright (C) by CP2K developers group (2000-2022)             **
 **                      J. Chem. Phys. 152, 194103 (2020)                    **
 **                                                                           **
 *******************************************************************************


 TOTAL NUMBERS AND MAXIMUM NUMBERS

  Total number of            - Atomic kinds:                                   2
                             - Atoms:                                          4
                             - Shell sets:                                    72
                             - Shells:                                        72
                             - Primitive Cartesian functions:                116
                             - Cartesian basis functions:                    322
                             - Spherical basis functions:                    252

  Maximum angular momentum of- Orbital basis functions:                        4
                             - Local part of the GTH pseudopotential:          2
                             - Non-local part of the GTH pseudopotential:      4


 SCF PARAMETERS         Density guess:                                   RESTART
                        --------------------------------------------------------
                        max_scf:                                              20
                        max_scf_history:                                       0
                        max_diis:                                              4
                        --------------------------------------------------------
                        eps_scf:                                        5.00E-07
                        eps_scf_history:                                0.00E+00
                        eps_diis:                                       1.00E-01
                        eps_eigval:                                     1.00E-05
                        --------------------------------------------------------
                        level_shift [a.u.]:                             0.000000
                        --------------------------------------------------------
                        Outer loop SCF in use 
                        No variables optimised in outer loop
                        eps_scf                                         5.00E-07
                        max_scf                                                5
                        No outer loop optimization
                        step_size                                       5.00E-01

 Spin 1

 Number of electrons:                                                         21
 Number of occupied orbitals:                                                 21
 Number of molecular orbitals:                                                21

 Spin 2

 Number of electrons:                                                         20
 Number of occupied orbitals:                                                 20
 Number of molecular orbitals:                                                20

 Number of orbital functions:                                                252
 Number of independent orbital functions:                                    252

 Extrapolation method: initial_guess


 SCF WAVEFUNCTION OPTIMIZATION

  ----------------------------------- OT ---------------------------------------
  Minimizer      : DIIS                : direct inversion
                                         in the iterative subspace
                                         using   7 DIIS vectors
                                         safer DIIS on
  Preconditioner : FULL_ALL            : diagonalization, state selective
  Precond_solver : DEFAULT
  stepsize       :    0.10000000                  energy_gap     :    0.08000000
  eps_taylor     :   0.10000E-15                  max_taylor     :             4
  ----------------------------------- OT ---------------------------------------

  Step     Update method      Time    Convergence         Total energy    Change
  ------------------------------------------------------------------------------
     1 OT DIIS     0.10E+00    2.8     0.00000044      -367.0238884779 -3.67E+02

  *** SCF run converged in     1 steps ***


  Electronic density on regular grids:        -35.2513775756        5.7486224244
  Core density on regular grids:               41.0000000000        0.0000000000
  Hard and soft densities (Lebedev):          -49.5757118024      -43.8270875108
  Total Rho_soft + Rho1_hard - Rho1_soft      -41.0000018673
  Total charge density (r-space):              -0.0000018673
  Total Rho_soft + Rho0_soft (g-space):        -0.0000022309

  Overlap energy of the core charge distribution:               0.00000000002464
  Self energy of the core charge distribution:               -441.47315447317430
  Core Hamiltonian energy:                                     14.11626273343020
  Hartree energy:                                             155.72770678729216
  Exchange-correlation energy:                                -21.65071681862507

  GAPW| Exc from hard and soft atomic rho1:                   -17.15263433936145
  GAPW| local Eh = 1 center integrals:                        -56.59135236752758

  Total energy:                                              -367.02388847794145

  outer SCF iter =    1 RMS gradient =   0.44E-06 energy =       -367.0238884779
  outer SCF loop converged in   1 iterations or    1 steps


  Integrated absolute spin density  :                               1.8982040698
  Ideal and single determinant S**2 :                    0.750000       1.686478

 ENERGY| Total FORCE_EVAL ( QS ) energy [a.u.]:             -367.023888477941455

 -------------------------------------------------------------------------------
 -                                                                             -
 -                                DBCSR STATISTICS                             -
 -                                                                             -
 -------------------------------------------------------------------------------
 COUNTER                                    TOTAL       BLAS       SMM       ACC
 flops    20 x    20 x    20                16000       0.0%    100.0%      0.0%
 flops    21 x    21 x    21                18522       0.0%    100.0%      0.0%
 flops    20 x    20 x    81               324000       0.0%    100.0%      0.0%
 flops    21 x    21 x    81               357210       0.0%    100.0%      0.0%
 flops    81 x    57 x    20               369360       0.0%    100.0%      0.0%
 flops    81 x    57 x    21               387828       0.0%    100.0%      0.0%
 flops    81 x    81 x    20               524880       0.0%    100.0%      0.0%
 flops   114 x    20 x    20               547200       0.0%    100.0%      0.0%
 flops    81 x    81 x    21               551124       0.0%    100.0%      0.0%
 flops   114 x    21 x    21               603288       0.0%    100.0%      0.0%
 flops   138 x    20 x    20               662400       0.0%    100.0%      0.0%
 flops    20 x    20 x    57               684000       0.0%    100.0%      0.0%
 flops   138 x    21 x    21               730296       0.0%    100.0%      0.0%
 flops    57 x    81 x    20               738720       0.0%    100.0%      0.0%
 flops    21 x    21 x    57               754110       0.0%    100.0%      0.0%
 flops    57 x    81 x    21               775656       0.0%    100.0%      0.0%
 flops   114 x    20 x    81              1477440       0.0%    100.0%      0.0%
 flops   114 x    21 x    81              1551312       0.0%    100.0%      0.0%
 flops    57 x    57 x    20              1559520       0.0%    100.0%      0.0%
 flops    57 x    57 x    21              1637496       0.0%    100.0%      0.0%
 flops   138 x    20 x    81              1788480       0.0%    100.0%      0.0%
 flops   138 x    21 x    81              1877904       0.0%    100.0%      0.0%
 flops    81 x    21 x    81              2204496       0.0%    100.0%      0.0%
 flops    81 x    20 x    81              2361960       0.0%    100.0%      0.0%
 flops   114 x    20 x    57              3119040       0.0%    100.0%      0.0%
 flops   114 x    21 x    57              3274992       0.0%    100.0%      0.0%
 flops   138 x    20 x    57              3775680       0.0%    100.0%      0.0%
 flops   138 x    21 x    57              3964464       0.0%    100.0%      0.0%
 flops    57 x    21 x    81              4653936       0.0%    100.0%      0.0%
 flops    81 x    21 x    57              4653936       0.0%    100.0%      0.0%
 flops    57 x    20 x    81              4986360       0.0%    100.0%      0.0%
 flops    81 x    20 x    57              4986360       0.0%    100.0%      0.0%
 flops    57 x    21 x    57              9824976       0.0%    100.0%      0.0%
 flops    57 x    20 x    57             10526760       0.0%    100.0%      0.0%
 flops inhomo. stacks                           0       0.0%      0.0%      0.0%
 flops total                        76.269706E+06       0.0%    100.0%      0.0%
 flops max/rank                     40.990354E+06       0.0%    100.0%      0.0%
 matmuls inhomo. stacks                         0       0.0%      0.0%      0.0%
 matmuls total                                442       0.0%    100.0%      0.0%
 number of processed stacks                   370       0.0%    100.0%      0.0%
 average stack size                                     0.0       1.2       0.0
 marketing flops                    80.563648E+06
 -------------------------------------------------------------------------------
 # multiplications                             55
 max memory usage/rank             591.601664E+06
 # max total images/rank                        3
 # max 3D layers                                1
 # MPI messages exchanged                    5280
 MPI messages size (bytes):
  total size                        70.568160E+06
  min size                           0.000000E+00
  max size                          89.424000E+03
  average size                      13.365182E+03
 MPI breakdown and total messages size (bytes):
             size <=      128                3740                        0
       128 < size <=     8192                  24                    80736
      8192 < size <=    32768                 516                  6983424
     32768 < size <=   131072                1000                 63504000
    131072 < size <=  4194304                   0                        0
   4194304 < size <= 16777216                   0                        0
  16777216 < size                               0                        0
 -------------------------------------------------------------------------------

 *** WARNING in dbcsr_mm.F:290 :: Using a non-square number of MPI ranks ***
 *** might lead to poor performance. Used ranks: 12 Suggested: 9 25      ***

 -------------------------------------------------------------------------------
 -                                                                             -
 -                      DBCSR MESSAGE PASSING PERFORMANCE                      -
 -                                                                             -
 -------------------------------------------------------------------------------
 ROUTINE             CALLS      AVE VOLUME [Bytes]
 MP_Bcast               35                     12.
 MP_Allreduce          340                     12.
 MP_Alltoall           609                   9061.
 MP_ISend             1162                   8264.
 MP_IRecv             1100                   5333.
 -------------------------------------------------------------------------------

 -------------------------------------------------------------------------------
 -                                                                             -
 -                                GRID STATISTICS                              -
 -                                                                             -
 -------------------------------------------------------------------------------
 LP    KERNEL             BACKEND                              COUNT     PERCENT
 2     collocate ortho    REF                                   3980      15.96%
 1     collocate ortho    REF                                   3472      13.93%
 3     collocate ortho    REF                                   3208      12.87%
 4     collocate ortho    REF                                   2452       9.84%
 2     integrate ortho    REF                                   1990       7.98%
 1     integrate ortho    REF                                   1736       6.96%
 3     integrate ortho    REF                                   1604       6.43%
 0     collocate ortho    REF                                   1348       5.41%
 5     collocate ortho    REF                                   1312       5.26%
 4     integrate ortho    REF                                   1226       4.92%
 0     integrate ortho    REF                                    674       2.70%
 5     integrate ortho    REF                                    656       2.63%
 6     collocate ortho    REF                                    528       2.12%
 6     integrate ortho    REF                                    264       1.06%
 7     collocate ortho    REF                                    204       0.82%
 7     integrate ortho    REF                                    102       0.41%
 8     collocate ortho    REF                                     52       0.21%
 2     collocate general  REF                                     48       0.19%
 2     integrate general  REF                                     48       0.19%
 8     integrate ortho    REF                                     26       0.10%
 -------------------------------------------------------------------------------

 MEMORY| Estimated peak process memory [MiB]                                 565

 -------------------------------------------------------------------------------
 -                                                                             -
 -                         MESSAGE PASSING PERFORMANCE                         -
 -                                                                             -
 -------------------------------------------------------------------------------

 ROUTINE             CALLS      AVE VOLUME [Bytes]
 MP_Group                4
 MP_Bcast              143                1477704.
 MP_Allreduce          522                  21791.
 MP_Sync                16
 MP_Alltoall            62               13887088.
 MP_ISendRecv          198                 338304.
 MP_Wait               350
 MP_comm_split           6
 MP_ISend              128                1174860.
 MP_IRecv              128                1174860.
 MP_Recv                 9                   8064.
 -------------------------------------------------------------------------------


 -------------------------------------------------------------------------------
 -                                                                             -
 -                           R E F E R E N C E S                               -
 -                                                                             -
 -------------------------------------------------------------------------------
 
 CP2K version 10.0 (Development Version), the CP2K developers group (2022).
 CP2K is freely available from https://www.cp2k.org/ .

 Kuehne,Thomas D.; Iannuzzi,Marcella; Del Ben,Mauro;
 Rybkin,Vladimir V.; Seewald,Patrick; Stein,Frederick; Laino,Teodoro;
 Khaliullin,Rustam Z.; Schuett,Ole; Schiffmann,Florian; Golze,Dorothea;
 Wilhelm,Jan; Chulkov,Sergey; Bani-Hashemian,Mohammad Hossein;
 Weber,Valery; Borstnik,Urban; Taillefumier,Mathieu;
 Jakobovits,Alice Shoshana; Lazzaro,Alfio; Pabst,Hans; Mueller,Tiziano;
 Schade,Robert; Guidon,Manuel; Andermatt,Samuel; Holmberg,Nico;
 Schenter,Gregory K.; Hehn,Anna; Bussy,Augustin; Belleflamme,Fabian;
 Tabacchi,Gloria; Gloess,Andreas; Lass,Michael; Bethune,Iain;
 Mundy,Christopher J.; Plessl,Christian; Watkins,Matt;
 VandeVondele,Joost; Krack,Matthias; Hutter,Juerg. 
 The Journal of Chemical Physics, 152 (19), (2020). 
 CP2K: An electronic structure and molecular dynamics software package -
 Quickstep: Efficient and accurate electronic structure calculations.
 https://doi.org/10.1063/5.0007045

 Schuett, Ole; Messmer, Peter; Hutter, Juerg; VandeVondele, Joost. 
 Electronic Structure Calculations on Graphics Processing Units, John
 Wiley & Sons, Ltd, 173-190 (2016). 
 GPU-Accelerated Sparse Matrix-Matrix Multiplication for
 Linear Scaling Density Functional Theory.
 https://doi.org/10.1002/9781118670712.ch8

 Heinecke, A; Henry, G; Hutchinson, M; Pabst, H. 
 Proceedings of Intl. Supercomputing Conference, 981-991 (2016). 
 LIBXSMM: Accelerating Small Matrix Multiplications
 by Runtime Code Generation.
 https://doi.org/10.1109/SC.2016.83

 Borstnik, U; VandeVondele, J; Weber, V; Hutter, J. 
 PARALLEL COMPUTING, 40 (5-6), 47-58 (2014). 
 Sparse matrix multiplication: The distributed block-compressed sparse
 row library.
 https://doi.org/10.1016/j.parco.2014.03.012

 Hutter, J; Iannuzzi, M; Schiffmann, F; VandeVondele, J. 
 WIREs Comput Mol Sci., 4 (1), 15-25 (2014). 
 CP2K: atomistic simulations of condensed matter systems.
 https://doi.org/10.1002/wcms.1159

 Marek, A; Blum, V; Johanni, R; Havu, V; Lang, B; Auckenthaler, T;
 Heinecke, A; Bungartz, H; Lederer, H. 
 Journal of Physics: Condensed Matter, 26 (21), (2014). 
 The ELPA library: scalable parallel eigenvalue solutions for
 electronic structure
 theory and computational science.
 https://doi.org/10.1088/0953-8984/26/21/213201

 Krack, M. 
 THEORETICAL CHEMISTRY ACCOUNTS, 114 (1-3), 145-152 (2005). 
 Pseudopotentials for H to Kr optimized for gradient-corrected
 exchange-correlation functionals.
 https://doi.org/10.1007/s00214-005-0655-y

 Frigo, M; Johnson, SG. 
 PROCEEDINGS OF THE IEEE, 93 (2), 216-231 (2005). 
 The design and implementation of FFTW3.
 https://doi.org/10.1109/JPROC.2004.840301

 VandeVondele, J; Hutter, J. 
 JOURNAL OF CHEMICAL PHYSICS, 118 (10), 4365-4369 (2003). 
 An efficient orbital transformation method for electronic structure
 calculations.
 https://doi.org/10.1063/1.1543154

 Lippert, G; Hutter, J; Parrinello, M. 
 THEORETICAL CHEMISTRY ACCOUNTS, 103 (2), 124-140 (1999). 
 The Gaussian and augmented-plane-wave density functional method for ab
 initio molecular dynamics simulations.
 https://doi.org/10.1007/s002140050523

 Krack, M; Parrinello, M. 
 PHYSICAL CHEMISTRY CHEMICAL PHYSICS, 2 (10), 2105-2112 (2000). 
 All-electron ab-initio molecular dynamics.
 https://doi.org/10.1039/b001167n

 Hartwigsen, C; Goedecker, S; Hutter, J. 
 PHYSICAL REVIEW B, 58 (7), 3641-3662 (1998). 
 Relativistic separable dual-space Gaussian pseudopotentials from H to Rn.
 https://doi.org/10.1103/PhysRevB.58.3641

 Perdew, JP; Burke, K; Ernzerhof, M. 
 PHYSICAL REVIEW LETTERS, 77 (18), 3865-3868 (1996). 
 Generalized gradient approximation made simple.
 https://doi.org/10.1103/PhysRevLett.77.3865

 Goedecker, S; Teter, M; Hutter, J. 
 PHYSICAL REVIEW B, 54 (3), 1703-1710 (1996). 
 Separable dual-space Gaussian pseudopotentials.
 https://doi.org/10.1103/PhysRevB.54.1703


 -------------------------------------------------------------------------------
 -                                                                             -
 -                                T I M I N G                                  -
 -                                                                             -
 -------------------------------------------------------------------------------
 SUBROUTINE                       CALLS  ASD         SELF TIME        TOTAL TIME
                                MAXIMUM       AVERAGE  MAXIMUM  AVERAGE  MAXIMUM
 CP2K                                 1  1.0    0.012    0.038    4.823    4.825
 qs_energies                          1  2.0    0.000    0.000    4.404    4.404
 scf_env_do_scf                       1  3.0    0.000    0.000    3.254    3.254
 init_scf_loop                        1  4.0    0.000    0.000    2.779    2.780
 qs_ks_update_qs_env                  2  5.0    0.000    0.000    2.695    2.695
 rebuild_ks_matrix                    1  6.0    0.000    0.000    2.695    2.695
 qs_ks_build_kohn_sham_matrix         1  7.0    0.000    0.000    2.695    2.695
 pw_transfer                         47  9.8    0.004    0.005    1.444    1.478
 fft_wrap_pw1pw2                     44 10.8    0.001    0.001    1.435    1.469
 fft_wrap_pw1pw2_300                 26 12.4    0.072    0.082    1.337    1.363
 qs_vxc_create                        1  8.0    0.000    0.000    1.137    1.137
 xc_vxc_pw_create                     1  9.0    0.017    0.020    1.137    1.137
 fft3d_ps                            44 12.8    0.568    0.652    1.067    1.131
 qs_rho_update_rho                    2  5.0    0.000    0.000    0.882    0.882
 calculate_rho_elec                   4  6.0    0.009    0.009    0.832    0.832
 xc_pw_derive                        12 11.0    0.000    0.000    0.701    0.723
 mp_sum_d                           506  1.7    0.602    0.705    0.602    0.705
 qs_energies_init_hamiltonians        1  3.0    0.000    0.000    0.684    0.684
 density_rs2pw                        4  7.0    0.000    0.000    0.651    0.680
 build_core_hamiltonian_matrix        1  4.0    0.000    0.000    0.113    0.679
 qs_env_update_s_mstruct              1  4.0    0.000    0.000    0.570    0.671
 xc_rho_set_and_dset_create           1 10.0    0.013    0.016    0.623    0.671
 qs_create_task_list                  1  5.0    0.000    0.000    0.570    0.671
 generate_qs_task_list                1  6.0    0.001    0.003    0.570    0.671
 distribute_tasks                     1  7.0    0.000    0.000    0.570    0.670
 get_current_loads                   10  8.8    0.000    0.000    0.569    0.670
 load_balance_distributed             1  8.0    0.000    0.000    0.569    0.670
 mp_alltoall_l                       11  9.7    0.569    0.670    0.569    0.670
 compute_load_list                    2  9.0    0.000    0.000    0.569    0.669
 calculate_vxc_atom                   1  8.0    0.011    0.091    0.596    0.596
 mp_alltoall_z22v                    44 14.8    0.333    0.527    0.333    0.527
 xc_pw_divergence                     2 10.0    0.000    0.000    0.483    0.505
 scf_env_do_scf_inner_loop            1  4.0    0.000    0.000    0.473    0.474
 gaVxcgb_GC                           2  9.0    0.050    0.471    0.050    0.471
 init_scf_run                         1  3.0    0.000    0.000    0.457    0.457
 scf_env_initial_rho_setup            1  4.0    0.000    0.000    0.456    0.457
 prepare_gapw_den                     1  8.0    0.000    0.000    0.447    0.452
 yz_to_x                             25 13.3    0.080    0.110    0.282    0.375
 rs_pw_transfer                      26  9.0    0.000    0.001    0.334    0.368
 qs_init_subsys                       1  2.0    0.003    0.004    0.342    0.342
 calculate_rho_atom                   2  9.0    0.089    0.330    0.089    0.331
 build_core_ae                        1  5.0    0.046    0.327    0.046    0.327
 build_core_ppl                       1  5.0    0.044    0.320    0.044    0.320
 sum_up_and_integrate                 1  8.0    0.002    0.003    0.316    0.316
 integrate_v_rspace                   2  9.0    0.000    0.000    0.314    0.315
 xc_functional_eval                   5 10.6    0.000    0.000    0.273    0.310
 pbe_lsd_eval                         5 11.6    0.272    0.310    0.272    0.310
 mp_sum_dv                           12 11.2    0.235    0.283    0.235    0.283
 x_to_yz                             19 14.5    0.083    0.104    0.213    0.262
 qs_env_setup                         1  3.0    0.000    0.000    0.220    0.237
 qs_env_rebuild_pw_env                2  3.5    0.000    0.000    0.220    0.237
 pw_env_rebuild                       1  5.0    0.000    0.000    0.220    0.237
 potential_pw2rs                      2 10.0    0.000    0.000    0.225    0.225
 rs_pw_transfer_RS2PW_300             5  9.4    0.073    0.087    0.166    0.203
 pw_gather_p                         25 12.3    0.149    0.202    0.149    0.202
 grid_collocate_task_list             4  7.0    0.141    0.189    0.141    0.189
 pw_grid_setup                        4  6.0    0.000    0.000    0.178    0.178
 pw_grid_setup_internal               4  7.0    0.004    0.005    0.178    0.178
 pw_scatter_p                        19 13.5    0.142    0.165    0.142    0.165
 mp_waitany                         128 11.1    0.108    0.165    0.108    0.165
 pw_grid_sort                         4  8.0    0.083    0.095    0.116    0.135
 init_rho_atom                        1  3.0    0.000    0.000    0.101    0.124
 create_harmonics_atom                2  4.0    0.086    0.108    0.086    0.108
 -------------------------------------------------------------------------------

 The number of warnings for this run is : 1
 
 -------------------------------------------------------------------------------
  **** **** ******  **  PROGRAM ENDED AT                 2022-05-30 18:01:04.196
 ***** ** ***  *** **   PROGRAM RAN ON                                   tcopt10
 **    ****   ******    PROGRAM RAN BY                                    hutter
 ***** **    ** ** **   PROGRAM PROCESS ID                                 80180
  **** **  *******  **  PROGRAM STOPPED IN /data/hutter/GITHUB/BASIS/scMOLOPT/PB
                                           E/Mo
