 DBCSR| CPU Multiplication driver                                           XSMM
 DBCSR| Multrec recursion limit                                              512
 DBCSR| Multiplication stack size                                           1000
 DBCSR| Maximum elements for images                                    UNLIMITED
 DBCSR| Multiplicative factor virtual images                                   1
 DBCSR| Use multiplication densification                                       T
 DBCSR| Multiplication size stacks                                             3
 DBCSR| Use memory pool for CPU allocation                                     F
 DBCSR| Number of 3D layers                                               SINGLE
 DBCSR| Use MPI memory allocation                                              F
 DBCSR| Use RMA algorithm                                                      F
 DBCSR| Use Communication thread                                               T
 DBCSR| Communication thread load                                             87
 DBCSR| MPI: My node id                                                        0
 DBCSR| MPI: Number of nodes                                                  24
 DBCSR| OMP: Current number of threads                                         1
 DBCSR| OMP: Max number of threads                                             1
 DBCSR| Split modifier for TAS multiplication algorithm                  1.0E+00


  **** **** ******  **  PROGRAM STARTED AT               2022-05-12 12:26:47.264
 ***** ** ***  *** **   PROGRAM STARTED ON                               tcopt10
 **    ****   ******    PROGRAM STARTED BY                                hutter
 ***** **    ** ** **   PROGRAM PROCESS ID                                 61081
  **** **  *******  **  PROGRAM STARTED IN /data/hutter/GITHUB/BASIS/scMOLOPT/PB
                                           E/Na

 CP2K| version string:                   CP2K version 10.0 (Development Version)
 CP2K| source code revision number:                                  git:13fcfd8
 CP2K| cp2kflags: omp libint fftw3 libxc elpa parallel mpi3 scalapack cosma xsmm
 CP2K|             spglib sirius libvori libbqb
 CP2K| is freely available from                            https://www.cp2k.org/
 CP2K| Program compiled at                      Tue 10 May 2022 02:27:21 PM CEST
 CP2K| Program compiled on                                               tcopt10
 CP2K| Program compiled for                                                local
 CP2K| Data directory path                   /data/hutter/GITHUB/TDLRI/cp2k/data
 CP2K| Input file name                                              Na3P-ref.inp

 GLOBAL| Force Environment number                                              1
 GLOBAL| Basis set file name                                        ../def2QZVPP
 GLOBAL| Potential file name                                        ../POTENTIAL
 GLOBAL| MM Potential file name                                     MM_POTENTIAL
 GLOBAL| Coordinate file name                                      __STD_INPUT__
 GLOBAL| Method name                                                        CP2K
 GLOBAL| Project name                                                  refNa3Pq9
 GLOBAL| Run type                                                         ENERGY
 GLOBAL| FFT library                                                       FFTW3
 GLOBAL| Diagonalization library                                       ScaLAPACK
 GLOBAL| Orthonormality check for eigenvectors                          DISABLED
 GLOBAL| Matrix multiplication library                                     COSMA
 GLOBAL| All-to-all communication in single precision                          F
 GLOBAL| FFTs using library dependent lengths                                  F
 GLOBAL| Grid backend                                                       AUTO
 GLOBAL| Global print level                                                  LOW
 GLOBAL| MPI I/O enabled                                                       T
 GLOBAL| Total number of message passing processes                            24
 GLOBAL| Number of threads for this process                                    1
 GLOBAL| This output is from process                                           0
 GLOBAL| Stack size for threads created by OpenMP (OMP_STACKSIZE)        default
 GLOBAL| CPU model name                          AMD EPYC 7401 24-Core Processor
 GLOBAL| CPUID                                                              1002

 MEMORY| system memory details [Kb]
 MEMORY|                        rank 0           min           max       average
 MEMORY| MemTotal            263969136     263969136     263969136     263969136
 MEMORY| MemFree             239972860     239972860     239972860     239972860
 MEMORY| Buffers                   136           136           136           136
 MEMORY| Cached               18906960      18906960      18906960      18906960
 MEMORY| Slab                  1422260       1422260       1422260       1422260
 MEMORY| SReclaimable           870988        870988        870988        870988
 MEMORY| MemLikelyFree       259750944     259750944     259750944     259750944


 GENERATE|  Preliminary Number of Bonds generated:                             0
 GENERATE|  Achieved consistency in connectivity generation.

 *******************************************************************************
 *******************************************************************************
 **                                                                           **
 **     #####                         ##              ##                      **
 **    ##   ##            ##          ##              ##                      **
 **   ##     ##                       ##            ######                    **
 **   ##     ##  ##   ##  ##   #####  ##  ##   ####   ##    #####    #####    **
 **   ##     ##  ##   ##  ##  ##      ## ##   ##      ##   ##   ##  ##   ##   **
 **   ##  ## ##  ##   ##  ##  ##      ####     ###    ##   ######   ######    **
 **    ##  ###   ##   ##  ##  ##      ## ##      ##   ##   ##       ##        **
 **     #######   #####   ##   #####  ##  ##  ####    ##    #####   ##        **
 **           ##                                                    ##        **
 **                                                                           **
 **                                                ... make the atoms dance   **
 **                                                                           **
 **            Copyright (C) by CP2K developers group (2000-2022)             **
 **                      J. Chem. Phys. 152, 194103 (2020)                    **
 **                                                                           **
 *******************************************************************************


 TOTAL NUMBERS AND MAXIMUM NUMBERS

  Total number of            - Atomic kinds:                                   2
                             - Atoms:                                          4
                             - Shell sets:                                    82
                             - Shells:                                        82
                             - Primitive Cartesian functions:                155
                             - Cartesian basis functions:                    290
                             - Spherical basis functions:                    244

  Maximum angular momentum of the orbital basis functions:                     4


 SCF PARAMETERS         Density guess:                                    ATOMIC
                        --------------------------------------------------------
                        max_scf:                                              20
                        max_scf_history:                                       0
                        max_diis:                                              4
                        --------------------------------------------------------
                        eps_scf:                                        1.00E-06
                        eps_scf_history:                                0.00E+00
                        eps_diis:                                       1.00E-01
                        eps_eigval:                                     1.00E-05
                        --------------------------------------------------------
                        level_shift [a.u.]:                             0.000000
                        --------------------------------------------------------
                        Outer loop SCF in use 
                        No variables optimised in outer loop
                        eps_scf                                         1.00E-06
                        max_scf                                                5
                        No outer loop optimization
                        step_size                                       5.00E-01

 Number of electrons:                                                         48
 Number of occupied orbitals:                                                 24
 Number of molecular orbitals:                                                24

 Number of orbital functions:                                                244
 Number of independent orbital functions:                                    244

 Extrapolation method: initial_guess


 SCF WAVEFUNCTION OPTIMIZATION

  ----------------------------------- OT ---------------------------------------
  Minimizer      : DIIS                : direct inversion
                                         in the iterative subspace
                                         using   7 DIIS vectors
                                         safer DIIS on
  Preconditioner : FULL_ALL            : diagonalization, state selective
  Precond_solver : DEFAULT
  stepsize       :    0.10000000                  energy_gap     :    0.08000000
  eps_taylor     :   0.10000E-15                  max_taylor     :             4
  ----------------------------------- OT ---------------------------------------

  Step     Update method      Time    Convergence         Total energy    Change
  ------------------------------------------------------------------------------
     1 OT DIIS     0.10E+00    1.2     0.21124992      -798.6764947471 -7.99E+02
     2 OT DIIS     0.10E+00    1.4     0.11654303      -819.1559144681 -2.05E+01
     3 OT DIIS     0.10E+00    1.4     0.03296875      -826.4085093526 -7.25E+00
     4 OT DIIS     0.10E+00    1.3     0.01801725      -826.8259750277 -4.17E-01
     5 OT DIIS     0.10E+00    1.4     0.01390956      -827.1543619384 -3.28E-01
     6 OT DIIS     0.10E+00    1.4     0.00804925      -827.4503299745 -2.96E-01
     7 OT DIIS     0.10E+00    1.3     0.00687574      -827.5572002018 -1.07E-01
     8 OT DIIS     0.10E+00    1.4     0.00448190      -827.6343196948 -7.71E-02
     9 OT DIIS     0.10E+00    1.3     0.00358848      -827.6440489639 -9.73E-03
    10 OT DIIS     0.10E+00    1.4     0.00253853      -827.6600986584 -1.60E-02
    11 OT DIIS     0.10E+00    1.3     0.00184068      -827.6812055145 -2.11E-02
    12 OT DIIS     0.10E+00    1.4     0.00167323      -827.6860583457 -4.85E-03
    13 OT DIIS     0.10E+00    1.3     0.00156126      -827.6952634738 -9.21E-03
    14 OT DIIS     0.10E+00    1.4     0.00144786      -827.7002071367 -4.94E-03
    15 OT DIIS     0.10E+00    1.3     0.00132707      -827.7112408379 -1.10E-02
    16 OT DIIS     0.10E+00    1.3     0.00118479      -827.7217281059 -1.05E-02
    17 OT DIIS     0.10E+00    1.4     0.00103286      -827.7328886226 -1.12E-02
    18 OT DIIS     0.10E+00    1.4     0.00102668      -827.7402761895 -7.39E-03
    19 OT DIIS     0.10E+00    1.4     0.00105250      -827.7458800113 -5.60E-03
    20 OT DIIS     0.10E+00    1.3     0.00085929      -827.7500577855 -4.18E-03

  Leaving inner SCF loop after reaching    20 steps.


  Electronic density on regular grids:        -31.5123810879       16.4876189121
  Core density on regular grids:               48.0000000000        0.0000000000
  Hard and soft densities (Lebedev):          -52.7783157837      -36.2906969138
  Total Rho_soft + Rho1_hard - Rho1_soft      -47.9999999577
  Total charge density (r-space):               0.0000000423
  Total Rho_soft + Rho0_soft (g-space):        -0.0000003014

  Overlap energy of the core charge distribution:               0.00000000000000
  Self energy of the core charge distribution:               -563.33250444972134
  Core Hamiltonian energy:                                   -274.79134623197035
  Hartree energy:                                              67.73864757314965
  Exchange-correlation energy:                                -20.79102937492873

  GAPW| Exc from hard and soft atomic rho1:                   -45.22079172385672
  GAPW| local Eh = 1 center integrals:                          8.64696642187346

  Total energy:                                              -827.75005778545403

  outer SCF iter =    1 RMS gradient =   0.86E-03 energy =       -827.7500577855

  ----------------------------------- OT ---------------------------------------
  Minimizer      : DIIS                : direct inversion
                                         in the iterative subspace
                                         using   7 DIIS vectors
                                         safer DIIS on
  Preconditioner : FULL_ALL            : diagonalization, state selective
  Precond_solver : DEFAULT
  stepsize       :    0.10000000                  energy_gap     :    0.08000000
  eps_taylor     :   0.10000E-15                  max_taylor     :             4
  ----------------------------------- OT ---------------------------------------

  Step     Update method      Time    Convergence         Total energy    Change
  ------------------------------------------------------------------------------
     1 OT DIIS     0.10E+00    2.7     0.00581142      -827.7538334126 -3.78E-03
     2 OT DIIS     0.10E+00    1.3     0.00427494      -827.7708123133 -1.70E-02
     3 OT DIIS     0.10E+00    1.3     0.00614450      -827.7831754799 -1.24E-02
     4 OT DIIS     0.10E+00    1.4     0.00286284      -827.7872410832 -4.07E-03
     5 OT DIIS     0.10E+00    1.4     0.00053841      -827.7887973440 -1.56E-03
     6 OT DIIS     0.10E+00    1.4     0.00021296      -827.7890461366 -2.49E-04
     7 OT DIIS     0.10E+00    1.4     0.00012243      -827.7890758519 -2.97E-05
     8 OT DIIS     0.10E+00    1.4     0.00007285      -827.7890811345 -5.28E-06
     9 OT DIIS     0.10E+00    1.4     0.00003956      -827.7890824302 -1.30E-06
    10 OT DIIS     0.10E+00    1.3     0.00000593      -827.7890828423 -4.12E-07
    11 OT DIIS     0.10E+00    1.4     0.00000183      -827.7890828719 -2.96E-08
    12 OT DIIS     0.10E+00    1.4     0.00000070      -827.7890828738 -1.92E-09

  *** SCF run converged in    12 steps ***


  Electronic density on regular grids:        -31.5185367948       16.4814632052
  Core density on regular grids:               48.0000000000        0.0000000000
  Hard and soft densities (Lebedev):          -52.8667063262      -36.3852431661
  Total Rho_soft + Rho1_hard - Rho1_soft      -47.9999999549
  Total charge density (r-space):               0.0000000451
  Total Rho_soft + Rho0_soft (g-space):        -0.0000002986

  Overlap energy of the core charge distribution:               0.00000000000000
  Self energy of the core charge distribution:               -563.33250444972134
  Core Hamiltonian energy:                                   -274.85229911950353
  Hartree energy:                                              67.75733121773675
  Exchange-correlation energy:                                -20.79617539028128

  GAPW| Exc from hard and soft atomic rho1:                   -45.21126834993392
  GAPW| local Eh = 1 center integrals:                          8.64583321789373

  Total energy:                                              -827.78908287380966

  outer SCF iter =    2 RMS gradient =   0.70E-06 energy =       -827.7890828738
  outer SCF loop converged in   2 iterations or   32 steps


 ENERGY| Total FORCE_EVAL ( QS ) energy [a.u.]:             -827.789082873809662

 -------------------------------------------------------------------------------
 -                                                                             -
 -                                DBCSR STATISTICS                             -
 -                                                                             -
 -------------------------------------------------------------------------------
 COUNTER                                    TOTAL       BLAS       SMM       ACC
 flops    70 x    58 x    24              6431040       0.0%    100.0%      0.0%
 flops    24 x    24 x    24              7630848       0.0%    100.0%      0.0%
 flops    70 x    70 x    24              7761600       0.0%    100.0%      0.0%
 flops    24 x    24 x    70             10483200       0.0%    100.0%      0.0%
 flops    58 x    70 x    24             12862080       0.0%    100.0%      0.0%
 flops    70 x    24 x    70             18345600       0.0%    100.0%      0.0%
 flops    58 x    24 x    24             21648384       0.0%    100.0%      0.0%
 flops   128 x    24 x    24             23887872       0.0%    100.0%      0.0%
 flops    24 x    24 x    58             26058240       0.0%    100.0%      0.0%
 flops   128 x    24 x    70             29245440       0.0%    100.0%      0.0%
 flops    58 x    58 x    24             31971456       0.0%    100.0%      0.0%
 flops    70 x    24 x    58             45601920       0.0%    100.0%      0.0%
 flops    58 x    24 x    70             72105600       0.0%    100.0%      0.0%
 flops   128 x    24 x    58             72695808       0.0%    100.0%      0.0%
 flops    58 x    24 x    58            179233920       0.0%    100.0%      0.0%
 flops inhomo. stacks                           0       0.0%      0.0%      0.0%
 flops total                       565.963008E+06       0.0%    100.0%      0.0%
 flops max/rank                    306.455232E+06       0.0%    100.0%      0.0%
 matmuls inhomo. stacks                         0       0.0%      0.0%      0.0%
 matmuls total                               3676       0.0%    100.0%      0.0%
 number of processed stacks                  3676       0.0%    100.0%      0.0%
 average stack size                                     0.0       1.0       0.0
 marketing flops                   601.804032E+06
 -------------------------------------------------------------------------------
 # multiplications                            749
 max memory usage/rank             508.243968E+06
 # max total images/rank                        3
 # max 3D layers                                1
 # MPI messages exchanged                  341544
 MPI messages size (bytes):
  total size                       479.660288E+06
  min size                           0.000000E+00
  max size                          71.680000E+03
  average size                       1.404388E+03
 MPI breakdown and total messages size (bytes):
             size <=      128              320956                        0
       128 < size <=     8192                2694                 12413952
      8192 < size <=    32768               14974                284851456
     32768 < size <=   131072                2920                182394880
    131072 < size <=  4194304                   0                        0
   4194304 < size <= 16777216                   0                        0
  16777216 < size                               0                        0
 -------------------------------------------------------------------------------

 *** WARNING in dbcsr_mm.F:290 :: Using a non-square number of MPI ranks ***
 *** might lead to poor performance. Used ranks: 24 Suggested: 25 49     ***

 -------------------------------------------------------------------------------
 -                                                                             -
 -                      DBCSR MESSAGE PASSING PERFORMANCE                      -
 -                                                                             -
 -------------------------------------------------------------------------------
 ROUTINE             CALLS      AVE VOLUME [Bytes]
 MP_Bcast               16                     12.
 MP_Allreduce         4011                      8.
 MP_Alltoall          2801                   3866.
 MP_ISend            31466                   2122.
 MP_IRecv            31466                    911.
 -------------------------------------------------------------------------------

 -------------------------------------------------------------------------------
 -                                                                             -
 -                                GRID STATISTICS                              -
 -                                                                             -
 -------------------------------------------------------------------------------
 LP    KERNEL             BACKEND                              COUNT     PERCENT
 1     collocate ortho    REF                                 131142      15.76%
 1     integrate ortho    REF                                 127168      15.28%
 2     collocate ortho    REF                                 116094      13.95%
 2     integrate ortho    REF                                 112576      13.53%
 3     collocate ortho    REF                                  70422       8.46%
 3     integrate ortho    REF                                  68288       8.20%
 0     collocate ortho    REF                                  59070       7.10%
 0     integrate ortho    REF                                  57280       6.88%
 4     collocate ortho    REF                                  31581       3.79%
 4     integrate ortho    REF                                  30624       3.68%
 5     collocate ortho    REF                                   8811       1.06%
 5     integrate ortho    REF                                   8544       1.03%
 2     collocate general  REF                                   3072       0.37%
 2     integrate general  REF                                   3072       0.37%
 6     collocate ortho    REF                                   1947       0.23%
 6     integrate ortho    REF                                   1888       0.23%
 7     collocate ortho    REF                                    330       0.04%
 7     integrate ortho    REF                                    320       0.04%
 8     collocate ortho    REF                                     33       0.00%
 8     integrate ortho    REF                                     32       0.00%
 -------------------------------------------------------------------------------

 MEMORY| Estimated peak process memory [MiB]                                 485

 -------------------------------------------------------------------------------
 -                                                                             -
 -                         MESSAGE PASSING PERFORMANCE                         -
 -                                                                             -
 -------------------------------------------------------------------------------

 ROUTINE             CALLS      AVE VOLUME [Bytes]
 MP_Group                4
 MP_Bcast              778                 217971.
 MP_Allreduce         2287                 201582.
 MP_Sync                80
 MP_Alltoall           658               16376050.
 MP_ISendRecv         4485                 242005.
 MP_Wait              8484
 MP_comm_split          38
 MP_ISend             3612                 728229.
 MP_IRecv             3612                 728229.
 MP_Recv                10                   7808.
 -------------------------------------------------------------------------------


 -------------------------------------------------------------------------------
 -                                                                             -
 -                           R E F E R E N C E S                               -
 -                                                                             -
 -------------------------------------------------------------------------------
 
 CP2K version 10.0 (Development Version), the CP2K developers group (2022).
 CP2K is freely available from https://www.cp2k.org/ .

 Kuehne,Thomas D.; Iannuzzi,Marcella; Del Ben,Mauro;
 Rybkin,Vladimir V.; Seewald,Patrick; Stein,Frederick; Laino,Teodoro;
 Khaliullin,Rustam Z.; Schuett,Ole; Schiffmann,Florian; Golze,Dorothea;
 Wilhelm,Jan; Chulkov,Sergey; Bani-Hashemian,Mohammad Hossein;
 Weber,Valery; Borstnik,Urban; Taillefumier,Mathieu;
 Jakobovits,Alice Shoshana; Lazzaro,Alfio; Pabst,Hans; Mueller,Tiziano;
 Schade,Robert; Guidon,Manuel; Andermatt,Samuel; Holmberg,Nico;
 Schenter,Gregory K.; Hehn,Anna; Bussy,Augustin; Belleflamme,Fabian;
 Tabacchi,Gloria; Gloess,Andreas; Lass,Michael; Bethune,Iain;
 Mundy,Christopher J.; Plessl,Christian; Watkins,Matt;
 VandeVondele,Joost; Krack,Matthias; Hutter,Juerg. 
 The Journal of Chemical Physics, 152 (19), (2020). 
 CP2K: An electronic structure and molecular dynamics software package -
 Quickstep: Efficient and accurate electronic structure calculations.
 https://doi.org/10.1063/5.0007045

 Schuett, Ole; Messmer, Peter; Hutter, Juerg; VandeVondele, Joost. 
 Electronic Structure Calculations on Graphics Processing Units, John
 Wiley & Sons, Ltd, 173-190 (2016). 
 GPU-Accelerated Sparse Matrix-Matrix Multiplication for
 Linear Scaling Density Functional Theory.
 https://doi.org/10.1002/9781118670712.ch8

 Heinecke, A; Henry, G; Hutchinson, M; Pabst, H. 
 Proceedings of Intl. Supercomputing Conference, 981-991 (2016). 
 LIBXSMM: Accelerating Small Matrix Multiplications
 by Runtime Code Generation.
 https://doi.org/10.1109/SC.2016.83

 Borstnik, U; VandeVondele, J; Weber, V; Hutter, J. 
 PARALLEL COMPUTING, 40 (5-6), 47-58 (2014). 
 Sparse matrix multiplication: The distributed block-compressed sparse
 row library.
 https://doi.org/10.1016/j.parco.2014.03.012

 Hutter, J; Iannuzzi, M; Schiffmann, F; VandeVondele, J. 
 WIREs Comput Mol Sci., 4 (1), 15-25 (2014). 
 CP2K: atomistic simulations of condensed matter systems.
 https://doi.org/10.1002/wcms.1159

 Frigo, M; Johnson, SG. 
 PROCEEDINGS OF THE IEEE, 93 (2), 216-231 (2005). 
 The design and implementation of FFTW3.
 https://doi.org/10.1109/JPROC.2004.840301

 VandeVondele, J; Hutter, J. 
 JOURNAL OF CHEMICAL PHYSICS, 118 (10), 4365-4369 (2003). 
 An efficient orbital transformation method for electronic structure
 calculations.
 https://doi.org/10.1063/1.1543154

 Lippert, G; Hutter, J; Parrinello, M. 
 THEORETICAL CHEMISTRY ACCOUNTS, 103 (2), 124-140 (1999). 
 The Gaussian and augmented-plane-wave density functional method for ab
 initio molecular dynamics simulations.
 https://doi.org/10.1007/s002140050523

 Krack, M; Parrinello, M. 
 PHYSICAL CHEMISTRY CHEMICAL PHYSICS, 2 (10), 2105-2112 (2000). 
 All-electron ab-initio molecular dynamics.
 https://doi.org/10.1039/b001167n

 Perdew, JP; Burke, K; Ernzerhof, M. 
 PHYSICAL REVIEW LETTERS, 77 (18), 3865-3868 (1996). 
 Generalized gradient approximation made simple.
 https://doi.org/10.1103/PhysRevLett.77.3865


 -------------------------------------------------------------------------------
 -                                                                             -
 -                                T I M I N G                                  -
 -                                                                             -
 -------------------------------------------------------------------------------
 SUBROUTINE                       CALLS  ASD         SELF TIME        TOTAL TIME
                                MAXIMUM       AVERAGE  MAXIMUM  AVERAGE  MAXIMUM
 CP2K                                 1  1.0    0.010    0.030   44.293   44.295
 qs_energies                          1  2.0    0.000    0.000   44.013   44.013
 scf_env_do_scf                       1  3.0    0.000    0.000   43.403   43.403
 scf_env_do_scf_inner_loop           32  4.0    0.001    0.002   41.165   41.166
 qs_ks_update_qs_env                 34  5.0    0.000    0.000   35.384   35.388
 rebuild_ks_matrix                   32  6.0    0.000    0.000   35.379   35.382
 qs_ks_build_kohn_sham_matrix        32  7.0    0.007    0.008   35.378   35.381
 pw_transfer                        677 10.1    0.074    0.086   17.090   17.309
 fft_wrap_pw1pw2                    581 11.3    0.008    0.010   16.869   17.083
 fft_wrap_pw1pw2_300                386 12.7    1.108    1.137   16.144   16.494
 qs_vxc_create                       32  8.0    0.001    0.001   15.909   15.909
 xc_vxc_pw_create                    32  9.0    0.135    0.150   15.908   15.908
 fft3d_ps                           581 13.3    6.824    7.644   12.128   12.658
 xc_rho_set_and_dset_create          32 10.0    0.109    0.122    9.496    9.553
 xc_pw_derive                       192 11.0    0.002    0.003    8.864    8.930
 qs_rho_update_rho                   33  5.0    0.001    0.001    7.274    7.277
 calculate_rho_elec                  33  6.0    0.061    0.062    6.790    6.790
 xc_pw_divergence                    32 10.0    0.001    0.001    6.027    6.062
 rs_pw_transfer                     324  9.5    0.007    0.009    5.739    5.990
 prepare_gapw_den                    32  8.0    0.001    0.001    5.577    5.670
 sum_up_and_integrate                32  8.0    0.028    0.030    5.287    5.292
 integrate_v_rspace                  32  9.0    0.001    0.001    5.259    5.264
 density_rs2pw                       33  7.0    0.002    0.002    4.849    5.057
 xc_functional_eval                 160 10.8    0.001    0.001    4.904    5.006
 pbe_lda_eval                       160 11.8    4.903    5.005    4.903    5.005
 mp_alltoall_z22v                   581 15.3    3.292    4.548    3.292    4.548
 mp_sum_d                          1352  7.4    3.941    4.504    3.941    4.504
 potential_pw2rs                     32 10.0    0.004    0.004    3.683    3.686
 yz_to_x                            292 13.9    0.996    1.169    2.768    3.299
 calculate_vxc_atom                  32  8.0    0.023    0.202    3.041    3.041
 x_to_yz                            289 14.7    0.999    1.083    2.519    2.904
 put_rho0_on_grid                    32  9.0    0.064    0.071    2.642    2.734
 gaVxcgb_GC                          64  9.0    0.210    2.716    0.210    2.716
 integrate_vhg0_rspace               32  8.0    0.301    0.432    2.536    2.570
 rs_pw_transfer_RS2PW_300            65 10.0    1.388    1.512    2.165    2.371
 init_scf_loop                        2  4.0    0.000    0.000    2.237    2.237
 rs_pw_transfer_PW2RS_300            64 11.0    1.321    1.389    2.115    2.206
 calculate_rho_atom                  64  9.0    0.985    2.145    0.985    2.145
 pw_gather_p                        292 12.9    1.776    2.116    1.776    2.116
 pw_scatter_p                       289 13.7    1.820    1.938    1.820    1.938
 grid_collocate_task_list            33  7.0    1.699    1.818    1.699    1.818
 calculate_rho0_atom                 64  9.0    1.389    1.596    1.389    1.596
 grid_integrate_task_list            32 10.0    1.523    1.570    1.523    1.570
 mp_waitany                        3612 11.5    1.205    1.530    1.205    1.530
 mp_sum_dm                          392  7.7    1.297    1.451    1.297    1.451
 mp_waitall_1                     46816 14.0    1.035    1.179    1.035    1.179
 dbcsr_multiply_generic             749 10.1    0.022    0.023    1.060    1.136
 -------------------------------------------------------------------------------

 The number of warnings for this run is : 1
 
 -------------------------------------------------------------------------------
  **** **** ******  **  PROGRAM ENDED AT                 2022-05-12 12:27:31.954
 ***** ** ***  *** **   PROGRAM RAN ON                                   tcopt10
 **    ****   ******    PROGRAM RAN BY                                    hutter
 ***** **    ** ** **   PROGRAM PROCESS ID                                 61081
  **** **  *******  **  PROGRAM STOPPED IN /data/hutter/GITHUB/BASIS/scMOLOPT/PB
                                           E/Na
