 DBCSR| CPU Multiplication driver                                           XSMM
 DBCSR| Multrec recursion limit                                              512
 DBCSR| Multiplication stack size                                           1000
 DBCSR| Maximum elements for images                                    UNLIMITED
 DBCSR| Multiplicative factor virtual images                                   1
 DBCSR| Use multiplication densification                                       T
 DBCSR| Multiplication size stacks                                             3
 DBCSR| Use memory pool for CPU allocation                                     F
 DBCSR| Number of 3D layers                                               SINGLE
 DBCSR| Use MPI memory allocation                                              F
 DBCSR| Use RMA algorithm                                                      F
 DBCSR| Use Communication thread                                               T
 DBCSR| Communication thread load                                             87
 DBCSR| MPI: My node id                                                        0
 DBCSR| MPI: Number of nodes                                                  24
 DBCSR| OMP: Current number of threads                                         1
 DBCSR| OMP: Max number of threads                                             1
 DBCSR| Split modifier for TAS multiplication algorithm                  1.0E+00


  **** **** ******  **  PROGRAM STARTED AT               2022-05-12 12:23:11.600
 ***** ** ***  *** **   PROGRAM STARTED ON                               tcopt10
 **    ****   ******    PROGRAM STARTED BY                                hutter
 ***** **    ** ** **   PROGRAM PROCESS ID                                 60637
  **** **  *******  **  PROGRAM STARTED IN /data/hutter/GITHUB/BASIS/scMOLOPT/PB
                                           E/Na

 CP2K| version string:                   CP2K version 10.0 (Development Version)
 CP2K| source code revision number:                                  git:13fcfd8
 CP2K| cp2kflags: omp libint fftw3 libxc elpa parallel mpi3 scalapack cosma xsmm
 CP2K|             spglib sirius libvori libbqb
 CP2K| is freely available from                            https://www.cp2k.org/
 CP2K| Program compiled at                      Tue 10 May 2022 02:27:21 PM CEST
 CP2K| Program compiled on                                               tcopt10
 CP2K| Program compiled for                                                local
 CP2K| Data directory path                   /data/hutter/GITHUB/TDLRI/cp2k/data
 CP2K| Input file name                                               NaH-ref.inp

 GLOBAL| Force Environment number                                              1
 GLOBAL| Basis set file name                                        ../def2QZVPP
 GLOBAL| Potential file name                                        ../POTENTIAL
 GLOBAL| MM Potential file name                                     MM_POTENTIAL
 GLOBAL| Coordinate file name                                      __STD_INPUT__
 GLOBAL| Method name                                                        CP2K
 GLOBAL| Project name                                                   refNaHq9
 GLOBAL| Run type                                                         ENERGY
 GLOBAL| FFT library                                                       FFTW3
 GLOBAL| Diagonalization library                                       ScaLAPACK
 GLOBAL| Orthonormality check for eigenvectors                          DISABLED
 GLOBAL| Matrix multiplication library                                     COSMA
 GLOBAL| All-to-all communication in single precision                          F
 GLOBAL| FFTs using library dependent lengths                                  F
 GLOBAL| Grid backend                                                       AUTO
 GLOBAL| Global print level                                                  LOW
 GLOBAL| MPI I/O enabled                                                       T
 GLOBAL| Total number of message passing processes                            24
 GLOBAL| Number of threads for this process                                    1
 GLOBAL| This output is from process                                           0
 GLOBAL| Stack size for threads created by OpenMP (OMP_STACKSIZE)        default
 GLOBAL| CPU model name                          AMD EPYC 7401 24-Core Processor
 GLOBAL| CPUID                                                              1002

 MEMORY| system memory details [Kb]
 MEMORY|                        rank 0           min           max       average
 MEMORY| MemTotal            263969136     263969136     263969136     263969136
 MEMORY| MemFree             239982348     239982348     239982348     239982348
 MEMORY| Buffers                   136           136           136           136
 MEMORY| Cached               18906476      18906476      18906476      18906476
 MEMORY| Slab                  1424172       1424172       1424172       1424172
 MEMORY| SReclaimable           871156        871156        871156        871156
 MEMORY| MemLikelyFree       259760116     259760116     259760116     259760116


 GENERATE|  Preliminary Number of Bonds generated:                             0
 GENERATE|  Achieved consistency in connectivity generation.

 *******************************************************************************
 *******************************************************************************
 **                                                                           **
 **     #####                         ##              ##                      **
 **    ##   ##            ##          ##              ##                      **
 **   ##     ##                       ##            ######                    **
 **   ##     ##  ##   ##  ##   #####  ##  ##   ####   ##    #####    #####    **
 **   ##     ##  ##   ##  ##  ##      ## ##   ##      ##   ##   ##  ##   ##   **
 **   ##  ## ##  ##   ##  ##  ##      ####     ###    ##   ######   ######    **
 **    ##  ###   ##   ##  ##  ##      ## ##      ##   ##   ##       ##        **
 **     #######   #####   ##   #####  ##  ##  ####    ##    #####   ##        **
 **           ##                                                    ##        **
 **                                                                           **
 **                                                ... make the atoms dance   **
 **                                                                           **
 **            Copyright (C) by CP2K developers group (2000-2022)             **
 **                      J. Chem. Phys. 152, 194103 (2020)                    **
 **                                                                           **
 *******************************************************************************


 TOTAL NUMBERS AND MAXIMUM NUMBERS

  Total number of            - Atomic kinds:                                   2
                             - Atoms:                                          2
                             - Shell sets:                                    30
                             - Shells:                                        30
                             - Primitive Cartesian functions:                 51
                             - Cartesian basis functions:                    103
                             - Spherical basis functions:                     88

  Maximum angular momentum of the orbital basis functions:                     3


 SCF PARAMETERS         Density guess:                                    ATOMIC
                        --------------------------------------------------------
                        max_scf:                                              20
                        max_scf_history:                                       0
                        max_diis:                                              4
                        --------------------------------------------------------
                        eps_scf:                                        1.00E-07
                        eps_scf_history:                                0.00E+00
                        eps_diis:                                       1.00E-01
                        eps_eigval:                                     1.00E-05
                        --------------------------------------------------------
                        level_shift [a.u.]:                             0.000000
                        --------------------------------------------------------
                        Outer loop SCF in use 
                        No variables optimised in outer loop
                        eps_scf                                         1.00E-07
                        max_scf                                               10
                        No outer loop optimization
                        step_size                                       5.00E-01

 Number of electrons:                                                         12
 Number of occupied orbitals:                                                  6
 Number of molecular orbitals:                                                 6

 Number of orbital functions:                                                 88
 Number of independent orbital functions:                                     88

 Extrapolation method: initial_guess


 SCF WAVEFUNCTION OPTIMIZATION

  ----------------------------------- OT ---------------------------------------
  Minimizer      : DIIS                : direct inversion
                                         in the iterative subspace
                                         using   7 DIIS vectors
                                         safer DIIS on
  Preconditioner : FULL_ALL            : diagonalization, state selective
  Precond_solver : DEFAULT
  stepsize       :    0.10000000                  energy_gap     :    0.08000000
  eps_taylor     :   0.10000E-15                  max_taylor     :             4
  ----------------------------------- OT ---------------------------------------

  Step     Update method      Time    Convergence         Total energy    Change
  ------------------------------------------------------------------------------
     1 OT DIIS     0.10E+00    0.6     0.41117847      -151.1321326360 -1.51E+02
     2 OT DIIS     0.10E+00    0.8     0.24544885      -158.2080781047 -7.08E+00
     3 OT DIIS     0.10E+00    0.8     0.07011447      -161.6459006580 -3.44E+00
     4 OT DIIS     0.10E+00    0.8     0.06720297      -161.9172779526 -2.71E-01
     5 OT DIIS     0.10E+00    0.8     0.05784869      -162.0992810170 -1.82E-01
     6 OT DIIS     0.10E+00    0.8     0.01986421      -162.6228538154 -5.24E-01
     7 OT DIIS     0.10E+00    0.8     0.01526070      -162.6706076264 -4.78E-02
     8 OT DIIS     0.10E+00    0.8     0.00553006      -162.7256487909 -5.50E-02
     9 OT DIIS     0.10E+00    0.8     0.00351281      -162.7313670295 -5.72E-03
    10 OT DIIS     0.10E+00    0.8     0.00187005      -162.7345786452 -3.21E-03
    11 OT DIIS     0.10E+00    0.8     0.00247500      -162.7350691673 -4.91E-04
    12 OT DIIS     0.10E+00    0.8     0.00122111      -162.7353837978 -3.15E-04
    13 OT DIIS     0.10E+00    0.8     0.00105028      -162.7356706638 -2.87E-04
    14 OT DIIS     0.10E+00    0.8     0.00094089      -162.7358505409 -1.80E-04
    15 OT DIIS     0.10E+00    0.8     0.00076743      -162.7362269700 -3.76E-04
    16 OT DIIS     0.10E+00    0.8     0.00064410      -162.7364951600 -2.68E-04
    17 OT DIIS     0.10E+00    0.8     0.00058192      -162.7366115843 -1.16E-04
    18 OT DIIS     0.10E+00    0.7     0.00046389      -162.7368192274 -2.08E-04
    19 OT DIIS     0.10E+00    0.8     0.00039813      -162.7369002146 -8.10E-05
    20 OT DIIS     0.10E+00    0.8     0.00030808      -162.7370053480 -1.05E-04

  Leaving inner SCF loop after reaching    20 steps.


  Electronic density on regular grids:         -8.9271662555        3.0728337445
  Core density on regular grids:               12.0000000000       -0.0000000000
  Hard and soft densities (Lebedev):          -13.7256389487      -10.6528052059
  Total Rho_soft + Rho1_hard - Rho1_soft      -11.9999999984
  Total charge density (r-space):               0.0000000016
  Total Rho_soft + Rho0_soft (g-space):        -0.0000000319

  Overlap energy of the core charge distribution:               0.00000000000000
  Self energy of the core charge distribution:               -139.98539548154966
  Core Hamiltonian energy:                                    -26.54804199144525
  Hartree energy:                                              28.08544166607903
  Exchange-correlation energy:                                 -5.94703898603377

  GAPW| Exc from hard and soft atomic rho1:                    -8.69370320705658
  GAPW| local Eh = 1 center integrals:                         -9.64826734794469

  Total energy:                                              -162.73700534795088

  outer SCF iter =    1 RMS gradient =   0.31E-03 energy =       -162.7370053480

  ----------------------------------- OT ---------------------------------------
  Minimizer      : DIIS                : direct inversion
                                         in the iterative subspace
                                         using   7 DIIS vectors
                                         safer DIIS on
  Preconditioner : FULL_ALL            : diagonalization, state selective
  Precond_solver : DEFAULT
  stepsize       :    0.10000000                  energy_gap     :    0.08000000
  eps_taylor     :   0.10000E-15                  max_taylor     :             4
  ----------------------------------- OT ---------------------------------------

  Step     Update method      Time    Convergence         Total energy    Change
  ------------------------------------------------------------------------------
     1 OT DIIS     0.10E+00    1.5     0.00160946      -162.7370204728 -1.51E-05
     2 OT DIIS     0.10E+00    0.8     0.00081706      -162.7371150938 -9.46E-05
     3 OT DIIS     0.10E+00    0.8     0.00042674      -162.7371482182 -3.31E-05
     4 OT DIIS     0.10E+00    0.8     0.00003572      -162.7371607938 -1.26E-05
     5 OT DIIS     0.10E+00    0.8     0.00001403      -162.7371608608 -6.70E-08
     6 OT DIIS     0.10E+00    0.8     0.00000837      -162.7371608648 -3.98E-09
     7 OT DIIS     0.10E+00    0.8     0.00000103      -162.7371608665 -1.70E-09
     8 OT DIIS     0.10E+00    0.8     0.00000022      -162.7371608666 -7.53E-11
     9 OT DIIS     0.10E+00    0.8     0.00000007      -162.7371608666 -1.66E-11

  *** SCF run converged in     9 steps ***


  Electronic density on regular grids:         -8.9270688243        3.0729311757
  Core density on regular grids:               12.0000000000       -0.0000000000
  Hard and soft densities (Lebedev):          -13.7072718686      -10.6343406946
  Total Rho_soft + Rho1_hard - Rho1_soft      -11.9999999983
  Total charge density (r-space):               0.0000000017
  Total Rho_soft + Rho0_soft (g-space):        -0.0000000319

  Overlap energy of the core charge distribution:               0.00000000000000
  Self energy of the core charge distribution:               -139.98539548154966
  Core Hamiltonian energy:                                    -26.54976901616594
  Hartree energy:                                              28.08439436494061
  Exchange-correlation energy:                                 -5.94475882294695

  GAPW| Exc from hard and soft atomic rho1:                    -8.69394068227500
  GAPW| local Eh = 1 center integrals:                         -9.64769122861921

  Total energy:                                              -162.73716086661611

  outer SCF iter =    2 RMS gradient =   0.74E-07 energy =       -162.7371608666
  outer SCF loop converged in   2 iterations or   29 steps


 ENERGY| Total FORCE_EVAL ( QS ) energy [a.u.]:             -162.737160866616108

 -------------------------------------------------------------------------------
 -                                                                             -
 -                                DBCSR STATISTICS                             -
 -                                                                             -
 -------------------------------------------------------------------------------
 COUNTER                                    TOTAL       BLAS       SMM       ACC
 flops     6 x     6 x     6                96768       0.0%    100.0%      0.0%
 flops     6 x     6 x    30               254880       0.0%    100.0%      0.0%
 flops    30 x    30 x     6               324000       0.0%    100.0%      0.0%
 flops     6 x     6 x    58               492768       0.0%    100.0%      0.0%
 flops    30 x    58 x     6               626400       0.0%    100.0%      0.0%
 flops    30 x     6 x    30               777600       0.0%    100.0%      0.0%
 flops    88 x     6 x     6               931392       0.0%    100.0%      0.0%
 flops    58 x    58 x     6              1211040       0.0%    100.0%      0.0%
 flops    30 x     6 x    58              1503360       0.0%    100.0%      0.0%
 flops    58 x     6 x    30              1503360       0.0%    100.0%      0.0%
 flops    88 x     6 x    30              1964160       0.0%    100.0%      0.0%
 flops    58 x     6 x    58              2906496       0.0%    100.0%      0.0%
 flops    88 x     6 x    58              3797376       0.0%    100.0%      0.0%
 flops inhomo. stacks                           0       0.0%      0.0%      0.0%
 flops total                        16.389600E+06       0.0%    100.0%      0.0%
 flops max/rank                     16.389600E+06       0.0%    100.0%      0.0%
 matmuls inhomo. stacks                         0       0.0%      0.0%      0.0%
 matmuls total                               1109       0.0%    100.0%      0.0%
 number of processed stacks                  1109       0.0%    100.0%      0.0%
 average stack size                                     0.0       1.0       0.0
 marketing flops                    17.028672E+06
 -------------------------------------------------------------------------------
 # multiplications                            655
 max memory usage/rank             368.242688E+06
 # max total images/rank                        3
 # max 3D layers                                1
 # MPI messages exchanged                  298680
 MPI messages size (bytes):
  total size                        51.954848E+06
  min size                           0.000000E+00
  max size                          40.832000E+03
  average size                     173.948196E+00
 MPI breakdown and total messages size (bytes):
             size <=      128              291440                        0
       128 < size <=     8192                5900                 10447008
      8192 < size <=    32768                 670                 14150400
     32768 < size <=   131072                 670                 27357440
    131072 < size <=  4194304                   0                        0
   4194304 < size <= 16777216                   0                        0
  16777216 < size                               0                        0
 -------------------------------------------------------------------------------

 *** WARNING in dbcsr_mm.F:290 :: Using a non-square number of MPI ranks ***
 *** might lead to poor performance. Used ranks: 24 Suggested: 25 49     ***

 -------------------------------------------------------------------------------
 -                                                                             -
 -                      DBCSR MESSAGE PASSING PERFORMANCE                      -
 -                                                                             -
 -------------------------------------------------------------------------------
 ROUTINE             CALLS      AVE VOLUME [Bytes]
 MP_Bcast               14                     12.
 MP_Allreduce         3510                      8.
 MP_Alltoall          2420                   2005.
 MP_ISend            27502                    457.
 MP_IRecv            27502                     60.
 -------------------------------------------------------------------------------

 -------------------------------------------------------------------------------
 -                                                                             -
 -                                GRID STATISTICS                              -
 -                                                                             -
 -------------------------------------------------------------------------------
 LP    KERNEL             BACKEND                              COUNT     PERCENT
 1     collocate ortho    REF                                  35370      17.10%
 1     integrate ortho    REF                                  34191      16.53%
 2     collocate ortho    REF                                  26700      12.91%
 2     integrate ortho    REF                                  25810      12.48%
 0     collocate ortho    REF                                  17160       8.30%
 0     integrate ortho    REF                                  16588       8.02%
 3     collocate ortho    REF                                  16560       8.01%
 3     integrate ortho    REF                                  16008       7.74%
 4     collocate ortho    REF                                   6510       3.15%
 4     integrate ortho    REF                                   6293       3.04%
 2     collocate general  REF                                   1392       0.67%
 2     integrate general  REF                                   1392       0.67%
 5     collocate ortho    REF                                   1080       0.52%
 5     integrate ortho    REF                                   1044       0.50%
 6     collocate ortho    REF                                    390       0.19%
 6     integrate ortho    REF                                    377       0.18%
 -------------------------------------------------------------------------------

 MEMORY| Estimated peak process memory [MiB]                                 352

 -------------------------------------------------------------------------------
 -                                                                             -
 -                         MESSAGE PASSING PERFORMANCE                         -
 -                                                                             -
 -------------------------------------------------------------------------------

 ROUTINE             CALLS      AVE VOLUME [Bytes]
 MP_Group                4
 MP_Bcast              388                 401266.
 MP_Allreduce         1403                  75543.
 MP_Sync                56
 MP_Alltoall           598                9900060.
 MP_ISendRecv         4071                 191232.
 MP_Wait              7698
 MP_comm_split          26
 MP_ISend             3276                 468443.
 MP_IRecv             3276                 468483.
 MP_Recv                10                    704.
 -------------------------------------------------------------------------------


 -------------------------------------------------------------------------------
 -                                                                             -
 -                           R E F E R E N C E S                               -
 -                                                                             -
 -------------------------------------------------------------------------------
 
 CP2K version 10.0 (Development Version), the CP2K developers group (2022).
 CP2K is freely available from https://www.cp2k.org/ .

 Kuehne,Thomas D.; Iannuzzi,Marcella; Del Ben,Mauro;
 Rybkin,Vladimir V.; Seewald,Patrick; Stein,Frederick; Laino,Teodoro;
 Khaliullin,Rustam Z.; Schuett,Ole; Schiffmann,Florian; Golze,Dorothea;
 Wilhelm,Jan; Chulkov,Sergey; Bani-Hashemian,Mohammad Hossein;
 Weber,Valery; Borstnik,Urban; Taillefumier,Mathieu;
 Jakobovits,Alice Shoshana; Lazzaro,Alfio; Pabst,Hans; Mueller,Tiziano;
 Schade,Robert; Guidon,Manuel; Andermatt,Samuel; Holmberg,Nico;
 Schenter,Gregory K.; Hehn,Anna; Bussy,Augustin; Belleflamme,Fabian;
 Tabacchi,Gloria; Gloess,Andreas; Lass,Michael; Bethune,Iain;
 Mundy,Christopher J.; Plessl,Christian; Watkins,Matt;
 VandeVondele,Joost; Krack,Matthias; Hutter,Juerg. 
 The Journal of Chemical Physics, 152 (19), (2020). 
 CP2K: An electronic structure and molecular dynamics software package -
 Quickstep: Efficient and accurate electronic structure calculations.
 https://doi.org/10.1063/5.0007045

 Schuett, Ole; Messmer, Peter; Hutter, Juerg; VandeVondele, Joost. 
 Electronic Structure Calculations on Graphics Processing Units, John
 Wiley & Sons, Ltd, 173-190 (2016). 
 GPU-Accelerated Sparse Matrix-Matrix Multiplication for
 Linear Scaling Density Functional Theory.
 https://doi.org/10.1002/9781118670712.ch8

 Heinecke, A; Henry, G; Hutchinson, M; Pabst, H. 
 Proceedings of Intl. Supercomputing Conference, 981-991 (2016). 
 LIBXSMM: Accelerating Small Matrix Multiplications
 by Runtime Code Generation.
 https://doi.org/10.1109/SC.2016.83

 Borstnik, U; VandeVondele, J; Weber, V; Hutter, J. 
 PARALLEL COMPUTING, 40 (5-6), 47-58 (2014). 
 Sparse matrix multiplication: The distributed block-compressed sparse
 row library.
 https://doi.org/10.1016/j.parco.2014.03.012

 Hutter, J; Iannuzzi, M; Schiffmann, F; VandeVondele, J. 
 WIREs Comput Mol Sci., 4 (1), 15-25 (2014). 
 CP2K: atomistic simulations of condensed matter systems.
 https://doi.org/10.1002/wcms.1159

 Frigo, M; Johnson, SG. 
 PROCEEDINGS OF THE IEEE, 93 (2), 216-231 (2005). 
 The design and implementation of FFTW3.
 https://doi.org/10.1109/JPROC.2004.840301

 VandeVondele, J; Hutter, J. 
 JOURNAL OF CHEMICAL PHYSICS, 118 (10), 4365-4369 (2003). 
 An efficient orbital transformation method for electronic structure
 calculations.
 https://doi.org/10.1063/1.1543154

 Lippert, G; Hutter, J; Parrinello, M. 
 THEORETICAL CHEMISTRY ACCOUNTS, 103 (2), 124-140 (1999). 
 The Gaussian and augmented-plane-wave density functional method for ab
 initio molecular dynamics simulations.
 https://doi.org/10.1007/s002140050523

 Krack, M; Parrinello, M. 
 PHYSICAL CHEMISTRY CHEMICAL PHYSICS, 2 (10), 2105-2112 (2000). 
 All-electron ab-initio molecular dynamics.
 https://doi.org/10.1039/b001167n

 Perdew, JP; Burke, K; Ernzerhof, M. 
 PHYSICAL REVIEW LETTERS, 77 (18), 3865-3868 (1996). 
 Generalized gradient approximation made simple.
 https://doi.org/10.1103/PhysRevLett.77.3865


 -------------------------------------------------------------------------------
 -                                                                             -
 -                                T I M I N G                                  -
 -                                                                             -
 -------------------------------------------------------------------------------
 SUBROUTINE                       CALLS  ASD         SELF TIME        TOTAL TIME
                                MAXIMUM       AVERAGE  MAXIMUM  AVERAGE  MAXIMUM
 CP2K                                 1  1.0    0.010    0.036   22.867   22.868
 qs_energies                          1  2.0    0.000    0.000   22.682   22.682
 scf_env_do_scf                       1  3.0    0.000    0.000   22.352   22.353
 scf_env_do_scf_inner_loop           29  4.0    0.001    0.002   21.121   21.122
 qs_ks_update_qs_env                 31  5.0    0.000    0.000   17.783   17.784
 rebuild_ks_matrix                   29  6.0    0.000    0.000   17.781   17.782
 qs_ks_build_kohn_sham_matrix        29  7.0    0.006    0.007   17.780   17.781
 pw_transfer                        614 10.1    0.059    0.069    9.279    9.435
 fft_wrap_pw1pw2                    527 11.3    0.007    0.008    9.148    9.299
 fft_wrap_pw1pw2_300                350 12.7    0.564    0.589    8.627    8.824
 qs_vxc_create                       29  8.0    0.001    0.001    8.345    8.345
 xc_vxc_pw_create                    29  9.0    0.064    0.074    8.345    8.345
 fft3d_ps                           527 13.3    3.769    4.101    6.911    7.354
 xc_rho_set_and_dset_create          29 10.0    0.054    0.063    4.970    5.189
 xc_pw_derive                       174 11.0    0.002    0.002    4.653    4.861
 qs_rho_update_rho                   30  5.0    0.001    0.001    4.004    4.004
 rs_pw_transfer                     294  9.5    0.006    0.008    3.548    3.779
 calculate_rho_elec                  30  6.0    0.032    0.035    3.611    3.611
 xc_pw_divergence                    29 10.0    0.001    0.001    3.189    3.393
 mp_alltoall_z22v                   527 15.3    2.355    3.359    2.355    3.359
 density_rs2pw                       30  7.0    0.001    0.002    2.862    3.090
 sum_up_and_integrate                29  8.0    0.016    0.018    2.787    2.791
 xc_functional_eval                 145 10.9    0.000    0.001    2.582    2.778
 pbe_lda_eval                       145 11.9    2.582    2.778    2.582    2.778
 integrate_v_rspace                  29  9.0    0.001    0.001    2.771    2.774
 prepare_gapw_den                    29  8.0    0.001    0.001    2.372    2.406
 potential_pw2rs                     29 10.0    0.003    0.003    2.228    2.230
 yz_to_x                            265 13.9    0.369    0.524    1.629    2.184
 mp_sum_d                          1167  6.8    1.787    2.042    1.787    2.042
 x_to_yz                            262 14.7    0.400    0.486    1.496    1.747
 put_rho0_on_grid                    29  9.0    0.034    0.040    1.435    1.469
 rs_pw_transfer_RS2PW_300            59 10.0    0.797    0.889    1.271    1.466
 calculate_vxc_atom                  29  8.0    0.014    0.141    1.353    1.353
 rs_pw_transfer_PW2RS_300            58 11.0    0.760    0.814    1.253    1.333
 init_scf_loop                        2  4.0    0.000    0.000    1.230    1.230
 integrate_vhg0_rspace               29  8.0    0.058    0.115    1.152    1.163
 gaVxcgb_GC                          58  9.0    0.046    1.103    0.046    1.103
 dbcsr_multiply_generic             655 10.1    0.019    0.020    0.981    1.001
 mp_waitany                        3276 11.5    0.743    0.989    0.743    0.989
 pw_gather_p                        265 12.9    0.816    0.962    0.816    0.962
 pw_scatter_p                       262 13.7    0.828    0.914    0.828    0.914
 mp_waitall_1                     41102 14.0    0.698    0.802    0.698    0.802
 calculate_rho_atom                  58  9.0    0.366    0.748    0.366    0.748
 mp_sum_dm                          178  7.7    0.640    0.718    0.640    0.718
 grid_collocate_task_list            30  7.0    0.622    0.675    0.622    0.675
 qs_scf_new_mos                      29  5.0    0.000    0.000    0.642    0.643
 qs_scf_loop_do_ot                   29  6.0    0.000    0.000    0.641    0.642
 ot_scf_mini                         29  7.0    0.000    0.000    0.613    0.614
 rs_pw_transfer_PW2RS_100            29 12.0    0.100    0.116    0.503    0.567
 grid_integrate_task_list            29 10.0    0.391    0.541    0.391    0.541
 -------------------------------------------------------------------------------

 The number of warnings for this run is : 1
 
 -------------------------------------------------------------------------------
  **** **** ******  **  PROGRAM ENDED AT                 2022-05-12 12:23:34.870
 ***** ** ***  *** **   PROGRAM RAN ON                                   tcopt10
 **    ****   ******    PROGRAM RAN BY                                    hutter
 ***** **    ** ** **   PROGRAM PROCESS ID                                 60637
  **** **  *******  **  PROGRAM STOPPED IN /data/hutter/GITHUB/BASIS/scMOLOPT/PB
                                           E/Na
