
  **** **** ******  **  PROGRAM STARTED AT               2021-01-05 13:41:58.547
 ***** ** ***  *** **   PROGRAM STARTED ON                               tcopt10
 **    ****   ******    PROGRAM STARTED BY                                hutter
 ***** **    ** ** **   PROGRAM PROCESS ID                                 51564
  **** **  *******  **  PROGRAM STARTED IN /data/hutter/GITHUB/BASIS/MOLOPT/PBE/
                                           Fe

 CP2K| version string:                    CP2K version 9.0 (Development Version)
 CP2K| source code revision number:                                  git:3ae5de2
 CP2K| cp2kflags: omp libint fftw3 libxc elpa parallel mpi3 scalapack xsmm spgli
 CP2K|            b sirius
 CP2K| is freely available from                            https://www.cp2k.org/
 CP2K| Program compiled at                          Mon Jan  4 12:49:09 CET 2021
 CP2K| Program compiled on                                               tcopt10
 CP2K| Program compiled for                                                local
 CP2K| Data directory path                 /data/hutter/GITHUB/CURRENT/cp2k/data
 CP2K| Input file name                                              opt-dzvp.inp

 GLOBAL| Method name                                              OPTIMIZE_BASIS
 GLOBAL| Project name                                                     molopt
 GLOBAL| Preferred FFT library                                             FFTW3
 GLOBAL| Preferred diagonalization lib.                                     ELPA
 GLOBAL| Run type                                                   ENERGY_FORCE
 GLOBAL| All-to-all communication in single precision                          F
 GLOBAL| FFTs using library dependent lengths                                  F
 GLOBAL| Global print level                                               MEDIUM
 GLOBAL| MPI I/O enabled                                                       T
 GLOBAL| Total number of message passing processes                            32
 GLOBAL| Number of threads for this process                                    1
 GLOBAL| This output is from process                                           0
 GLOBAL| CPU model name                          AMD EPYC 7401 24-Core Processor
 GLOBAL| CPUID                                                              1002

 MEMORY| system memory details [Kb]
 MEMORY|                        rank 0           min           max       average
 MEMORY| MemTotal            263987256     263987256     263987256     263987256
 MEMORY| MemFree             229821836     229821836     229821836     229821836
 MEMORY| Buffers                   148           148           148           148
 MEMORY| Cached               27842572      27842572      27842572      27842572
 MEMORY| Slab                  1055092       1055092       1055092       1055092
 MEMORY| SReclaimable           467280        467280        467280        467280
 MEMORY| MemLikelyFree       258131836     258131836     258131836     258131836


 *** Fundamental physical constants (SI units) ***

 *** Literature: B. J. Mohr and B. N. Taylor,
 ***             CODATA recommended values of the fundamental physical
 ***             constants: 2006, Web Version 5.1
 ***             http://physics.nist.gov/constants

 Speed of light in vacuum [m/s]                             2.99792458000000E+08
 Magnetic constant or permeability of vacuum [N/A**2]       1.25663706143592E-06
 Electric constant or permittivity of vacuum [F/m]          8.85418781762039E-12
 Planck constant (h) [J*s]                                  6.62606896000000E-34
 Planck constant (h-bar) [J*s]                              1.05457162825177E-34
 Elementary charge [C]                                      1.60217648700000E-19
 Electron mass [kg]                                         9.10938215000000E-31
 Electron g factor [ ]                                     -2.00231930436220E+00
 Proton mass [kg]                                           1.67262163700000E-27
 Fine-structure constant                                    7.29735253760000E-03
 Rydberg constant [1/m]                                     1.09737315685270E+07
 Avogadro constant [1/mol]                                  6.02214179000000E+23
 Boltzmann constant [J/K]                                   1.38065040000000E-23
 Atomic mass unit [kg]                                      1.66053878200000E-27
 Bohr radius [m]                                            5.29177208590000E-11

 *** Conversion factors ***

 [u] -> [a.u.]                                              1.82288848426455E+03
 [Angstrom] -> [Bohr] = [a.u.]                              1.88972613288564E+00
 [a.u.] = [Bohr] -> [Angstrom]                              5.29177208590000E-01
 [a.u.] -> [s]                                              2.41888432650478E-17
 [a.u.] -> [fs]                                             2.41888432650478E-02
 [a.u.] -> [J]                                              4.35974393937059E-18
 [a.u.] -> [N]                                              8.23872205491840E-08
 [a.u.] -> [K]                                              3.15774647902944E+05
 [a.u.] -> [kJ/mol]                                         2.62549961709828E+03
 [a.u.] -> [kcal/mol]                                       6.27509468713739E+02
 [a.u.] -> [Pa]                                             2.94210107994716E+13
 [a.u.] -> [bar]                                            2.94210107994716E+08
 [a.u.] -> [atm]                                            2.90362800883016E+08
 [a.u.] -> [eV]                                             2.72113838565563E+01
 [a.u.] -> [Hz]                                             6.57968392072181E+15
 [a.u.] -> [1/cm] (wave numbers)                            2.19474631370540E+05
 [a.u./Bohr**2] -> [1/cm]                                   5.14048714338585E+03
 
 DBCSR| CPU Multiplication driver                                           XSMM
 DBCSR| Multrec recursion limit                                              512
 DBCSR| Multiplication stack size                                           1000
 DBCSR| Maximum elements for images                                    UNLIMITED
 DBCSR| Multiplicative factor virtual images                                   1
 DBCSR| Use multiplication densification                                       T
 DBCSR| Multiplication size stacks                                             3
 DBCSR| Use memory pool for CPU allocation                                     F
 DBCSR| Number of 3D layers                                               SINGLE
 DBCSR| Use MPI memory allocation                                              F
 DBCSR| Use RMA algorithm                                                      F
 DBCSR| Use Communication thread                                               T
 DBCSR| Communication thread load                                             87
 DBCSR| MPI: My node id                                                        0
 DBCSR| MPI: Number of nodes                                                  32
 DBCSR| OMP: Current number of threads                                         1
 DBCSR| OMP: Max number of threads                                             1
 DBCSR| Split modifier for TAS multiplication algorithm                  1.0E+00

 BASOPT| Total number of calculations      5

 BASOPT| Content of basis combination      1
 BASOPT|     Element:   FE    Basis set:    DZVP-MOLOPT-PBE-GTH-Q16
 BASOPT|     Element:    H    Basis set:    DZVP-MOLOPT-PBE-GTH-Q1
 BASOPT|     Element:    F    Basis set:    DZVP-MOLOPT-PBE-GTH-Q7
 BASOPT|     Element:    C    Basis set:    DZVP-MOLOPT-PBE-GTH-Q4
 BASOPT|     Element:    O    Basis set:    DZVP-MOLOPT-PBE-GTH-Q6

 BASOPT| Information at iteration number:       0
 BASOPT| Training set | Combination | Rho difference | Condition num. | Time
 BASOPT| -----------------------------------------------------------------------
 BASOPT|        1     |       1     | 0.15107606E-01 | 0.38749440E+04 |    1.174
 BASOPT|        2     |       1     | 0.10828697E-01 | 0.38762691E+03 |    0.062
 BASOPT|        3     |       1     | 0.82414917E-02 | 0.25721380E+03 |    0.102
 BASOPT|        4     |       1     | 0.21113522E-01 | 0.30232712E+03 |    0.047
 BASOPT|        5     |       1     | 0.15016447E-01 | 0.43742127E+04 |    3.202
 BASOPT| -----------------------------------------------------------------------
 BASOPT| Total residuum value: -.17959951E+04

 BASOPT| Information at iteration number:     100
 BASOPT| Training set | Combination | Rho difference | Condition num. | Time
 BASOPT| -----------------------------------------------------------------------
 BASOPT|        1     |       1     | 0.15025279E-01 | 0.39586403E+04 |  117.101
 BASOPT|        2     |       1     | 0.10763669E-01 | 0.38762691E+03 |    6.092
 BASOPT|        3     |       1     | 0.80938303E-02 | 0.25860081E+03 |    9.597
 BASOPT|        4     |       1     | 0.21054887E-01 | 0.30536202E+03 |    4.763
 BASOPT|        5     |       1     | 0.14960590E-01 | 0.43742127E+04 |  321.268
 BASOPT| -----------------------------------------------------------------------
 BASOPT| Total residuum value: -.17960097E+04

 BASOPT| Information at iteration number:     200
 BASOPT| Training set | Combination | Rho difference | Condition num. | Time
 BASOPT| -----------------------------------------------------------------------
 BASOPT|        1     |       1     | 0.16230478E-01 | 0.31760937E+04 |  233.694
 BASOPT|        2     |       1     | 0.73031910E-02 | 0.30672794E+03 |   12.616
 BASOPT|        3     |       1     | 0.76207840E-02 | 0.20872247E+03 |   19.779
 BASOPT|        4     |       1     | 0.13242588E-01 | 0.25824502E+03 |   10.173
 BASOPT|        5     |       1     | 0.14903155E-01 | 0.43941807E+04 |  639.028
 BASOPT| -----------------------------------------------------------------------
 BASOPT| Total residuum value: -.17963055E+04

 BASOPT| Information at iteration number:     300
 BASOPT| Training set | Combination | Rho difference | Condition num. | Time
 BASOPT| -----------------------------------------------------------------------
 BASOPT|        1     |       1     | 0.17010472E-01 | 0.29808030E+04 |  349.536
 BASOPT|        2     |       1     | 0.68916824E-02 | 0.26998614E+03 |   18.656
 BASOPT|        3     |       1     | 0.80130472E-02 | 0.18874303E+03 |   29.386
 BASOPT|        4     |       1     | 0.10844983E-01 | 0.24154768E+03 |   14.958
 BASOPT|        5     |       1     | 0.15136557E-01 | 0.43788806E+04 |  956.275
 BASOPT| -----------------------------------------------------------------------
 BASOPT| Total residuum value: -.17963649E+04

 BASOPT| Information at iteration number:     400
 BASOPT| Training set | Combination | Rho difference | Condition num. | Time
 BASOPT| -----------------------------------------------------------------------
 BASOPT|        1     |       1     | 0.17133813E-01 | 0.27289609E+04 |  465.440
 BASOPT|        2     |       1     | 0.67578264E-02 | 0.25499389E+03 |   24.711
 BASOPT|        3     |       1     | 0.80686366E-02 | 0.17712014E+03 |   39.016
 BASOPT|        4     |       1     | 0.98101801E-02 | 0.23183535E+03 |   19.725
 BASOPT|        5     |       1     | 0.15113499E-01 | 0.43793566E+04 | 1273.622
 BASOPT| -----------------------------------------------------------------------
 BASOPT| Total residuum value: -.17964125E+04

 BASOPT| Information at iteration number:     500
 BASOPT| Training set | Combination | Rho difference | Condition num. | Time
 BASOPT| -----------------------------------------------------------------------
 BASOPT|        1     |       1     | 0.16812885E-01 | 0.28778058E+04 |  581.586
 BASOPT|        2     |       1     | 0.68396040E-02 | 0.27177242E+03 |   30.760
 BASOPT|        3     |       1     | 0.80524246E-02 | 0.17965716E+03 |   48.656
 BASOPT|        4     |       1     | 0.98055805E-02 | 0.23683364E+03 |   24.514
 BASOPT|        5     |       1     | 0.15049660E-01 | 0.43887131E+04 | 1591.227
 BASOPT| -----------------------------------------------------------------------
 BASOPT| Total residuum value: -.17964577E+04

 BASOPT| Information at iteration number:     600
 BASOPT| Training set | Combination | Rho difference | Condition num. | Time
 BASOPT| -----------------------------------------------------------------------
 BASOPT|        1     |       1     | 0.17295389E-01 | 0.25404775E+04 |  699.669
 BASOPT|        2     |       1     | 0.66948515E-02 | 0.24584198E+03 |   37.025
 BASOPT|        3     |       1     | 0.83608544E-02 | 0.16631620E+03 |   58.515
 BASOPT|        4     |       1     | 0.84088285E-02 | 0.22153309E+03 |   29.295
 BASOPT|        5     |       1     | 0.15159964E-01 | 0.43933735E+04 | 1913.352
 BASOPT| -----------------------------------------------------------------------
 BASOPT| Total residuum value: -.17964480E+04

 BASOPT| Information at iteration number:     700
 BASOPT| Training set | Combination | Rho difference | Condition num. | Time
 BASOPT| -----------------------------------------------------------------------
 BASOPT|        1     |       1     | 0.16721610E-01 | 0.27262891E+04 |  816.017
 BASOPT|        2     |       1     | 0.68411188E-02 | 0.26871611E+03 |   43.097
 BASOPT|        3     |       1     | 0.80625063E-02 | 0.17495052E+03 |   68.145
 BASOPT|        4     |       1     | 0.94152413E-02 | 0.23041605E+03 |   33.943
 BASOPT|        5     |       1     | 0.15032732E-01 | 0.43931211E+04 | 2231.246
 BASOPT| -----------------------------------------------------------------------
 BASOPT| Total residuum value: -.17964447E+04

 BASOPT| Information at iteration number:     800
 BASOPT| Training set | Combination | Rho difference | Condition num. | Time
 BASOPT| -----------------------------------------------------------------------
 BASOPT|        1     |       1     | 0.17159632E-01 | 0.25603447E+04 |  932.054
 BASOPT|        2     |       1     | 0.64631261E-02 | 0.25110783E+03 |   49.172
 BASOPT|        3     |       1     | 0.78556768E-02 | 0.16858237E+03 |   77.775
 BASOPT|        4     |       1     | 0.86376451E-02 | 0.21665536E+03 |   38.605
 BASOPT|        5     |       1     | 0.15195014E-01 | 0.43913440E+04 | 2549.431
 BASOPT| -----------------------------------------------------------------------
 BASOPT| Total residuum value: -.17964814E+04

 BASOPT| Information at iteration number:     900
 BASOPT| Training set | Combination | Rho difference | Condition num. | Time
 BASOPT| -----------------------------------------------------------------------
 BASOPT|        1     |       1     | 0.16834222E-01 | 0.26572922E+04 | 1047.985
 BASOPT|        2     |       1     | 0.63814143E-02 | 0.25336998E+03 |   55.244
 BASOPT|        3     |       1     | 0.75245606E-02 | 0.16958376E+03 |   87.407
 BASOPT|        4     |       1     | 0.87949250E-02 | 0.21118423E+03 |   43.263
 BASOPT|        5     |       1     | 0.15024781E-01 | 0.43872781E+04 | 2867.359
 BASOPT| -----------------------------------------------------------------------
 BASOPT| Total residuum value: -.17965043E+04

 BASOPT| Information at iteration number:    1000
 BASOPT| Training set | Combination | Rho difference | Condition num. | Time
 BASOPT| -----------------------------------------------------------------------
 BASOPT|        1     |       1     | 0.17013921E-01 | 0.27941353E+04 | 1163.773
 BASOPT|        2     |       1     | 0.63735718E-02 | 0.24515922E+03 |   61.326
 BASOPT|        3     |       1     | 0.75699866E-02 | 0.16780541E+03 |   97.030
 BASOPT|        4     |       1     | 0.86632181E-02 | 0.20771976E+03 |   47.921
 BASOPT|        5     |       1     | 0.15165539E-01 | 0.43856340E+04 | 3185.146
 BASOPT| -----------------------------------------------------------------------
 BASOPT| Total residuum value: -.17964828E+04

 BASOPT| Information at iteration number:    1100
 BASOPT| Training set | Combination | Rho difference | Condition num. | Time
 BASOPT| -----------------------------------------------------------------------
 BASOPT|        1     |       1     | 0.16900454E-01 | 0.27777996E+04 | 1279.383
 BASOPT|        2     |       1     | 0.62291437E-02 | 0.24749903E+03 |   67.409
 BASOPT|        3     |       1     | 0.72999012E-02 | 0.16879073E+03 |  106.657
 BASOPT|        4     |       1     | 0.88565768E-02 | 0.20598116E+03 |   52.578
 BASOPT|        5     |       1     | 0.15034211E-01 | 0.43830869E+04 | 3503.029
 BASOPT| -----------------------------------------------------------------------
 BASOPT| Total residuum value: -.17965227E+04

 BASOPT| Information at iteration number:    1200
 BASOPT| Training set | Combination | Rho difference | Condition num. | Time
 BASOPT| -----------------------------------------------------------------------
 BASOPT|        1     |       1     | 0.17037068E-01 | 0.27367188E+04 | 1395.033
 BASOPT|        2     |       1     | 0.61503635E-02 | 0.24564146E+03 |   73.489
 BASOPT|        3     |       1     | 0.72590307E-02 | 0.16821588E+03 |  116.277
 BASOPT|        4     |       1     | 0.87329029E-02 | 0.20397472E+03 |   57.240
 BASOPT|        5     |       1     | 0.15079662E-01 | 0.43833749E+04 | 3821.047
 BASOPT| -----------------------------------------------------------------------
 BASOPT| Total residuum value: -.17965183E+04

 BASOPT| Information at iteration number:    1300
 BASOPT| Training set | Combination | Rho difference | Condition num. | Time
 BASOPT| -----------------------------------------------------------------------
 BASOPT|        1     |       1     | 0.17028725E-01 | 0.27298136E+04 | 1510.721
 BASOPT|        2     |       1     | 0.61470708E-02 | 0.24544587E+03 |   79.573
 BASOPT|        3     |       1     | 0.72611228E-02 | 0.16807833E+03 |  125.889
 BASOPT|        4     |       1     | 0.87061546E-02 | 0.20403857E+03 |   61.925
 BASOPT|        5     |       1     | 0.15070645E-01 | 0.43836049E+04 | 4139.007
 BASOPT| -----------------------------------------------------------------------
 BASOPT| Total residuum value: -.17965203E+04

 BASOPT| Information at iteration number:    1400
 BASOPT| Training set | Combination | Rho difference | Condition num. | Time
 BASOPT| -----------------------------------------------------------------------
 BASOPT|        1     |       1     | 0.17028999E-01 | 0.27298313E+04 | 1626.609
 BASOPT|        2     |       1     | 0.61472339E-02 | 0.24546184E+03 |   85.658
 BASOPT|        3     |       1     | 0.72604557E-02 | 0.16808537E+03 |  135.507
 BASOPT|        4     |       1     | 0.87084955E-02 | 0.20402490E+03 |   66.595
 BASOPT|        5     |       1     | 0.15071158E-01 | 0.43835968E+04 | 4457.040
 BASOPT| -----------------------------------------------------------------------
 BASOPT| Total residuum value: -.17965223E+04

 BASOPT| Information at iteration number:    1500
 BASOPT| Training set | Combination | Rho difference | Condition num. | Time
 BASOPT| -----------------------------------------------------------------------
 BASOPT|        1     |       1     | 0.17029249E-01 | 0.27298058E+04 | 1742.282
 BASOPT|        2     |       1     | 0.61471243E-02 | 0.24545067E+03 |   91.738
 BASOPT|        3     |       1     | 0.72605692E-02 | 0.16807998E+03 |  145.129
 BASOPT|        4     |       1     | 0.87078702E-02 | 0.20401897E+03 |   71.250
 BASOPT|        5     |       1     | 0.15071210E-01 | 0.43835991E+04 | 4775.392
 BASOPT| -----------------------------------------------------------------------
 BASOPT| Total residuum value: -.17965225E+04

 BASOPT| Information at iteration number:    1600
 BASOPT| Training set | Combination | Rho difference | Condition num. | Time
 BASOPT| -----------------------------------------------------------------------
 BASOPT|        1     |       1     | 0.17029252E-01 | 0.27298110E+04 | 1857.894
 BASOPT|        2     |       1     | 0.61471211E-02 | 0.24545049E+03 |   97.824
 BASOPT|        3     |       1     | 0.72605660E-02 | 0.16807995E+03 |  154.758
 BASOPT|        4     |       1     | 0.87078599E-02 | 0.20401889E+03 |   75.902
 BASOPT|        5     |       1     | 0.15071218E-01 | 0.43835992E+04 | 5094.211
 BASOPT| -----------------------------------------------------------------------
 BASOPT| Total residuum value: -.17965197E+04

 BASOPT| Information at iteration number:    1700
 BASOPT| Training set | Combination | Rho difference | Condition num. | Time
 BASOPT| -----------------------------------------------------------------------
 BASOPT|        1     |       1     | 0.17029254E-01 | 0.27298101E+04 | 1973.660
 BASOPT|        2     |       1     | 0.61471205E-02 | 0.24545042E+03 |  103.909
 BASOPT|        3     |       1     | 0.72605660E-02 | 0.16807992E+03 |  164.388
 BASOPT|        4     |       1     | 0.87078576E-02 | 0.20401883E+03 |   80.566
 BASOPT|        5     |       1     | 0.15071219E-01 | 0.43835991E+04 | 5412.735
 BASOPT| -----------------------------------------------------------------------
 BASOPT| Total residuum value: -.17965231E+04

 BASOPT| Information at iteration number:    1800
 BASOPT| Training set | Combination | Rho difference | Condition num. | Time
 BASOPT| -----------------------------------------------------------------------
 BASOPT|        1     |       1     | 0.17029254E-01 | 0.27298098E+04 | 2089.513
 BASOPT|        2     |       1     | 0.61471202E-02 | 0.24545039E+03 |  110.025
 BASOPT|        3     |       1     | 0.72605661E-02 | 0.16807991E+03 |  174.017
 BASOPT|        4     |       1     | 0.87078563E-02 | 0.20401881E+03 |   85.226
 BASOPT|        5     |       1     | 0.15071219E-01 | 0.43835991E+04 | 5733.549
 BASOPT| -----------------------------------------------------------------------
 BASOPT| Total residuum value: -.17965234E+04

 BASOPT| Information at iteration number:    1900
 BASOPT| Training set | Combination | Rho difference | Condition num. | Time
 BASOPT| -----------------------------------------------------------------------
 BASOPT|        1     |       1     | 0.17029255E-01 | 0.27298097E+04 | 2205.324
 BASOPT|        2     |       1     | 0.61471202E-02 | 0.24545039E+03 |  116.109
 BASOPT|        3     |       1     | 0.72605662E-02 | 0.16807990E+03 |  183.647
 BASOPT|        4     |       1     | 0.87078562E-02 | 0.20401881E+03 |   89.888
 BASOPT|        5     |       1     | 0.15071219E-01 | 0.43835991E+04 | 6052.665
 BASOPT| -----------------------------------------------------------------------
 BASOPT| Total residuum value: -.17965234E+04

 BASOPT| Information at iteration number:    2000
 BASOPT| Training set | Combination | Rho difference | Condition num. | Time
 BASOPT| -----------------------------------------------------------------------
 BASOPT|        1     |       1     | 0.17029255E-01 | 0.27298097E+04 | 2321.203
 BASOPT|        2     |       1     | 0.61471202E-02 | 0.24545039E+03 |  122.209
 BASOPT|        3     |       1     | 0.72605662E-02 | 0.16807990E+03 |  193.288
 BASOPT|        4     |       1     | 0.87078562E-02 | 0.20401881E+03 |   94.554
 BASOPT|        5     |       1     | 0.15071219E-01 | 0.43835991E+04 | 6371.381
 BASOPT| -----------------------------------------------------------------------
 BASOPT| Total residuum value: -.17965243E+04

 BASOPT| Information at iteration number:    2100
 BASOPT| Training set | Combination | Rho difference | Condition num. | Time
 BASOPT| -----------------------------------------------------------------------
 BASOPT|        1     |       1     | 0.17029255E-01 | 0.27298097E+04 | 2437.080
 BASOPT|        2     |       1     | 0.61471202E-02 | 0.24545039E+03 |  128.313
 BASOPT|        3     |       1     | 0.72605662E-02 | 0.16807990E+03 |  202.934
 BASOPT|        4     |       1     | 0.87078562E-02 | 0.20401881E+03 |   99.222
 BASOPT|        5     |       1     | 0.15071219E-01 | 0.43835991E+04 | 6689.950
 BASOPT| -----------------------------------------------------------------------
 BASOPT| Total residuum value: -.17965257E+04

 BASOPT| Information at iteration number:    2200
 BASOPT| Training set | Combination | Rho difference | Condition num. | Time
 BASOPT| -----------------------------------------------------------------------
 BASOPT|        1     |       1     | 0.17029255E-01 | 0.27298097E+04 | 2553.039
 BASOPT|        2     |       1     | 0.61471202E-02 | 0.24545039E+03 |  134.409
 BASOPT|        3     |       1     | 0.72605662E-02 | 0.16807990E+03 |  212.577
 BASOPT|        4     |       1     | 0.87078562E-02 | 0.20401881E+03 |  103.876
 BASOPT|        5     |       1     | 0.15071219E-01 | 0.43835991E+04 | 7008.648
 BASOPT| -----------------------------------------------------------------------
 BASOPT| Total residuum value: -.17965248E+04


 -------------------------------------------------------------------------------
 -                                                                             -
 -                                DBCSR STATISTICS                             -
 -                                                                             -
 -------------------------------------------------------------------------------
 COUNTER                                    TOTAL       BLAS       SMM       ACC
 flops   112 x   112 x     2                50176       0.0%    100.0%      0.0%
 flops   112 x   112 x     1                50176       0.0%    100.0%      0.0%
 flops    68 x   112 x     2               152320       0.0%    100.0%      0.0%
 flops   112 x    68 x     2               152320       0.0%    100.0%      0.0%
 flops   112 x   116 x     1               259840       0.0%    100.0%      0.0%
 flops   116 x   112 x     2               259840       0.0%    100.0%      0.0%
 flops   112 x   116 x     2               259840       0.0%    100.0%      0.0%
 flops   116 x   112 x     1               259840       0.0%    100.0%      0.0%
 flops   112 x   112 x    18               451584       0.0%    100.0%      0.0%
 flops   112 x   116 x    18               467712       0.0%    100.0%      0.0%
 flops   112 x   112 x    19               476672       0.0%    100.0%      0.0%
 flops   112 x   116 x    19               493696       0.0%    100.0%      0.0%
 flops   112 x   112 x    11               551936       0.0%    100.0%      0.0%
 flops   116 x   112 x    11               571648       0.0%    100.0%      0.0%
 flops   116 x   116 x    11               592064       0.0%    100.0%      0.0%
 flops   112 x   112 x    15               752640       0.0%    100.0%      0.0%
 flops   116 x   112 x    15               779520       0.0%    100.0%      0.0%
 flops   112 x   116 x    15               779520       0.0%    100.0%      0.0%
 flops   116 x   112 x    18               935424       0.0%    100.0%      0.0%
 flops   116 x   112 x    19               987392       0.0%    100.0%      0.0%
 flops    68 x    68 x     2              1017280       0.0%    100.0%      0.0%
 flops   116 x    68 x     2              1577600       0.0%    100.0%      0.0%
 flops    68 x   116 x     2              1577600       0.0%    100.0%      0.0%
 flops   116 x   116 x    15              2422080       0.0%    100.0%      0.0%
 flops   116 x   116 x    18              2906496       0.0%    100.0%      0.0%
 flops   116 x   116 x     1              2960320       0.0%    100.0%      0.0%
 flops   116 x   116 x     2              2960320       0.0%    100.0%      0.0%
 flops   116 x   116 x    19              3067968       0.0%    100.0%      0.0%
 flops   112 x   112 x    32              3211264       0.0%    100.0%      0.0%
 flops    68 x   112 x    32              4874240       0.0%    100.0%      0.0%
 flops   112 x    68 x    32              4874240       0.0%    100.0%      0.0%
 flops   112 x   116 x    32             16629760       0.0%    100.0%      0.0%
 flops   116 x   112 x    32             16629760       0.0%    100.0%      0.0%
 flops    68 x    68 x    32             32552960       0.0%    100.0%      0.0%
 flops   116 x    68 x    32             50483200       0.0%    100.0%      0.0%
 flops    68 x   116 x    32             50483200       0.0%    100.0%      0.0%
 flops   116 x   116 x    32            189460480       0.0%    100.0%      0.0%
 flops inhomo. stacks                           0       0.0%      0.0%      0.0%
 flops total                       396.972928E+06       0.0%    100.0%      0.0%
 flops max/rank                     48.713280E+06       0.0%    100.0%      0.0%
 matmuls inhomo. stacks                         0       0.0%      0.0%      0.0%
 matmuls total                                995       0.0%    100.0%      0.0%
 number of processed stacks                   189       0.0%    100.0%      0.0%
 average stack size                                     0.0       5.3       0.0
 marketing flops                   741.579904E+06
 -------------------------------------------------------------------------------
 # multiplications                              2
 max memory usage/rank             204.800000E+06
 # max total images/rank                        7
 # max 3D layers                                1
 # MPI messages exchanged                     420
 MPI messages size (bytes):
  total size                         8.145888E+06
  min size                           0.000000E+00
  max size                         325.632000E+03
  average size                      19.394971E+03
 MPI breakdown and total messages size (bytes):
             size <=      128                 343                        0
       128 < size <=     8192                   0                        0
      8192 < size <=    32768                  29                   403680
     32768 < size <=   131072                  22                   836352
    131072 < size <=  4194304                  26                  6905856
   4194304 < size <= 16777216                   0                        0
  16777216 < size                               0                        0
 -------------------------------------------------------------------------------

 *** WARNING in dbcsr_mm.F:294 :: Using a non-square number of MPI ranks ***
 *** might lead to poor performance. Used ranks: 7 Suggested: 9 16       ***

 -------------------------------------------------------------------------------
 -                                                                             -
 -                      DBCSR MESSAGE PASSING PERFORMANCE                      -
 -                                                                             -
 -------------------------------------------------------------------------------
 ROUTINE             CALLS      AVE VOLUME [Bytes]
 MP_Bcast               38                     12.
 MP_Allreduce          107                     23.
 MP_Alltoall        162606                 383777.
 MP_ISend               56                  21564.
 MP_IRecv               36                    750.
 -------------------------------------------------------------------------------

 -------------------------------------------------------------------------------
 -                                                                             -
 -                                GRID STATISTICS                              -
 -                                                                             -
 -------------------------------------------------------------------------------
 LP    KERNEL             BACKEND                              COUNT     PERCENT
 5     collocate ortho    REF                                  37458      11.79%
 5     integrate ortho    REF                                  37458      11.79%
 2     collocate ortho    REF                                  36684      11.54%
 2     integrate ortho    REF                                  36684      11.54%
 4     collocate ortho    REF                                  26706       8.40%
 4     integrate ortho    REF                                  26706       8.40%
 1     collocate ortho    REF                                  17080       5.37%
 1     integrate ortho    REF                                  17080       5.37%
 3     collocate ortho    REF                                  10920       3.44%
 3     integrate ortho    REF                                  10920       3.44%
 8     collocate ortho    REF                                   9402       2.96%
 8     integrate ortho    REF                                   9402       2.96%
 0     collocate ortho    REF                                   8356       2.63%
 0     integrate ortho    REF                                   8356       2.63%
 7     collocate ortho    REF                                   7772       2.45%
 7     integrate ortho    REF                                   7772       2.45%
 6     collocate ortho    REF                                   4510       1.42%
 6     integrate ortho    REF                                   4510       1.42%
 0     collocate general  REF                                     41       0.01%
 -------------------------------------------------------------------------------

 MEMORY| Estimated peak process memory [MiB]                                 395

 -------------------------------------------------------------------------------
 -                                                                             -
 -                         MESSAGE PASSING PERFORMANCE                         -
 -                                                                             -
 -------------------------------------------------------------------------------

 ROUTINE             CALLS      AVE VOLUME [Bytes]
 MP_Bcast             9074                   2820.
 MP_Allreduce        41016                     40.
 MP_Sync              9032
 MP_Alltoall            34                1603674.
 MP_ISendRecv          102                 115893.
 MP_Wait               102
 MP_comm_split        6775
 -------------------------------------------------------------------------------


 -------------------------------------------------------------------------------
 -                                                                             -
 -                           R E F E R E N C E S                               -
 -                                                                             -
 -------------------------------------------------------------------------------
 
 CP2K version 9.0 (Development Version), the CP2K developers group (2020).
 CP2K is freely available from https://www.cp2k.org/ .

 Kuehne,Thomas D.; Iannuzzi,Marcella; Del Ben,Mauro;
 Rybkin,Vladimir V.; Seewald,Patrick; Stein,Frederick; Laino,Teodoro;
 Khaliullin,Rustam Z.; Schuett,Ole; Schiffmann,Florian; Golze,Dorothea;
 Wilhelm,Jan; Chulkov,Sergey; Bani-Hashemian,Mohammad Hossein;
 Weber,Valery; Borstnik,Urban; Taillefumier,Mathieu;
 Jakobovits,Alice Shoshana; Lazzaro,Alfio; Pabst,Hans; Mueller,Tiziano;
 Schade,Robert; Guidon,Manuel; Andermatt,Samuel; Holmberg,Nico;
 Schenter,Gregory K.; Hehn,Anna; Bussy,Augustin; Belleflamme,Fabian;
 Tabacchi,Gloria; Gloess,Andreas; Lass,Michael; Bethune,Iain;
 Mundy,Christopher J.; Plessl,Christian; Watkins,Matt;
 VandeVondele,Joost; Krack,Matthias; Hutter,Juerg. 
 The Journal of Chemical Physics, 152 (19), (2020). 
 CP2K: An electronic structure and molecular dynamics software package -
 Quickstep: Efficient and accurate electronic structure calculations.
 https://doi.org/10.1063/5.0007045

 Schuett, Ole; Messmer, Peter; Hutter, Juerg; VandeVondele, Joost. 
 Electronic Structure Calculations on Graphics Processing Units, John
 Wiley & Sons, Ltd, 173-190 (2016). 
 GPU-Accelerated Sparse Matrix-Matrix Multiplication for
 Linear Scaling Density Functional Theory.
 https://doi.org/10.1002/9781118670712.ch8

 Borstnik, U; VandeVondele, J; Weber, V; Hutter, J. 
 PARALLEL COMPUTING, 40 (5-6), 47-58 (2014). 
 Sparse matrix multiplication: The distributed block-compressed sparse
 row library.
 https://doi.org/10.1016/j.parco.2014.03.012

 Hutter, J; Iannuzzi, M; Schiffmann, F; VandeVondele, J. 
 WIREs Comput Mol Sci., 4 (1), 15-25 (2014). 
 CP2K: atomistic simulations of condensed matter systems.
 https://doi.org/10.1002/wcms.1159

 Marek, A; Blum, V; Johanni, R; Havu, V; Lang, B; Auckenthaler, T;
 Heinecke, A; Bungartz, H; Lederer, H. 
 Journal of Physics: Condensed Matter, 26 (21), (2014). 
 The ELPA library: scalable parallel eigenvalue solutions for
 electronic structure
 theory and computational science.
 https://doi.org/10.1088/0953-8984/26/21/213201

 Guidon, M; Hutter, J; VandeVondele, J. 
 JOURNAL OF CHEMICAL THEORY AND COMPUTATION, 6 (8), 2348-2364 (2010). 
 Auxiliary Density Matrix Methods for Hartree-Fock Exchange Calculations.
 https://doi.org/10.1021/ct1002225

 VandeVondele, J; Hutter, J. 
 JOURNAL OF CHEMICAL PHYSICS, 127 (11), 114105 (2007). 
 Gaussian basis sets for accurate calculations on molecular systems in
 gas and condensed phases.
 https://doi.org/10.1063/1.2770708

 Krack, M. 
 THEORETICAL CHEMISTRY ACCOUNTS, 114 (1-3), 145-152 (2005). 
 Pseudopotentials for H to Kr optimized for gradient-corrected
 exchange-correlation functionals.
 https://doi.org/10.1007/s00214-005-0655-y

 VandeVondele, J; Krack, M; Mohamed, F; Parrinello, M; Chassaing, T;
 Hutter, J. COMPUTER PHYSICS COMMUNICATIONS, 167 (2), 103-128 (2005). 
 QUICKSTEP: Fast and accurate density functional calculations using a
 mixed Gaussian and plane waves approach.
 https://doi.org/10.1016/j.cpc.2004.12.014

 Frigo, M; Johnson, SG. 
 PROCEEDINGS OF THE IEEE, 93 (2), 216-231 (2005). 
 The design and implementation of FFTW3.
 https://doi.org/10.1109/JPROC.2004.840301

 Hartwigsen, C; Goedecker, S; Hutter, J. 
 PHYSICAL REVIEW B, 58 (7), 3641-3662 (1998). 
 Relativistic separable dual-space Gaussian pseudopotentials from H to Rn.
 https://doi.org/10.1103/PhysRevB.58.3641

 Lippert, G; Hutter, J; Parrinello, M. 
 MOLECULAR PHYSICS, 92 (3), 477-487 (1997). 
 A hybrid Gaussian and plane wave density functional scheme.
 https://doi.org/10.1080/002689797170220

 Perdew, JP; Burke, K; Ernzerhof, M. 
 PHYSICAL REVIEW LETTERS, 77 (18), 3865-3868 (1996). 
 Generalized gradient approximation made simple.
 https://doi.org/10.1103/PhysRevLett.77.3865

 Goedecker, S; Teter, M; Hutter, J. 
 PHYSICAL REVIEW B, 54 (3), 1703-1710 (1996). 
 Separable dual-space Gaussian pseudopotentials.
 https://doi.org/10.1103/PhysRevB.54.1703


 -------------------------------------------------------------------------------
 -                                                                             -
 -                                T I M I N G                                  -
 -                                                                             -
 -------------------------------------------------------------------------------
 SUBROUTINE                       CALLS  ASD         SELF TIME        TOTAL TIME
                                MAXIMUM       AVERAGE  MAXIMUM  AVERAGE  MAXIMUM
 CP2K                                 1  1.0    0.002    0.005 7198.811 7198.900
 run_optimize_basis                   1  2.0    0.002    0.003 7198.800 7198.889
 driver_para_opt_basis                1  3.0    0.000    0.000 7198.788 7198.877
 driver_optimization_para_low         1  4.0    0.034    0.050 7198.788 7198.877
 compute_residuum_vectors          2258  5.0    0.184    0.300 7194.981 7197.423
 mp_sum_dv                        11291  5.8 5182.707 7090.493 5182.707 7090.493
 cp_gemm                          47418  7.1    0.085    0.186 1828.941 6836.174
 cp_gemm_fm_gemm                  47418  8.1    0.050    0.110 1828.856 6836.019
 cp_fm_gemm                       47418  9.1 1828.806 6835.925 1828.806 6835.925
 admm_fit_mo_coeffs                2258  6.0    0.008    0.016  697.512 2449.055
 fit_mo_coeffs                     2258  7.0    0.026    0.039  524.474 1887.039
 purify_mo_diag                    2258  7.0    0.062    0.154  173.031  564.933
 build_overlap_matrix_low          4520  6.0   51.369  189.600   51.528  189.831
 copy_dbcsr_to_fm                 13549  6.7    0.191    0.379   69.609  170.903
 -------------------------------------------------------------------------------

 The number of warnings for this run is : 1
 
 -------------------------------------------------------------------------------
  **** **** ******  **  PROGRAM ENDED AT                 2021-01-05 15:41:58.105
 ***** ** ***  *** **   PROGRAM RAN ON                                   tcopt10
 **    ****   ******    PROGRAM RAN BY                                    hutter
 ***** **    ** ** **   PROGRAM PROCESS ID                                 51564
  **** **  *******  **  PROGRAM STOPPED IN /data/hutter/GITHUB/BASIS/MOLOPT/PBE/
                                           Fe
