
  **** **** ******  **  PROGRAM STARTED AT               2021-01-23 12:55:41.653
 ***** ** ***  *** **   PROGRAM STARTED ON                               tcopt10
 **    ****   ******    PROGRAM STARTED BY                                hutter
 ***** **    ** ** **   PROGRAM PROCESS ID                                 78542
  **** **  *******  **  PROGRAM STARTED IN /data/hutter/GITHUB/BASIS/MOLOPT/PBE/
                                           Zn

 CP2K| version string:                    CP2K version 9.0 (Development Version)
 CP2K| source code revision number:                                  git:7d6847f
 CP2K| cp2kflags: omp libint fftw3 libxc elpa parallel mpi3 scalapack xsmm spgli
 CP2K|            b sirius libvori libbqb
 CP2K| is freely available from                            https://www.cp2k.org/
 CP2K| Program compiled at                          Fre Jan 15 16:26:00 CET 2021
 CP2K| Program compiled on                                               tcopt10
 CP2K| Program compiled for                                                local
 CP2K| Data directory path                 /data/hutter/GITHUB/CURRENT/cp2k/data
 CP2K| Input file name                                               opt-all.inp

 GLOBAL| Method name                                              OPTIMIZE_BASIS
 GLOBAL| Project name                                                     molopt
 GLOBAL| Preferred FFT library                                             FFTW3
 GLOBAL| Preferred diagonalization lib.                                     ELPA
 GLOBAL| Run type                                                   ENERGY_FORCE
 GLOBAL| All-to-all communication in single precision                          F
 GLOBAL| FFTs using library dependent lengths                                  F
 GLOBAL| Global print level                                               MEDIUM
 GLOBAL| MPI I/O enabled                                                       T
 GLOBAL| Total number of message passing processes                            48
 GLOBAL| Number of threads for this process                                    1
 GLOBAL| This output is from process                                           0
 GLOBAL| CPU model name                          AMD EPYC 7401 24-Core Processor
 GLOBAL| CPUID                                                              1002

 MEMORY| system memory details [Kb]
 MEMORY|                        rank 0           min           max       average
 MEMORY| MemTotal            263969964     263969964     263969964     263969964
 MEMORY| MemFree             258733992     258733992     258733992     258733992
 MEMORY| Buffers                    20            20            20            20
 MEMORY| Cached                1209544       1209544       1209544       1209544
 MEMORY| Slab                   598736        598736        598736        598736
 MEMORY| SReclaimable           239724        239724        239724        239724
 MEMORY| MemLikelyFree       260183280     260183280     260183280     260183280


 *** Fundamental physical constants (SI units) ***

 *** Literature: B. J. Mohr and B. N. Taylor,
 ***             CODATA recommended values of the fundamental physical
 ***             constants: 2006, Web Version 5.1
 ***             http://physics.nist.gov/constants

 Speed of light in vacuum [m/s]                             2.99792458000000E+08
 Magnetic constant or permeability of vacuum [N/A**2]       1.25663706143592E-06
 Electric constant or permittivity of vacuum [F/m]          8.85418781762039E-12
 Planck constant (h) [J*s]                                  6.62606896000000E-34
 Planck constant (h-bar) [J*s]                              1.05457162825177E-34
 Elementary charge [C]                                      1.60217648700000E-19
 Electron mass [kg]                                         9.10938215000000E-31
 Electron g factor [ ]                                     -2.00231930436220E+00
 Proton mass [kg]                                           1.67262163700000E-27
 Fine-structure constant                                    7.29735253760000E-03
 Rydberg constant [1/m]                                     1.09737315685270E+07
 Avogadro constant [1/mol]                                  6.02214179000000E+23
 Boltzmann constant [J/K]                                   1.38065040000000E-23
 Atomic mass unit [kg]                                      1.66053878200000E-27
 Bohr radius [m]                                            5.29177208590000E-11

 *** Conversion factors ***

 [u] -> [a.u.]                                              1.82288848426455E+03
 [Angstrom] -> [Bohr] = [a.u.]                              1.88972613288564E+00
 [a.u.] = [Bohr] -> [Angstrom]                              5.29177208590000E-01
 [a.u.] -> [s]                                              2.41888432650478E-17
 [a.u.] -> [fs]                                             2.41888432650478E-02
 [a.u.] -> [J]                                              4.35974393937059E-18
 [a.u.] -> [N]                                              8.23872205491840E-08
 [a.u.] -> [K]                                              3.15774647902944E+05
 [a.u.] -> [kJ/mol]                                         2.62549961709828E+03
 [a.u.] -> [kcal/mol]                                       6.27509468713739E+02
 [a.u.] -> [Pa]                                             2.94210107994716E+13
 [a.u.] -> [bar]                                            2.94210107994716E+08
 [a.u.] -> [atm]                                            2.90362800883016E+08
 [a.u.] -> [eV]                                             2.72113838565563E+01
 [a.u.] -> [Hz]                                             6.57968392072181E+15
 [a.u.] -> [1/cm] (wave numbers)                            2.19474631370540E+05
 [a.u./Bohr**2] -> [1/cm]                                   5.14048714338585E+03
 
 DBCSR| CPU Multiplication driver                                           XSMM
 DBCSR| Multrec recursion limit                                              512
 DBCSR| Multiplication stack size                                           1000
 DBCSR| Maximum elements for images                                    UNLIMITED
 DBCSR| Multiplicative factor virtual images                                   1
 DBCSR| Use multiplication densification                                       T
 DBCSR| Multiplication size stacks                                             3
 DBCSR| Use memory pool for CPU allocation                                     F
 DBCSR| Number of 3D layers                                               SINGLE
 DBCSR| Use MPI memory allocation                                              F
 DBCSR| Use RMA algorithm                                                      F
 DBCSR| Use Communication thread                                               T
 DBCSR| Communication thread load                                             87
 DBCSR| MPI: My node id                                                        0
 DBCSR| MPI: Number of nodes                                                  48
 DBCSR| OMP: Current number of threads                                         1
 DBCSR| OMP: Max number of threads                                             1
 DBCSR| Split modifier for TAS multiplication algorithm                  1.0E+00

 BASOPT| Total number of calculations     12

 BASOPT| Content of basis combination      1
 BASOPT|     Element:   ZN    Basis set:    TZV2P-MOLOPT-PBE-GTH-Q12
 BASOPT|     Element:   CL    Basis set:    TZV2P-MOLOPT-PBE-GTH-Q7
 BASOPT|     Element:    H    Basis set:    TZV2P-MOLOPT-PBE-GTH-Q1
 BASOPT|     Element:    C    Basis set:    TZV2P-MOLOPT-PBE-GTH-Q4
 BASOPT|     Element:    F    Basis set:    TZV2P-MOLOPT-PBE-GTH-Q7

 BASOPT| Content of basis combination      2
 BASOPT|     Element:   ZN    Basis set:    TZVP-MOLOPT-PBE-GTH-q12
 BASOPT|     Element:   CL    Basis set:    TZVP-MOLOPT-PBE-GTH-q7
 BASOPT|     Element:    H    Basis set:    TZVP-MOLOPT-PBE-GTH-q1
 BASOPT|     Element:    C    Basis set:    TZVP-MOLOPT-PBE-GTH-q4
 BASOPT|     Element:    F    Basis set:    TZVP-MOLOPT-PBE-GTH-q7

 BASOPT| Content of basis combination      3
 BASOPT|     Element:   ZN    Basis set:    DZVP-MOLOPT-PBE-GTH-q12
 BASOPT|     Element:   CL    Basis set:    DZVP-MOLOPT-PBE-GTH-q7
 BASOPT|     Element:    H    Basis set:    DZVP-MOLOPT-PBE-GTH-q1
 BASOPT|     Element:    C    Basis set:    DZVP-MOLOPT-PBE-GTH-q4
 BASOPT|     Element:    F    Basis set:    DZVP-MOLOPT-PBE-GTH-q7

 BASOPT| Information at iteration number:       0
 BASOPT| Training set | Combination | Rho difference | Condition num. | Time
 BASOPT| -----------------------------------------------------------------------
 BASOPT|        1     |       1     | 0.84560916E-03 | 0.46366949E+03 |    0.040
 BASOPT|        1     |       2     | 0.14417015E-02 | 0.35029430E+03 |    0.032
 BASOPT|        1     |       3     | 0.14561967E-01 | 0.15928973E+03 |    0.027
 BASOPT|        2     |       1     | 0.48797547E-03 | 0.15407579E+04 |    0.043
 BASOPT|        2     |       2     | 0.72953097E-03 | 0.97309016E+03 |    0.030
 BASOPT|        2     |       3     | 0.96259070E-02 | 0.26376199E+03 |    0.028
 BASOPT|        3     |       1     | 0.15571425E-03 | 0.22755347E+03 |    0.028
 BASOPT|        3     |       2     | 0.24061168E-03 | 0.21636285E+03 |    0.020
 BASOPT|        3     |       3     | 0.22876560E-01 | 0.10767201E+03 |    0.021
 BASOPT|        4     |       1     | 0.45221387E-03 | 0.12717764E+05 |    0.332
 BASOPT|        4     |       2     | 0.10229292E-02 | 0.19473194E+04 |    0.195
 BASOPT|        4     |       3     | 0.32226199E-02 | 0.72909369E+03 |    0.154
 BASOPT| -----------------------------------------------------------------------
 BASOPT| Total residuum value: -.11851757E+04

 BASOPT| Information at iteration number:     100
 BASOPT| Training set | Combination | Rho difference | Condition num. | Time
 BASOPT| -----------------------------------------------------------------------
 BASOPT|        1     |       1     | 0.84118543E-03 | 0.46345920E+03 |    3.817
 BASOPT|        1     |       2     | 0.14417015E-02 | 0.35029430E+03 |    2.924
 BASOPT|        1     |       3     | 0.14561967E-01 | 0.15928973E+03 |    2.415
 BASOPT|        2     |       1     | 0.48768647E-03 | 0.14538930E+04 |    3.868
 BASOPT|        2     |       2     | 0.72953097E-03 | 0.97309016E+03 |    2.849
 BASOPT|        2     |       3     | 0.96259070E-02 | 0.26376199E+03 |    2.317
 BASOPT|        3     |       1     | 0.15637392E-03 | 0.22387298E+03 |    2.185
 BASOPT|        3     |       2     | 0.24061168E-03 | 0.21636285E+03 |    1.523
 BASOPT|        3     |       3     | 0.22876560E-01 | 0.10767201E+03 |    1.361
 BASOPT|        4     |       1     | 0.45934799E-03 | 0.12914316E+05 |   33.116
 BASOPT|        4     |       2     | 0.10229292E-02 | 0.19473194E+04 |   19.127
 BASOPT|        4     |       3     | 0.32226199E-02 | 0.72909369E+03 |   15.122
 BASOPT| -----------------------------------------------------------------------
 BASOPT| Total residuum value: -.11851756E+04

 BASOPT| Information at iteration number:     200
 BASOPT| Training set | Combination | Rho difference | Condition num. | Time
 BASOPT| -----------------------------------------------------------------------
 BASOPT|        1     |       1     | 0.90743069E-03 | 0.38126512E+03 |    7.592
 BASOPT|        1     |       2     | 0.15076379E-02 | 0.27261908E+03 |    5.811
 BASOPT|        1     |       3     | 0.64647290E-02 | 0.16160674E+03 |    4.799
 BASOPT|        2     |       1     | 0.52784309E-03 | 0.14752934E+04 |    7.686
 BASOPT|        2     |       2     | 0.75780261E-03 | 0.96249070E+03 |    5.647
 BASOPT|        2     |       3     | 0.41496357E-02 | 0.20433236E+03 |    4.601
 BASOPT|        3     |       1     | 0.20363035E-03 | 0.26574262E+03 |    4.356
 BASOPT|        3     |       2     | 0.30893669E-03 | 0.22965263E+03 |    3.017
 BASOPT|        3     |       3     | 0.17270469E-01 | 0.10776731E+03 |    2.702
 BASOPT|        4     |       1     | 0.46686076E-03 | 0.12012695E+05 |   65.878
 BASOPT|        4     |       2     | 0.10441829E-02 | 0.14777696E+04 |   38.070
 BASOPT|        4     |       3     | 0.21160829E-02 | 0.55973970E+03 |   30.075
 BASOPT| -----------------------------------------------------------------------
 BASOPT| Total residuum value: -.11864099E+04

 BASOPT| Information at iteration number:     300
 BASOPT| Training set | Combination | Rho difference | Condition num. | Time
 BASOPT| -----------------------------------------------------------------------
 BASOPT|        1     |       1     | 0.93014296E-03 | 0.38525494E+03 |   11.364
 BASOPT|        1     |       2     | 0.15068020E-02 | 0.26662390E+03 |    8.697
 BASOPT|        1     |       3     | 0.40783967E-02 | 0.12375671E+03 |    7.179
 BASOPT|        2     |       1     | 0.55887383E-03 | 0.14948909E+04 |   11.503
 BASOPT|        2     |       2     | 0.78169996E-03 | 0.97853285E+03 |    8.450
 BASOPT|        2     |       3     | 0.24220402E-02 | 0.15238147E+03 |    6.881
 BASOPT|        3     |       1     | 0.25331444E-03 | 0.28266894E+03 |    6.524
 BASOPT|        3     |       2     | 0.35693825E-03 | 0.23289459E+03 |    4.505
 BASOPT|        3     |       3     | 0.86945185E-02 | 0.84408341E+02 |    4.040
 BASOPT|        4     |       1     | 0.46410918E-03 | 0.11107809E+05 |   98.625
 BASOPT|        4     |       2     | 0.10451532E-02 | 0.13332612E+04 |   56.979
 BASOPT|        4     |       3     | 0.18542350E-02 | 0.40640513E+03 |   45.017
 BASOPT| -----------------------------------------------------------------------
 BASOPT| Total residuum value: -.11867283E+04

 BASOPT| Information at iteration number:     400
 BASOPT| Training set | Combination | Rho difference | Condition num. | Time
 BASOPT| -----------------------------------------------------------------------
 BASOPT|        1     |       1     | 0.86898298E-03 | 0.43911201E+03 |   15.170
 BASOPT|        1     |       2     | 0.14539790E-02 | 0.29799056E+03 |   11.585
 BASOPT|        1     |       3     | 0.29211989E-02 | 0.89198573E+02 |    9.559
 BASOPT|        2     |       1     | 0.49258748E-03 | 0.15862456E+04 |   15.322
 BASOPT|        2     |       2     | 0.70430498E-03 | 0.10496272E+04 |   11.244
 BASOPT|        2     |       3     | 0.18514188E-02 | 0.16455502E+03 |    9.162
 BASOPT|        3     |       1     | 0.23723222E-03 | 0.28254689E+03 |    8.660
 BASOPT|        3     |       2     | 0.34775413E-03 | 0.21773407E+03 |    5.993
 BASOPT|        3     |       3     | 0.34470577E-02 | 0.64019550E+02 |    5.376
 BASOPT|        4     |       1     | 0.48231477E-03 | 0.10290335E+05 |  131.371
 BASOPT|        4     |       2     | 0.10649340E-02 | 0.14042178E+04 |   75.885
 BASOPT|        4     |       3     | 0.18909572E-02 | 0.35729837E+03 |   59.955
 BASOPT| -----------------------------------------------------------------------
 BASOPT| Total residuum value: -.11869046E+04

 BASOPT| Information at iteration number:     500
 BASOPT| Training set | Combination | Rho difference | Condition num. | Time
 BASOPT| -----------------------------------------------------------------------
 BASOPT|        1     |       1     | 0.87718017E-03 | 0.45833232E+03 |   18.998
 BASOPT|        1     |       2     | 0.14621453E-02 | 0.31511754E+03 |   14.473
 BASOPT|        1     |       3     | 0.28058792E-02 | 0.89652569E+02 |   11.940
 BASOPT|        2     |       1     | 0.50196959E-03 | 0.14392078E+04 |   19.141
 BASOPT|        2     |       2     | 0.71520808E-03 | 0.10067561E+04 |   14.046
 BASOPT|        2     |       3     | 0.18551687E-02 | 0.16807123E+03 |   11.447
 BASOPT|        3     |       1     | 0.21500009E-03 | 0.27390040E+03 |   10.791
 BASOPT|        3     |       2     | 0.32200133E-03 | 0.21393496E+03 |    7.484
 BASOPT|        3     |       3     | 0.25863384E-02 | 0.62751354E+02 |    6.714
 BASOPT|        4     |       1     | 0.46343462E-03 | 0.10804014E+05 |  164.121
 BASOPT|        4     |       2     | 0.10309197E-02 | 0.14984491E+04 |   94.812
 BASOPT|        4     |       3     | 0.18758795E-02 | 0.34856645E+03 |   74.890
 BASOPT| -----------------------------------------------------------------------
 BASOPT| Total residuum value: -.11869485E+04

 BASOPT| Information at iteration number:     600
 BASOPT| Training set | Combination | Rho difference | Condition num. | Time
 BASOPT| -----------------------------------------------------------------------
 BASOPT|        1     |       1     | 0.88146213E-03 | 0.47582483E+03 |   22.795
 BASOPT|        1     |       2     | 0.14667213E-02 | 0.32935229E+03 |   17.359
 BASOPT|        1     |       3     | 0.27355627E-02 | 0.88213315E+02 |   14.320
 BASOPT|        2     |       1     | 0.50704305E-03 | 0.13310262E+04 |   22.960
 BASOPT|        2     |       2     | 0.71963645E-03 | 0.95909781E+03 |   16.850
 BASOPT|        2     |       3     | 0.19262583E-02 | 0.17353429E+03 |   13.730
 BASOPT|        3     |       1     | 0.20932649E-03 | 0.27777626E+03 |   12.921
 BASOPT|        3     |       2     | 0.31730171E-03 | 0.21263541E+03 |    8.972
 BASOPT|        3     |       3     | 0.17015915E-02 | 0.61562389E+02 |    8.052
 BASOPT|        4     |       1     | 0.46756344E-03 | 0.10870753E+05 |  196.877
 BASOPT|        4     |       2     | 0.10314041E-02 | 0.15331009E+04 |  113.759
 BASOPT|        4     |       3     | 0.19374091E-02 | 0.34640862E+03 |   89.828
 BASOPT| -----------------------------------------------------------------------
 BASOPT| Total residuum value: -.11869687E+04

 BASOPT| Information at iteration number:     700
 BASOPT| Training set | Combination | Rho difference | Condition num. | Time
 BASOPT| -----------------------------------------------------------------------
 BASOPT|        1     |       1     | 0.86275022E-03 | 0.47306583E+03 |   26.603
 BASOPT|        1     |       2     | 0.14539839E-02 | 0.33456487E+03 |   20.243
 BASOPT|        1     |       3     | 0.27554738E-02 | 0.84968057E+02 |   16.701
 BASOPT|        2     |       1     | 0.48452640E-03 | 0.11837923E+04 |   26.779
 BASOPT|        2     |       2     | 0.69300815E-03 | 0.88845939E+03 |   19.656
 BASOPT|        2     |       3     | 0.20227632E-02 | 0.17525046E+03 |   16.012
 BASOPT|        3     |       1     | 0.20185334E-03 | 0.26954458E+03 |   15.057
 BASOPT|        3     |       2     | 0.31295589E-03 | 0.21175095E+03 |   10.462
 BASOPT|        3     |       3     | 0.11353084E-02 | 0.60026457E+02 |    9.390
 BASOPT|        4     |       1     | 0.47361823E-03 | 0.11104777E+05 |  229.624
 BASOPT|        4     |       2     | 0.10277344E-02 | 0.15503204E+04 |  132.662
 BASOPT|        4     |       3     | 0.20183231E-02 | 0.34766718E+03 |  104.771
 BASOPT| -----------------------------------------------------------------------
 BASOPT| Total residuum value: -.11869708E+04

 BASOPT| Information at iteration number:     800
 BASOPT| Training set | Combination | Rho difference | Condition num. | Time
 BASOPT| -----------------------------------------------------------------------
 BASOPT|        1     |       1     | 0.86984660E-03 | 0.47087885E+03 |   30.403
 BASOPT|        1     |       2     | 0.14624504E-02 | 0.33536673E+03 |   23.129
 BASOPT|        1     |       3     | 0.27687820E-02 | 0.83430059E+02 |   19.081
 BASOPT|        2     |       1     | 0.49415819E-03 | 0.11672417E+04 |   30.596
 BASOPT|        2     |       2     | 0.70716375E-03 | 0.86759146E+03 |   22.467
 BASOPT|        2     |       3     | 0.20498272E-02 | 0.17420459E+03 |   18.296
 BASOPT|        3     |       1     | 0.19279215E-03 | 0.26420454E+03 |   17.198
 BASOPT|        3     |       2     | 0.30164489E-03 | 0.21100990E+03 |   11.950
 BASOPT|        3     |       3     | 0.10373549E-02 | 0.58729668E+02 |   10.725
 BASOPT|        4     |       1     | 0.47108323E-03 | 0.11413840E+05 |  262.365
 BASOPT|        4     |       2     | 0.10303156E-02 | 0.15897739E+04 |  151.564
 BASOPT|        4     |       3     | 0.20274541E-02 | 0.34674804E+03 |  119.706
 BASOPT| -----------------------------------------------------------------------
 BASOPT| Total residuum value: -.11869826E+04

 BASOPT| Information at iteration number:     900
 BASOPT| Training set | Combination | Rho difference | Condition num. | Time
 BASOPT| -----------------------------------------------------------------------
 BASOPT|        1     |       1     | 0.86846213E-03 | 0.43962714E+03 |   34.210
 BASOPT|        1     |       2     | 0.14635124E-02 | 0.31803525E+03 |   26.014
 BASOPT|        1     |       3     | 0.27926438E-02 | 0.81817244E+02 |   21.462
 BASOPT|        2     |       1     | 0.48800359E-03 | 0.10039793E+04 |   34.415
 BASOPT|        2     |       2     | 0.69925838E-03 | 0.75726833E+03 |   25.275
 BASOPT|        2     |       3     | 0.20797115E-02 | 0.17356957E+03 |   20.578
 BASOPT|        3     |       1     | 0.19238072E-03 | 0.25248788E+03 |   19.328
 BASOPT|        3     |       2     | 0.30456191E-03 | 0.21053035E+03 |   13.436
 BASOPT|        3     |       3     | 0.97070399E-03 | 0.57939527E+02 |   12.062
 BASOPT|        4     |       1     | 0.47384609E-03 | 0.11387090E+05 |  295.121
 BASOPT|        4     |       2     | 0.10339142E-02 | 0.14897499E+04 |  170.471
 BASOPT|        4     |       3     | 0.20475720E-02 | 0.34717023E+03 |  134.650
 BASOPT| -----------------------------------------------------------------------
 BASOPT| Total residuum value: -.11869904E+04

 BASOPT| Information at iteration number:    1000
 BASOPT| Training set | Combination | Rho difference | Condition num. | Time
 BASOPT| -----------------------------------------------------------------------
 BASOPT|        1     |       1     | 0.87795174E-03 | 0.38936467E+03 |   38.041
 BASOPT|        1     |       2     | 0.14776344E-02 | 0.28263667E+03 |   28.901
 BASOPT|        1     |       3     | 0.27863471E-02 | 0.78687934E+02 |   23.842
 BASOPT|        2     |       1     | 0.49790765E-03 | 0.83716886E+03 |   38.233
 BASOPT|        2     |       2     | 0.71284972E-03 | 0.63328875E+03 |   28.075
 BASOPT|        2     |       3     | 0.20541045E-02 | 0.17182747E+03 |   22.862
 BASOPT|        3     |       1     | 0.18774612E-03 | 0.23808812E+03 |   21.458
 BASOPT|        3     |       2     | 0.29667062E-03 | 0.20965395E+03 |   14.922
 BASOPT|        3     |       3     | 0.10641175E-02 | 0.57800789E+02 |   13.399
 BASOPT|        4     |       1     | 0.47433287E-03 | 0.11202773E+05 |  327.875
 BASOPT|        4     |       2     | 0.10400694E-02 | 0.13197996E+04 |  189.385
 BASOPT|        4     |       3     | 0.20259354E-02 | 0.34205269E+03 |  149.587
 BASOPT| -----------------------------------------------------------------------
 BASOPT| Total residuum value: -.11869979E+04

 BASOPT| Information at iteration number:    1100
 BASOPT| Training set | Combination | Rho difference | Condition num. | Time
 BASOPT| -----------------------------------------------------------------------
 BASOPT|        1     |       1     | 0.87585049E-03 | 0.35537755E+03 |   41.842
 BASOPT|        1     |       2     | 0.14764963E-02 | 0.25680006E+03 |   31.787
 BASOPT|        1     |       3     | 0.27766571E-02 | 0.77458402E+02 |   26.222
 BASOPT|        2     |       1     | 0.49660514E-03 | 0.74449952E+03 |   42.051
 BASOPT|        2     |       2     | 0.71217750E-03 | 0.55698675E+03 |   30.884
 BASOPT|        2     |       3     | 0.20126471E-02 | 0.17282133E+03 |   25.145
 BASOPT|        3     |       1     | 0.18705034E-03 | 0.23054389E+03 |   23.587
 BASOPT|        3     |       2     | 0.29344423E-03 | 0.20945017E+03 |   16.407
 BASOPT|        3     |       3     | 0.11833077E-02 | 0.58391357E+02 |   14.736
 BASOPT|        4     |       1     | 0.48245938E-03 | 0.11104269E+05 |  360.629
 BASOPT|        4     |       2     | 0.10507265E-02 | 0.13464644E+04 |  208.295
 BASOPT|        4     |       3     | 0.19858546E-02 | 0.34245299E+03 |  164.523
 BASOPT| -----------------------------------------------------------------------
 BASOPT| Total residuum value: -.11870025E+04

 BASOPT| Information at iteration number:    1200
 BASOPT| Training set | Combination | Rho difference | Condition num. | Time
 BASOPT| -----------------------------------------------------------------------
 BASOPT|        1     |       1     | 0.87425335E-03 | 0.33551120E+03 |   45.669
 BASOPT|        1     |       2     | 0.14707045E-02 | 0.23825337E+03 |   34.674
 BASOPT|        1     |       3     | 0.27732197E-02 | 0.77875532E+02 |   28.603
 BASOPT|        2     |       1     | 0.49578015E-03 | 0.69308588E+03 |   45.870
 BASOPT|        2     |       2     | 0.71284412E-03 | 0.51034224E+03 |   33.681
 BASOPT|        2     |       3     | 0.20127030E-02 | 0.17573033E+03 |   27.430
 BASOPT|        3     |       1     | 0.18604014E-03 | 0.22620979E+03 |   25.717
 BASOPT|        3     |       2     | 0.28719800E-03 | 0.21028791E+03 |   17.895
 BASOPT|        3     |       3     | 0.12276053E-02 | 0.59092954E+02 |   16.074
 BASOPT|        4     |       1     | 0.48411313E-03 | 0.11119811E+05 |  393.382
 BASOPT|        4     |       2     | 0.10453690E-02 | 0.13393517E+04 |  227.213
 BASOPT|        4     |       3     | 0.19817438E-02 | 0.34060979E+03 |  179.459
 BASOPT| -----------------------------------------------------------------------
 BASOPT| Total residuum value: -.11870106E+04

 BASOPT| Information at iteration number:    1300
 BASOPT| Training set | Combination | Rho difference | Condition num. | Time
 BASOPT| -----------------------------------------------------------------------
 BASOPT|        1     |       1     | 0.87830556E-03 | 0.32336022E+03 |   49.471
 BASOPT|        1     |       2     | 0.14765457E-02 | 0.22666858E+03 |   37.559
 BASOPT|        1     |       3     | 0.27820899E-02 | 0.76208641E+02 |   30.984
 BASOPT|        2     |       1     | 0.50047952E-03 | 0.66097193E+03 |   49.689
 BASOPT|        2     |       2     | 0.72197303E-03 | 0.48046094E+03 |   36.474
 BASOPT|        2     |       3     | 0.19983497E-02 | 0.17623740E+03 |   29.712
 BASOPT|        3     |       1     | 0.18840124E-03 | 0.22401725E+03 |   27.857
 BASOPT|        3     |       2     | 0.28059147E-03 | 0.21060299E+03 |   19.381
 BASOPT|        3     |       3     | 0.13180732E-02 | 0.59387709E+02 |   17.412
 BASOPT|        4     |       1     | 0.48419707E-03 | 0.11224373E+05 |  426.136
 BASOPT|        4     |       2     | 0.10426350E-02 | 0.13369554E+04 |  246.115
 BASOPT|        4     |       3     | 0.19533115E-02 | 0.33209584E+03 |  194.400
 BASOPT| -----------------------------------------------------------------------
 BASOPT| Total residuum value: -.11870155E+04

 BASOPT| Information at iteration number:    1400
 BASOPT| Training set | Combination | Rho difference | Condition num. | Time
 BASOPT| -----------------------------------------------------------------------
 BASOPT|        1     |       1     | 0.88461876E-03 | 0.31231436E+03 |   53.276
 BASOPT|        1     |       2     | 0.14752485E-02 | 0.21691393E+03 |   40.446
 BASOPT|        1     |       3     | 0.27829402E-02 | 0.74770658E+02 |   33.364
 BASOPT|        2     |       1     | 0.50975714E-03 | 0.62195429E+03 |   53.507
 BASOPT|        2     |       2     | 0.73026538E-03 | 0.45103147E+03 |   39.283
 BASOPT|        2     |       3     | 0.19905855E-02 | 0.17518314E+03 |   31.995
 BASOPT|        3     |       1     | 0.19341851E-03 | 0.22217266E+03 |   29.997
 BASOPT|        3     |       2     | 0.28001912E-03 | 0.21096509E+03 |   20.868
 BASOPT|        3     |       3     | 0.13981498E-02 | 0.59403054E+02 |   18.749
 BASOPT|        4     |       1     | 0.48625280E-03 | 0.11275970E+05 |  458.902
 BASOPT|        4     |       2     | 0.10413549E-02 | 0.13311282E+04 |  265.015
 BASOPT|        4     |       3     | 0.19543334E-02 | 0.32203953E+03 |  209.336
 BASOPT| -----------------------------------------------------------------------
 BASOPT| Total residuum value: -.11870095E+04

 BASOPT| Information at iteration number:    1500
 BASOPT| Training set | Combination | Rho difference | Condition num. | Time
 BASOPT| -----------------------------------------------------------------------
 BASOPT|        1     |       1     | 0.86653866E-03 | 0.29899375E+03 |   57.077
 BASOPT|        1     |       2     | 0.14578758E-02 | 0.20585725E+03 |   43.333
 BASOPT|        1     |       3     | 0.27860893E-02 | 0.73775408E+02 |   35.744
 BASOPT|        2     |       1     | 0.49345535E-03 | 0.57438724E+03 |   57.327
 BASOPT|        2     |       2     | 0.71033863E-03 | 0.41468790E+03 |   42.094
 BASOPT|        2     |       3     | 0.19732252E-02 | 0.17132269E+03 |   34.277
 BASOPT|        3     |       1     | 0.18698910E-03 | 0.22256244E+03 |   32.135
 BASOPT|        3     |       2     | 0.27749763E-03 | 0.21179351E+03 |   22.356
 BASOPT|        3     |       3     | 0.14750631E-02 | 0.58674243E+02 |   20.087
 BASOPT|        4     |       1     | 0.49037663E-03 | 0.11342904E+05 |  491.669
 BASOPT|        4     |       2     | 0.10396594E-02 | 0.13625400E+04 |  283.916
 BASOPT|        4     |       3     | 0.19452505E-02 | 0.32172252E+03 |  224.269
 BASOPT| -----------------------------------------------------------------------
 BASOPT| Total residuum value: -.11870219E+04

 BASOPT| Information at iteration number:    1600
 BASOPT| Training set | Combination | Rho difference | Condition num. | Time
 BASOPT| -----------------------------------------------------------------------
 BASOPT|        1     |       1     | 0.86729030E-03 | 0.30341406E+03 |   60.877
 BASOPT|        1     |       2     | 0.14591207E-02 | 0.20797492E+03 |   46.219
 BASOPT|        1     |       3     | 0.27823563E-02 | 0.73174984E+02 |   38.124
 BASOPT|        2     |       1     | 0.49364626E-03 | 0.58208377E+03 |   61.147
 BASOPT|        2     |       2     | 0.71251617E-03 | 0.41889898E+03 |   44.887
 BASOPT|        2     |       3     | 0.19787228E-02 | 0.17254223E+03 |   36.558
 BASOPT|        3     |       1     | 0.18819754E-03 | 0.22269242E+03 |   34.280
 BASOPT|        3     |       2     | 0.27360560E-03 | 0.21196884E+03 |   23.843
 BASOPT|        3     |       3     | 0.14189175E-02 | 0.58648416E+02 |   21.426
 BASOPT|        4     |       1     | 0.49407139E-03 | 0.11306000E+05 |  524.445
 BASOPT|        4     |       2     | 0.10405071E-02 | 0.13708352E+04 |  302.820
 BASOPT|        4     |       3     | 0.19508799E-02 | 0.31620166E+03 |  239.204
 BASOPT| -----------------------------------------------------------------------
 BASOPT| Total residuum value: -.11870249E+04

 BASOPT| Information at iteration number:    1700
 BASOPT| Training set | Combination | Rho difference | Condition num. | Time
 BASOPT| -----------------------------------------------------------------------
 BASOPT|        1     |       1     | 0.86746848E-03 | 0.29002263E+03 |   64.695
 BASOPT|        1     |       2     | 0.14584705E-02 | 0.19732355E+03 |   49.104
 BASOPT|        1     |       3     | 0.27839110E-02 | 0.71803805E+02 |   40.504
 BASOPT|        2     |       1     | 0.49277985E-03 | 0.57025651E+03 |   64.965
 BASOPT|        2     |       2     | 0.71216548E-03 | 0.40118869E+03 |   47.691
 BASOPT|        2     |       3     | 0.19979643E-02 | 0.17068753E+03 |   38.841
 BASOPT|        3     |       1     | 0.19470184E-03 | 0.22335381E+03 |   36.412
 BASOPT|        3     |       2     | 0.28291497E-03 | 0.21257285E+03 |   25.330
 BASOPT|        3     |       3     | 0.13655086E-02 | 0.57710415E+02 |   22.766
 BASOPT|        4     |       1     | 0.49518659E-03 | 0.11000218E+05 |  557.213
 BASOPT|        4     |       2     | 0.10537073E-02 | 0.13627373E+04 |  321.722
 BASOPT|        4     |       3     | 0.19926745E-02 | 0.31112614E+03 |  254.141
 BASOPT| -----------------------------------------------------------------------
 BASOPT| Total residuum value: -.11870265E+04

 BASOPT| Information at iteration number:    1800
 BASOPT| Training set | Combination | Rho difference | Condition num. | Time
 BASOPT| -----------------------------------------------------------------------
 BASOPT|        1     |       1     | 0.86817368E-03 | 0.28811457E+03 |   68.494
 BASOPT|        1     |       2     | 0.14679841E-02 | 0.19643326E+03 |   51.989
 BASOPT|        1     |       3     | 0.27937532E-02 | 0.71878652E+02 |   42.886
 BASOPT|        2     |       1     | 0.48815674E-03 | 0.57734372E+03 |   68.785
 BASOPT|        2     |       2     | 0.71563893E-03 | 0.40313527E+03 |   50.503
 BASOPT|        2     |       3     | 0.20122417E-02 | 0.17189359E+03 |   41.125
 BASOPT|        3     |       1     | 0.19310963E-03 | 0.22392162E+03 |   38.541
 BASOPT|        3     |       2     | 0.28126119E-03 | 0.21291255E+03 |   26.818
 BASOPT|        3     |       3     | 0.13140517E-02 | 0.57744765E+02 |   24.107
 BASOPT|        4     |       1     | 0.48044154E-03 | 0.10724961E+05 |  589.976
 BASOPT|        4     |       2     | 0.10312905E-02 | 0.13928574E+04 |  340.637
 BASOPT|        4     |       3     | 0.19731454E-02 | 0.31258226E+03 |  269.082
 BASOPT| -----------------------------------------------------------------------
 BASOPT| Total residuum value: -.11870286E+04

 BASOPT| Information at iteration number:    1900
 BASOPT| Training set | Combination | Rho difference | Condition num. | Time
 BASOPT| -----------------------------------------------------------------------
 BASOPT|        1     |       1     | 0.86809126E-03 | 0.28308482E+03 |   72.308
 BASOPT|        1     |       2     | 0.14665173E-02 | 0.19327624E+03 |   54.876
 BASOPT|        1     |       3     | 0.27818011E-02 | 0.71765236E+02 |   45.269
 BASOPT|        2     |       1     | 0.49100329E-03 | 0.59258055E+03 |   72.602
 BASOPT|        2     |       2     | 0.72295164E-03 | 0.40568581E+03 |   53.296
 BASOPT|        2     |       3     | 0.19913089E-02 | 0.17115575E+03 |   43.407
 BASOPT|        3     |       1     | 0.19140677E-03 | 0.22503164E+03 |   40.670
 BASOPT|        3     |       2     | 0.27648517E-03 | 0.21263911E+03 |   28.305
 BASOPT|        3     |       3     | 0.14227231E-02 | 0.57534813E+02 |   25.449
 BASOPT|        4     |       1     | 0.47971513E-03 | 0.10394178E+05 |  622.739
 BASOPT|        4     |       2     | 0.10425814E-02 | 0.13989609E+04 |  359.626
 BASOPT|        4     |       3     | 0.19757314E-02 | 0.31251856E+03 |  284.021
 BASOPT| -----------------------------------------------------------------------
 BASOPT| Total residuum value: -.11870317E+04

 BASOPT| Information at iteration number:    2000
 BASOPT| Training set | Combination | Rho difference | Condition num. | Time
 BASOPT| -----------------------------------------------------------------------
 BASOPT|        1     |       1     | 0.86016228E-03 | 0.27576542E+03 |   76.111
 BASOPT|        1     |       2     | 0.14607569E-02 | 0.18732757E+03 |   57.761
 BASOPT|        1     |       3     | 0.27700575E-02 | 0.70921532E+02 |   47.650
 BASOPT|        2     |       1     | 0.48182429E-03 | 0.58605397E+03 |   76.419
 BASOPT|        2     |       2     | 0.71678621E-03 | 0.39557617E+03 |   56.089
 BASOPT|        2     |       3     | 0.19759915E-02 | 0.17125783E+03 |   45.689
 BASOPT|        3     |       1     | 0.19216708E-03 | 0.22634623E+03 |   42.799
 BASOPT|        3     |       2     | 0.27664680E-03 | 0.21274570E+03 |   29.793
 BASOPT|        3     |       3     | 0.13730219E-02 | 0.57489878E+02 |   26.791
 BASOPT|        4     |       1     | 0.47435728E-03 | 0.10171308E+05 |  655.507
 BASOPT|        4     |       2     | 0.10480741E-02 | 0.14068615E+04 |  378.632
 BASOPT|        4     |       3     | 0.19665189E-02 | 0.31053550E+03 |  298.965
 BASOPT| -----------------------------------------------------------------------
 BASOPT| Total residuum value: -.11870331E+04

 BASOPT| Information at iteration number:    2100
 BASOPT| Training set | Combination | Rho difference | Condition num. | Time
 BASOPT| -----------------------------------------------------------------------
 BASOPT|        1     |       1     | 0.86493019E-03 | 0.27081299E+03 |   79.927
 BASOPT|        1     |       2     | 0.14658437E-02 | 0.18401025E+03 |   60.647
 BASOPT|        1     |       3     | 0.27813305E-02 | 0.71979783E+02 |   50.030
 BASOPT|        2     |       1     | 0.48332453E-03 | 0.58565453E+03 |   80.235
 BASOPT|        2     |       2     | 0.72184071E-03 | 0.39330411E+03 |   58.886
 BASOPT|        2     |       3     | 0.19942623E-02 | 0.17171810E+03 |   47.970
 BASOPT|        3     |       1     | 0.20033978E-03 | 0.22715171E+03 |   44.940
 BASOPT|        3     |       2     | 0.28751963E-03 | 0.21261561E+03 |   31.282
 BASOPT|        3     |       3     | 0.13375424E-02 | 0.57522109E+02 |   28.133
 BASOPT|        4     |       1     | 0.46815768E-03 | 0.98151753E+04 |  688.270
 BASOPT|        4     |       2     | 0.10362861E-02 | 0.14245622E+04 |  397.534
 BASOPT|        4     |       3     | 0.19553550E-02 | 0.31522502E+03 |  313.901
 BASOPT| -----------------------------------------------------------------------
 BASOPT| Total residuum value: -.11870330E+04

 BASOPT| Information at iteration number:    2200
 BASOPT| Training set | Combination | Rho difference | Condition num. | Time
 BASOPT| -----------------------------------------------------------------------
 BASOPT|        1     |       1     | 0.86067581E-03 | 0.27807078E+03 |   83.725
 BASOPT|        1     |       2     | 0.14602137E-02 | 0.18872756E+03 |   63.533
 BASOPT|        1     |       3     | 0.27702574E-02 | 0.71987844E+02 |   52.411
 BASOPT|        2     |       1     | 0.48304895E-03 | 0.60287941E+03 |   84.052
 BASOPT|        2     |       2     | 0.72307416E-03 | 0.40400211E+03 |   61.678
 BASOPT|        2     |       3     | 0.19935256E-02 | 0.17332099E+03 |   50.251
 BASOPT|        3     |       1     | 0.19182723E-03 | 0.22766151E+03 |   47.081
 BASOPT|        3     |       2     | 0.27403615E-03 | 0.21300033E+03 |   32.770
 BASOPT|        3     |       3     | 0.13256561E-02 | 0.57744573E+02 |   29.474
 BASOPT|        4     |       1     | 0.46696547E-03 | 0.10046076E+05 |  721.034
 BASOPT|        4     |       2     | 0.10395228E-02 | 0.14262485E+04 |  416.439
 BASOPT|        4     |       3     | 0.19676327E-02 | 0.31387588E+03 |  328.839
 BASOPT| -----------------------------------------------------------------------
 BASOPT| Total residuum value: -.11870369E+04

 BASOPT| Information at iteration number:    2300
 BASOPT| Training set | Combination | Rho difference | Condition num. | Time
 BASOPT| -----------------------------------------------------------------------
 BASOPT|        1     |       1     | 0.85684183E-03 | 0.27685755E+03 |   87.519
 BASOPT|        1     |       2     | 0.14590745E-02 | 0.18784494E+03 |   66.419
 BASOPT|        1     |       3     | 0.27584029E-02 | 0.72336501E+02 |   54.792
 BASOPT|        2     |       1     | 0.47949526E-03 | 0.60631464E+03 |   87.869
 BASOPT|        2     |       2     | 0.72465580E-03 | 0.40156236E+03 |   64.482
 BASOPT|        2     |       3     | 0.19844345E-02 | 0.17609653E+03 |   52.532
 BASOPT|        3     |       1     | 0.18724684E-03 | 0.22898314E+03 |   49.211
 BASOPT|        3     |       2     | 0.26725393E-03 | 0.21302509E+03 |   34.257
 BASOPT|        3     |       3     | 0.13160466E-02 | 0.58166510E+02 |   30.815
 BASOPT|        4     |       1     | 0.46252463E-03 | 0.10004829E+05 |  753.797
 BASOPT|        4     |       2     | 0.10416228E-02 | 0.14305397E+04 |  435.339
 BASOPT|        4     |       3     | 0.19624684E-02 | 0.31655438E+03 |  343.783
 BASOPT| -----------------------------------------------------------------------
 BASOPT| Total residuum value: -.11870398E+04

 BASOPT| Information at iteration number:    2400
 BASOPT| Training set | Combination | Rho difference | Condition num. | Time
 BASOPT| -----------------------------------------------------------------------
 BASOPT|        1     |       1     | 0.85957024E-03 | 0.27759909E+03 |   91.287
 BASOPT|        1     |       2     | 0.14637653E-02 | 0.18820002E+03 |   69.306
 BASOPT|        1     |       3     | 0.27542053E-02 | 0.71204187E+02 |   57.172
 BASOPT|        2     |       1     | 0.48578552E-03 | 0.59745740E+03 |   91.685
 BASOPT|        2     |       2     | 0.73668846E-03 | 0.39171165E+03 |   67.303
 BASOPT|        2     |       3     | 0.19939396E-02 | 0.17911539E+03 |   54.813
 BASOPT|        3     |       1     | 0.18219409E-03 | 0.23008323E+03 |   51.341
 BASOPT|        3     |       2     | 0.25756358E-03 | 0.21381405E+03 |   35.744
 BASOPT|        3     |       3     | 0.12593716E-02 | 0.58237938E+02 |   32.158
 BASOPT|        4     |       1     | 0.46149748E-03 | 0.10291194E+05 |  786.558
 BASOPT|        4     |       2     | 0.10411177E-02 | 0.14186865E+04 |  454.248
 BASOPT|        4     |       3     | 0.19589073E-02 | 0.31457211E+03 |  358.730
 BASOPT| -----------------------------------------------------------------------
 BASOPT| Total residuum value: -.11870449E+04

 BASOPT| Information at iteration number:    2500
 BASOPT| Training set | Combination | Rho difference | Condition num. | Time
 BASOPT| -----------------------------------------------------------------------
 BASOPT|        1     |       1     | 0.85791147E-03 | 0.27755904E+03 |   95.050
 BASOPT|        1     |       2     | 0.14638361E-02 | 0.18773227E+03 |   72.192
 BASOPT|        1     |       3     | 0.27490680E-02 | 0.71576006E+02 |   59.554
 BASOPT|        2     |       1     | 0.48466049E-03 | 0.59886232E+03 |   95.503
 BASOPT|        2     |       2     | 0.73998812E-03 | 0.38899434E+03 |   70.123
 BASOPT|        2     |       3     | 0.19978730E-02 | 0.18092105E+03 |   57.096
 BASOPT|        3     |       1     | 0.18063498E-03 | 0.23117929E+03 |   53.471
 BASOPT|        3     |       2     | 0.25429356E-03 | 0.21418509E+03 |   37.231
 BASOPT|        3     |       3     | 0.12178205E-02 | 0.58341490E+02 |   33.498
 BASOPT|        4     |       1     | 0.46038557E-03 | 0.10327668E+05 |  819.320
 BASOPT|        4     |       2     | 0.10403000E-02 | 0.14243303E+04 |  473.164
 BASOPT|        4     |       3     | 0.19580558E-02 | 0.31705187E+03 |  373.677
 BASOPT| -----------------------------------------------------------------------
 BASOPT| Total residuum value: -.11870472E+04

 BASOPT| Information at iteration number:    2600
 BASOPT| Training set | Combination | Rho difference | Condition num. | Time
 BASOPT| -----------------------------------------------------------------------
 BASOPT|        1     |       1     | 0.85370401E-03 | 0.27386135E+03 |   98.812
 BASOPT|        1     |       2     | 0.14611070E-02 | 0.18404986E+03 |   75.075
 BASOPT|        1     |       3     | 0.27428522E-02 | 0.70845811E+02 |   61.936
 BASOPT|        2     |       1     | 0.48081827E-03 | 0.59753602E+03 |   99.319
 BASOPT|        2     |       2     | 0.74093669E-03 | 0.38154530E+03 |   72.946
 BASOPT|        2     |       3     | 0.19932112E-02 | 0.18225192E+03 |   59.379
 BASOPT|        3     |       1     | 0.17738874E-03 | 0.23263213E+03 |   55.601
 BASOPT|        3     |       2     | 0.24908224E-03 | 0.21477391E+03 |   38.719
 BASOPT|        3     |       3     | 0.12155962E-02 | 0.58442443E+02 |   34.834
 BASOPT|        4     |       1     | 0.46014671E-03 | 0.10224546E+05 |  852.073
 BASOPT|        4     |       2     | 0.10419515E-02 | 0.14502854E+04 |  492.077
 BASOPT|        4     |       3     | 0.19556987E-02 | 0.31693566E+03 |  388.616
 BASOPT| -----------------------------------------------------------------------
 BASOPT| Total residuum value: -.11870504E+04

 BASOPT| Information at iteration number:    2700
 BASOPT| Training set | Combination | Rho difference | Condition num. | Time
 BASOPT| -----------------------------------------------------------------------
 BASOPT|        1     |       1     | 0.85003083E-03 | 0.27046249E+03 |  102.574
 BASOPT|        1     |       2     | 0.14581547E-02 | 0.17990162E+03 |   77.961
 BASOPT|        1     |       3     | 0.27368228E-02 | 0.70516994E+02 |   64.316
 BASOPT|        2     |       1     | 0.47937705E-03 | 0.58276895E+03 |  103.135
 BASOPT|        2     |       2     | 0.74351289E-03 | 0.36678861E+03 |   75.770
 BASOPT|        2     |       3     | 0.19888323E-02 | 0.18281786E+03 |   61.663
 BASOPT|        3     |       1     | 0.17455254E-03 | 0.23292628E+03 |   57.732
 BASOPT|        3     |       2     | 0.24361505E-03 | 0.21504096E+03 |   40.209
 BASOPT|        3     |       3     | 0.12108757E-02 | 0.58296053E+02 |   36.175
 BASOPT|        4     |       1     | 0.46197929E-03 | 0.10292524E+05 |  884.833
 BASOPT|        4     |       2     | 0.10396518E-02 | 0.14692264E+04 |  510.987
 BASOPT|        4     |       3     | 0.19492285E-02 | 0.31849662E+03 |  403.574
 BASOPT| -----------------------------------------------------------------------
 BASOPT| Total residuum value: -.11870547E+04

 BASOPT| Information at iteration number:    2800
 BASOPT| Training set | Combination | Rho difference | Condition num. | Time
 BASOPT| -----------------------------------------------------------------------
 BASOPT|        1     |       1     | 0.84878823E-03 | 0.26834510E+03 |  106.336
 BASOPT|        1     |       2     | 0.14572995E-02 | 0.17802004E+03 |   80.847
 BASOPT|        1     |       3     | 0.27328278E-02 | 0.70602794E+02 |   66.699
 BASOPT|        2     |       1     | 0.47880880E-03 | 0.57967102E+03 |  106.949
 BASOPT|        2     |       2     | 0.74468400E-03 | 0.36247123E+03 |   78.598
 BASOPT|        2     |       3     | 0.19852023E-02 | 0.18269785E+03 |   63.957
 BASOPT|        3     |       1     | 0.17402176E-03 | 0.23325599E+03 |   59.862
 BASOPT|        3     |       2     | 0.24289242E-03 | 0.21496427E+03 |   41.706
 BASOPT|        3     |       3     | 0.12186070E-02 | 0.58205348E+02 |   37.516
 BASOPT|        4     |       1     | 0.46251722E-03 | 0.10242321E+05 |  917.592
 BASOPT|        4     |       2     | 0.10401027E-02 | 0.14760516E+04 |  529.896
 BASOPT|        4     |       3     | 0.19491444E-02 | 0.32058895E+03 |  418.516
 BASOPT| -----------------------------------------------------------------------
 BASOPT| Total residuum value: -.11870560E+04

 BASOPT| Information at iteration number:    2900
 BASOPT| Training set | Combination | Rho difference | Condition num. | Time
 BASOPT| -----------------------------------------------------------------------
 BASOPT|        1     |       1     | 0.84668780E-03 | 0.26414765E+03 |  110.101
 BASOPT|        1     |       2     | 0.14548148E-02 | 0.17446444E+03 |   83.733
 BASOPT|        1     |       3     | 0.27278071E-02 | 0.70387728E+02 |   69.082
 BASOPT|        2     |       1     | 0.47915721E-03 | 0.56749672E+03 |  110.765
 BASOPT|        2     |       2     | 0.74721622E-03 | 0.35208131E+03 |   81.421
 BASOPT|        2     |       3     | 0.19712805E-02 | 0.18123148E+03 |   66.241
 BASOPT|        3     |       1     | 0.17290761E-03 | 0.23368150E+03 |   61.993
 BASOPT|        3     |       2     | 0.24153250E-03 | 0.21501905E+03 |   43.204
 BASOPT|        3     |       3     | 0.12751896E-02 | 0.57869172E+02 |   38.857
 BASOPT|        4     |       1     | 0.46068750E-03 | 0.10238971E+05 |  950.350
 BASOPT|        4     |       2     | 0.10382055E-02 | 0.14830426E+04 |  548.806
 BASOPT|        4     |       3     | 0.19401709E-02 | 0.32199278E+03 |  433.455
 BASOPT| -----------------------------------------------------------------------
 BASOPT| Total residuum value: -.11870586E+04

 BASOPT| Information at iteration number:    3000
 BASOPT| Training set | Combination | Rho difference | Condition num. | Time
 BASOPT| -----------------------------------------------------------------------
 BASOPT|        1     |       1     | 0.84439542E-03 | 0.26319596E+03 |  113.863
 BASOPT|        1     |       2     | 0.14515045E-02 | 0.17329550E+03 |   86.617
 BASOPT|        1     |       3     | 0.27260135E-02 | 0.69925593E+02 |   71.464
 BASOPT|        2     |       1     | 0.47982764E-03 | 0.55427980E+03 |  114.581
 BASOPT|        2     |       2     | 0.74863111E-03 | 0.34419433E+03 |   84.244
 BASOPT|        2     |       3     | 0.19723109E-02 | 0.18073637E+03 |   68.524
 BASOPT|        3     |       1     | 0.17179584E-03 | 0.23352054E+03 |   64.123
 BASOPT|        3     |       2     | 0.23940375E-03 | 0.21505774E+03 |   44.696
 BASOPT|        3     |       3     | 0.12663459E-02 | 0.57621533E+02 |   40.200
 BASOPT|        4     |       1     | 0.45812999E-03 | 0.10390568E+05 |  983.108
 BASOPT|        4     |       2     | 0.10339182E-02 | 0.14911159E+04 |  567.723
 BASOPT|        4     |       3     | 0.19416850E-02 | 0.32129705E+03 |  448.399
 BASOPT| -----------------------------------------------------------------------
 BASOPT| Total residuum value: -.11870612E+04

 BASOPT| Information at iteration number:    3100
 BASOPT| Training set | Combination | Rho difference | Condition num. | Time
 BASOPT| -----------------------------------------------------------------------
 BASOPT|        1     |       1     | 0.84141643E-03 | 0.26351531E+03 |  117.625
 BASOPT|        1     |       2     | 0.14480544E-02 | 0.17289965E+03 |   89.502
 BASOPT|        1     |       3     | 0.27266424E-02 | 0.69473918E+02 |   73.846
 BASOPT|        2     |       1     | 0.48125102E-03 | 0.53334015E+03 |  118.396
 BASOPT|        2     |       2     | 0.75138961E-03 | 0.33302476E+03 |   87.068
 BASOPT|        2     |       3     | 0.19685673E-02 | 0.17852778E+03 |   70.806
 BASOPT|        3     |       1     | 0.17161435E-03 | 0.23252539E+03 |   66.253
 BASOPT|        3     |       2     | 0.23715545E-03 | 0.21467143E+03 |   46.183
 BASOPT|        3     |       3     | 0.12887276E-02 | 0.56937426E+02 |   41.542
 BASOPT|        4     |       1     | 0.45982071E-03 | 0.10609751E+05 | 1015.873
 BASOPT|        4     |       2     | 0.10308440E-02 | 0.15089414E+04 |  586.638
 BASOPT|        4     |       3     | 0.19407422E-02 | 0.32169955E+03 |  463.344
 BASOPT| -----------------------------------------------------------------------
 BASOPT| Total residuum value: -.11870650E+04

 BASOPT| Information at iteration number:    3200
 BASOPT| Training set | Combination | Rho difference | Condition num. | Time
 BASOPT| -----------------------------------------------------------------------
 BASOPT|        1     |       1     | 0.83799532E-03 | 0.26313844E+03 |  121.394
 BASOPT|        1     |       2     | 0.14439613E-02 | 0.17229238E+03 |   92.388
 BASOPT|        1     |       3     | 0.27271008E-02 | 0.69112891E+02 |   76.226
 BASOPT|        2     |       1     | 0.48079653E-03 | 0.51953643E+03 |  122.213
 BASOPT|        2     |       2     | 0.75116447E-03 | 0.32481942E+03 |   89.901
 BASOPT|        2     |       3     | 0.19666489E-02 | 0.17671540E+03 |   73.093
 BASOPT|        3     |       1     | 0.16999688E-03 | 0.23209739E+03 |   68.373
 BASOPT|        3     |       2     | 0.23483333E-03 | 0.21449943E+03 |   47.670
 BASOPT|        3     |       3     | 0.13020340E-02 | 0.56376181E+02 |   42.885
 BASOPT|        4     |       1     | 0.46133488E-03 | 0.10768404E+05 | 1048.634
 BASOPT|        4     |       2     | 0.10299954E-02 | 0.15290268E+04 |  605.552
 BASOPT|        4     |       3     | 0.19431235E-02 | 0.32211508E+03 |  478.287
 BASOPT| -----------------------------------------------------------------------
 BASOPT| Total residuum value: -.11870670E+04

 BASOPT| Information at iteration number:    3300
 BASOPT| Training set | Combination | Rho difference | Condition num. | Time
 BASOPT| -----------------------------------------------------------------------
 BASOPT|        1     |       1     | 0.83488045E-03 | 0.26529405E+03 |  125.167
 BASOPT|        1     |       2     | 0.14413004E-02 | 0.17365521E+03 |   95.274
 BASOPT|        1     |       3     | 0.27239003E-02 | 0.68978731E+02 |   78.599
 BASOPT|        2     |       1     | 0.47820622E-03 | 0.51432065E+03 |  126.029
 BASOPT|        2     |       2     | 0.75023420E-03 | 0.32173041E+03 |   92.742
 BASOPT|        2     |       3     | 0.19706464E-02 | 0.17581505E+03 |   75.373
 BASOPT|        3     |       1     | 0.16905683E-03 | 0.23165386E+03 |   70.491
 BASOPT|        3     |       2     | 0.23295075E-03 | 0.21445741E+03 |   49.157
 BASOPT|        3     |       3     | 0.12723954E-02 | 0.55896182E+02 |   44.230
 BASOPT|        4     |       1     | 0.46449100E-03 | 0.10807409E+05 | 1081.394
 BASOPT|        4     |       2     | 0.10276661E-02 | 0.15335855E+04 |  624.478
 BASOPT|        4     |       3     | 0.19451551E-02 | 0.32193544E+03 |  493.234
 BASOPT| -----------------------------------------------------------------------
 BASOPT| Total residuum value: -.11870684E+04

 BASOPT| Information at iteration number:    3400
 BASOPT| Training set | Combination | Rho difference | Condition num. | Time
 BASOPT| -----------------------------------------------------------------------
 BASOPT|        1     |       1     | 0.83512940E-03 | 0.26826753E+03 |  128.937
 BASOPT|        1     |       2     | 0.14410733E-02 | 0.17580903E+03 |   98.159
 BASOPT|        1     |       3     | 0.27266163E-02 | 0.68858213E+02 |   80.972
 BASOPT|        2     |       1     | 0.47990235E-03 | 0.50634335E+03 |  129.845
 BASOPT|        2     |       2     | 0.75146745E-03 | 0.31854387E+03 |   95.578
 BASOPT|        2     |       3     | 0.19835733E-02 | 0.17473847E+03 |   77.654
 BASOPT|        3     |       1     | 0.16966070E-03 | 0.23092204E+03 |   72.608
 BASOPT|        3     |       2     | 0.23371651E-03 | 0.21439317E+03 |   50.643
 BASOPT|        3     |       3     | 0.12302602E-02 | 0.55426353E+02 |   45.573
 BASOPT|        4     |       1     | 0.46854981E-03 | 0.10943251E+05 | 1114.147
 BASOPT|        4     |       2     | 0.10261644E-02 | 0.15395229E+04 |  643.394
 BASOPT|        4     |       3     | 0.19524974E-02 | 0.32161913E+03 |  508.187
 BASOPT| -----------------------------------------------------------------------
 BASOPT| Total residuum value: -.11870696E+04

 BASOPT| Information at iteration number:    3500
 BASOPT| Training set | Combination | Rho difference | Condition num. | Time
 BASOPT| -----------------------------------------------------------------------
 BASOPT|        1     |       1     | 0.83603733E-03 | 0.26985723E+03 |  132.709
 BASOPT|        1     |       2     | 0.14425888E-02 | 0.17708422E+03 |  101.048
 BASOPT|        1     |       3     | 0.27278358E-02 | 0.68323496E+02 |   83.349
 BASOPT|        2     |       1     | 0.48155787E-03 | 0.50552332E+03 |  133.662
 BASOPT|        2     |       2     | 0.75483451E-03 | 0.31818540E+03 |   98.416
 BASOPT|        2     |       3     | 0.19895638E-02 | 0.17444992E+03 |   79.944
 BASOPT|        3     |       1     | 0.16804818E-03 | 0.23055961E+03 |   74.726
 BASOPT|        3     |       2     | 0.23069925E-03 | 0.21424208E+03 |   52.132
 BASOPT|        3     |       3     | 0.12160745E-02 | 0.55169683E+02 |   46.916
 BASOPT|        4     |       1     | 0.46947533E-03 | 0.10982893E+05 | 1146.902
 BASOPT|        4     |       2     | 0.10269042E-02 | 0.15421301E+04 |  662.300
 BASOPT|        4     |       3     | 0.19580544E-02 | 0.31937948E+03 |  523.127
 BASOPT| -----------------------------------------------------------------------
 BASOPT| Total residuum value: -.11870705E+04

 BASOPT| Information at iteration number:    3600
 BASOPT| Training set | Combination | Rho difference | Condition num. | Time
 BASOPT| -----------------------------------------------------------------------
 BASOPT|        1     |       1     | 0.83386837E-03 | 0.27218384E+03 |  136.480
 BASOPT|        1     |       2     | 0.14418823E-02 | 0.17910554E+03 |  103.936
 BASOPT|        1     |       3     | 0.27286379E-02 | 0.67973891E+02 |   85.729
 BASOPT|        2     |       1     | 0.48021072E-03 | 0.50288841E+03 |  137.479
 BASOPT|        2     |       2     | 0.75666340E-03 | 0.31719207E+03 |  101.251
 BASOPT|        2     |       3     | 0.20039042E-02 | 0.17407264E+03 |   82.233
 BASOPT|        3     |       1     | 0.16808662E-03 | 0.23012378E+03 |   76.846
 BASOPT|        3     |       2     | 0.22998973E-03 | 0.21405507E+03 |   53.621
 BASOPT|        3     |       3     | 0.11555470E-02 | 0.54736234E+02 |   48.259
 BASOPT|        4     |       1     | 0.46984831E-03 | 0.11015525E+05 | 1179.656
 BASOPT|        4     |       2     | 0.10253882E-02 | 0.15547257E+04 |  681.206
 BASOPT|        4     |       3     | 0.19630939E-02 | 0.31800941E+03 |  538.067
 BASOPT| -----------------------------------------------------------------------
 BASOPT| Total residuum value: -.11870719E+04

 BASOPT| Information at iteration number:    3700
 BASOPT| Training set | Combination | Rho difference | Condition num. | Time
 BASOPT| -----------------------------------------------------------------------
 BASOPT|        1     |       1     | 0.83363378E-03 | 0.27169832E+03 |  140.250
 BASOPT|        1     |       2     | 0.14429865E-02 | 0.17903009E+03 |  106.827
 BASOPT|        1     |       3     | 0.27309440E-02 | 0.67329231E+02 |   88.106
 BASOPT|        2     |       1     | 0.48096400E-03 | 0.50102575E+03 |  141.297
 BASOPT|        2     |       2     | 0.76043776E-03 | 0.31584466E+03 |  104.088
 BASOPT|        2     |       3     | 0.20113387E-02 | 0.17464689E+03 |   84.526
 BASOPT|        3     |       1     | 0.16732494E-03 | 0.22995352E+03 |   78.961
 BASOPT|        3     |       2     | 0.22784214E-03 | 0.21380904E+03 |   55.110
 BASOPT|        3     |       3     | 0.11272934E-02 | 0.54679153E+02 |   49.602
 BASOPT|        4     |       1     | 0.46809937E-03 | 0.10979576E+05 | 1212.411
 BASOPT|        4     |       2     | 0.10260049E-02 | 0.15569556E+04 |  700.113
 BASOPT|        4     |       3     | 0.19618123E-02 | 0.31501112E+03 |  553.009
 BASOPT| -----------------------------------------------------------------------
 BASOPT| Total residuum value: -.11870730E+04

 BASOPT| Information at iteration number:    3800
 BASOPT| Training set | Combination | Rho difference | Condition num. | Time
 BASOPT| -----------------------------------------------------------------------
 BASOPT|        1     |       1     | 0.83425495E-03 | 0.27337493E+03 |  144.021
 BASOPT|        1     |       2     | 0.14467513E-02 | 0.18102588E+03 |  109.714
 BASOPT|        1     |       3     | 0.27317279E-02 | 0.66688112E+02 |   90.483
 BASOPT|        2     |       1     | 0.48316383E-03 | 0.50440988E+03 |  145.113
 BASOPT|        2     |       2     | 0.77128556E-03 | 0.31684966E+03 |  106.925
 BASOPT|        2     |       3     | 0.20228887E-02 | 0.17527053E+03 |   86.810
 BASOPT|        3     |       1     | 0.16756650E-03 | 0.22970288E+03 |   81.077
 BASOPT|        3     |       2     | 0.22579700E-03 | 0.21319169E+03 |   56.598
 BASOPT|        3     |       3     | 0.11111955E-02 | 0.54417100E+02 |   50.945
 BASOPT|        4     |       1     | 0.46677149E-03 | 0.10959545E+05 | 1245.173
 BASOPT|        4     |       2     | 0.10264332E-02 | 0.15772373E+04 |  719.018
 BASOPT|        4     |       3     | 0.19668893E-02 | 0.31353628E+03 |  567.950
 BASOPT| -----------------------------------------------------------------------
 BASOPT| Total residuum value: -.11870751E+04

 BASOPT| Information at iteration number:    3900
 BASOPT| Training set | Combination | Rho difference | Condition num. | Time
 BASOPT| -----------------------------------------------------------------------
 BASOPT|        1     |       1     | 0.83294132E-03 | 0.27212679E+03 |  147.791
 BASOPT|        1     |       2     | 0.14456647E-02 | 0.18049057E+03 |  112.600
 BASOPT|        1     |       3     | 0.27316161E-02 | 0.66483469E+02 |   92.859
 BASOPT|        2     |       1     | 0.48255823E-03 | 0.49707348E+03 |  148.929
 BASOPT|        2     |       2     | 0.77082470E-03 | 0.31292124E+03 |  109.767
 BASOPT|        2     |       3     | 0.20194177E-02 | 0.17349252E+03 |   89.093
 BASOPT|        3     |       1     | 0.16721062E-03 | 0.22936992E+03 |   83.196
 BASOPT|        3     |       2     | 0.22626014E-03 | 0.21301719E+03 |   58.088
 BASOPT|        3     |       3     | 0.11286568E-02 | 0.54054051E+02 |   52.288
 BASOPT|        4     |       1     | 0.46648319E-03 | 0.10966909E+05 | 1277.938
 BASOPT|        4     |       2     | 0.10244881E-02 | 0.15846668E+04 |  737.923
 BASOPT|        4     |       3     | 0.19650729E-02 | 0.31307978E+03 |  582.894
 BASOPT| -----------------------------------------------------------------------
 BASOPT| Total residuum value: -.11870759E+04

 BASOPT| Information at iteration number:    4000
 BASOPT| Training set | Combination | Rho difference | Condition num. | Time
 BASOPT| -----------------------------------------------------------------------
 BASOPT|        1     |       1     | 0.83169232E-03 | 0.27044522E+03 |  151.562
 BASOPT|        1     |       2     | 0.14451454E-02 | 0.17990732E+03 |  115.484
 BASOPT|        1     |       3     | 0.27328024E-02 | 0.65991404E+02 |   95.235
 BASOPT|        2     |       1     | 0.48293384E-03 | 0.49182118E+03 |  152.744
 BASOPT|        2     |       2     | 0.77653074E-03 | 0.30883549E+03 |  112.605
 BASOPT|        2     |       3     | 0.20253974E-02 | 0.17269573E+03 |   91.376
 BASOPT|        3     |       1     | 0.16775622E-03 | 0.22941918E+03 |   85.313
 BASOPT|        3     |       2     | 0.22641100E-03 | 0.21283985E+03 |   59.585
 BASOPT|        3     |       3     | 0.11285783E-02 | 0.53704268E+02 |   53.629
 BASOPT|        4     |       1     | 0.46463365E-03 | 0.10906008E+05 | 1310.697
 BASOPT|        4     |       2     | 0.10215881E-02 | 0.15919556E+04 |  756.832
 BASOPT|        4     |       3     | 0.19614393E-02 | 0.31161709E+03 |  597.850
 BASOPT| -----------------------------------------------------------------------
 BASOPT| Total residuum value: -.11870774E+04

 BASOPT| Information at iteration number:    4100
 BASOPT| Training set | Combination | Rho difference | Condition num. | Time
 BASOPT| -----------------------------------------------------------------------
 BASOPT|        1     |       1     | 0.83172278E-03 | 0.26982771E+03 |  155.333
 BASOPT|        1     |       2     | 0.14452330E-02 | 0.17970388E+03 |  118.370
 BASOPT|        1     |       3     | 0.27327357E-02 | 0.65745926E+02 |   97.610
 BASOPT|        2     |       1     | 0.48394648E-03 | 0.49210743E+03 |  156.560
 BASOPT|        2     |       2     | 0.78079235E-03 | 0.30826681E+03 |  115.445
 BASOPT|        2     |       3     | 0.20262457E-02 | 0.17282692E+03 |   93.655
 BASOPT|        3     |       1     | 0.16790965E-03 | 0.22966843E+03 |   87.431
 BASOPT|        3     |       2     | 0.22579643E-03 | 0.21279185E+03 |   61.071
 BASOPT|        3     |       3     | 0.11406480E-02 | 0.53681462E+02 |   54.972
 BASOPT|        4     |       1     | 0.46328735E-03 | 0.10878194E+05 | 1343.457
 BASOPT|        4     |       2     | 0.10204001E-02 | 0.15959651E+04 |  775.743
 BASOPT|        4     |       3     | 0.19586389E-02 | 0.31058295E+03 |  612.965
 BASOPT| -----------------------------------------------------------------------
 BASOPT| Total residuum value: -.11870781E+04

 BASOPT| Information at iteration number:    4200
 BASOPT| Training set | Combination | Rho difference | Condition num. | Time
 BASOPT| -----------------------------------------------------------------------
 BASOPT|        1     |       1     | 0.83198629E-03 | 0.26969232E+03 |  159.105
 BASOPT|        1     |       2     | 0.14465578E-02 | 0.17982341E+03 |  121.255
 BASOPT|        1     |       3     | 0.27325741E-02 | 0.65397986E+02 |   99.991
 BASOPT|        2     |       1     | 0.48450851E-03 | 0.49548123E+03 |  160.374
 BASOPT|        2     |       2     | 0.78477111E-03 | 0.30897501E+03 |  118.283
 BASOPT|        2     |       3     | 0.20303310E-02 | 0.17305434E+03 |   95.957
 BASOPT|        3     |       1     | 0.16844056E-03 | 0.22980365E+03 |   89.550
 BASOPT|        3     |       2     | 0.22543538E-03 | 0.21262678E+03 |   62.559
 BASOPT|        3     |       3     | 0.11336580E-02 | 0.53589404E+02 |   56.315
 BASOPT|        4     |       1     | 0.46325447E-03 | 0.10845755E+05 | 1376.216
 BASOPT|        4     |       2     | 0.10230943E-02 | 0.15996798E+04 |  794.654
 BASOPT|        4     |       3     | 0.19603618E-02 | 0.30947712E+03 |  627.901
 BASOPT| -----------------------------------------------------------------------
 BASOPT| Total residuum value: -.11870786E+04

 BASOPT| Information at iteration number:    4300
 BASOPT| Training set | Combination | Rho difference | Condition num. | Time
 BASOPT| -----------------------------------------------------------------------
 BASOPT|        1     |       1     | 0.83162906E-03 | 0.26887554E+03 |  162.877
 BASOPT|        1     |       2     | 0.14477293E-02 | 0.17940730E+03 |  124.141
 BASOPT|        1     |       3     | 0.27314919E-02 | 0.65145051E+02 |  102.367
 BASOPT|        2     |       1     | 0.48370847E-03 | 0.49480056E+03 |  164.190
 BASOPT|        2     |       2     | 0.78555075E-03 | 0.30817477E+03 |  121.120
 BASOPT|        2     |       3     | 0.20280333E-02 | 0.17301936E+03 |   98.255
 BASOPT|        3     |       1     | 0.16774095E-03 | 0.22985397E+03 |   91.669
 BASOPT|        3     |       2     | 0.22485178E-03 | 0.21256387E+03 |   64.047
 BASOPT|        3     |       3     | 0.11370789E-02 | 0.53562367E+02 |   57.658
 BASOPT|        4     |       1     | 0.46133985E-03 | 0.10814226E+05 | 1408.976
 BASOPT|        4     |       2     | 0.10216712E-02 | 0.16012251E+04 |  813.562
 BASOPT|        4     |       3     | 0.19595925E-02 | 0.30841448E+03 |  642.844
 BASOPT| -----------------------------------------------------------------------
 BASOPT| Total residuum value: -.11870791E+04

 BASOPT| Information at iteration number:    4400
 BASOPT| Training set | Combination | Rho difference | Condition num. | Time
 BASOPT| -----------------------------------------------------------------------
 BASOPT|        1     |       1     | 0.83116746E-03 | 0.26515437E+03 |  166.649
 BASOPT|        1     |       2     | 0.14485169E-02 | 0.17714736E+03 |  127.026
 BASOPT|        1     |       3     | 0.27311455E-02 | 0.64962572E+02 |  104.743
 BASOPT|        2     |       1     | 0.48424717E-03 | 0.49166047E+03 |  168.006
 BASOPT|        2     |       2     | 0.79012398E-03 | 0.30492984E+03 |  123.960
 BASOPT|        2     |       3     | 0.20275126E-02 | 0.17178152E+03 |  100.562
 BASOPT|        3     |       1     | 0.16875945E-03 | 0.23027968E+03 |   93.787
 BASOPT|        3     |       2     | 0.22643368E-03 | 0.21246256E+03 |   65.535
 BASOPT|        3     |       3     | 0.11557802E-02 | 0.53266061E+02 |   59.002
 BASOPT|        4     |       1     | 0.45801130E-03 | 0.10689878E+05 | 1441.731
 BASOPT|        4     |       2     | 0.10199907E-02 | 0.16159598E+04 |  832.467
 BASOPT|        4     |       3     | 0.19627939E-02 | 0.30819525E+03 |  657.778
 BASOPT| -----------------------------------------------------------------------
 BASOPT| Total residuum value: -.11870798E+04

 BASOPT| Information at iteration number:    4500
 BASOPT| Training set | Combination | Rho difference | Condition num. | Time
 BASOPT| -----------------------------------------------------------------------
 BASOPT|        1     |       1     | 0.83029095E-03 | 0.26411995E+03 |  170.418
 BASOPT|        1     |       2     | 0.14493781E-02 | 0.17689318E+03 |  129.910
 BASOPT|        1     |       3     | 0.27295207E-02 | 0.64797641E+02 |  107.120
 BASOPT|        2     |       1     | 0.48380711E-03 | 0.49414718E+03 |  171.820
 BASOPT|        2     |       2     | 0.79481700E-03 | 0.30465840E+03 |  126.799
 BASOPT|        2     |       3     | 0.20326978E-02 | 0.17231974E+03 |  102.855
 BASOPT|        3     |       1     | 0.16749685E-03 | 0.23041127E+03 |   95.905
 BASOPT|        3     |       2     | 0.22450132E-03 | 0.21212683E+03 |   67.022
 BASOPT|        3     |       3     | 0.11339813E-02 | 0.53188247E+02 |   60.345
 BASOPT|        4     |       1     | 0.45669749E-03 | 0.10620186E+05 | 1474.485
 BASOPT|        4     |       2     | 0.10208819E-02 | 0.16341108E+04 |  851.374
 BASOPT|        4     |       3     | 0.19585453E-02 | 0.30913462E+03 |  672.718
 BASOPT| -----------------------------------------------------------------------
 BASOPT| Total residuum value: -.11870807E+04

 BASOPT| Information at iteration number:    4600
 BASOPT| Training set | Combination | Rho difference | Condition num. | Time
 BASOPT| -----------------------------------------------------------------------
 BASOPT|        1     |       1     | 0.82884357E-03 | 0.26360894E+03 |  174.188
 BASOPT|        1     |       2     | 0.14500633E-02 | 0.17680919E+03 |  132.795
 BASOPT|        1     |       3     | 0.27279954E-02 | 0.64477669E+02 |  109.495
 BASOPT|        2     |       1     | 0.48228353E-03 | 0.49508349E+03 |  175.635
 BASOPT|        2     |       2     | 0.79663759E-03 | 0.30428090E+03 |  129.644
 BASOPT|        2     |       3     | 0.20343323E-02 | 0.17258628E+03 |  105.146
 BASOPT|        3     |       1     | 0.16590635E-03 | 0.23042221E+03 |   98.024
 BASOPT|        3     |       2     | 0.22260760E-03 | 0.21186327E+03 |   68.510
 BASOPT|        3     |       3     | 0.11214782E-02 | 0.53131575E+02 |   61.688
 BASOPT|        4     |       1     | 0.45537125E-03 | 0.10574123E+05 | 1507.243
 BASOPT|        4     |       2     | 0.10215872E-02 | 0.16437545E+04 |  870.282
 BASOPT|        4     |       3     | 0.19567367E-02 | 0.30868866E+03 |  687.770
 BASOPT| -----------------------------------------------------------------------
 BASOPT| Total residuum value: -.11870811E+04

 BASOPT| Information at iteration number:    4700
 BASOPT| Training set | Combination | Rho difference | Condition num. | Time
 BASOPT| -----------------------------------------------------------------------
 BASOPT|        1     |       1     | 0.83151172E-03 | 0.26218741E+03 |  177.962
 BASOPT|        1     |       2     | 0.14555941E-02 | 0.17590512E+03 |  135.679
 BASOPT|        1     |       3     | 0.27313939E-02 | 0.64062450E+02 |  111.875
 BASOPT|        2     |       1     | 0.48402911E-03 | 0.49843911E+03 |  179.449
 BASOPT|        2     |       2     | 0.80271290E-03 | 0.30435957E+03 |  132.483
 BASOPT|        2     |       3     | 0.20402310E-02 | 0.17334348E+03 |  107.427
 BASOPT|        3     |       1     | 0.16658315E-03 | 0.23035884E+03 |  100.141
 BASOPT|        3     |       2     | 0.22326399E-03 | 0.21157784E+03 |   70.009
 BASOPT|        3     |       3     | 0.11199016E-02 | 0.53133170E+02 |   63.032
 BASOPT|        4     |       1     | 0.45473762E-03 | 0.10495084E+05 | 1539.999
 BASOPT|        4     |       2     | 0.10221262E-02 | 0.16464583E+04 |  889.188
 BASOPT|        4     |       3     | 0.19568920E-02 | 0.30805913E+03 |  702.717
 BASOPT| -----------------------------------------------------------------------
 BASOPT| Total residuum value: -.11870819E+04

 BASOPT| Information at iteration number:    4800
 BASOPT| Training set | Combination | Rho difference | Condition num. | Time
 BASOPT| -----------------------------------------------------------------------
 BASOPT|        1     |       1     | 0.83089084E-03 | 0.26234104E+03 |  181.733
 BASOPT|        1     |       2     | 0.14565257E-02 | 0.17615636E+03 |  138.565
 BASOPT|        1     |       3     | 0.27316428E-02 | 0.63971464E+02 |  114.251
 BASOPT|        2     |       1     | 0.48279559E-03 | 0.50144796E+03 |  183.265
 BASOPT|        2     |       2     | 0.80327667E-03 | 0.30536037E+03 |  135.322
 BASOPT|        2     |       3     | 0.20393253E-02 | 0.17345503E+03 |  109.730
 BASOPT|        3     |       1     | 0.16529501E-03 | 0.23040561E+03 |  102.260
 BASOPT|        3     |       2     | 0.22204995E-03 | 0.21146270E+03 |   71.498
 BASOPT|        3     |       3     | 0.11267740E-02 | 0.53089026E+02 |   64.375
 BASOPT|        4     |       1     | 0.45397679E-03 | 0.10504919E+05 | 1572.755
 BASOPT|        4     |       2     | 0.10219694E-02 | 0.16467312E+04 |  908.091
 BASOPT|        4     |       3     | 0.19528594E-02 | 0.30828014E+03 |  717.657
 BASOPT| -----------------------------------------------------------------------
 BASOPT| Total residuum value: -.11870820E+04

 BASOPT| Information at iteration number:    4900
 BASOPT| Training set | Combination | Rho difference | Condition num. | Time
 BASOPT| -----------------------------------------------------------------------
 BASOPT|        1     |       1     | 0.83134474E-03 | 0.26098140E+03 |  185.503
 BASOPT|        1     |       2     | 0.14578660E-02 | 0.17521660E+03 |  141.450
 BASOPT|        1     |       3     | 0.27319935E-02 | 0.63998731E+02 |  116.629
 BASOPT|        2     |       1     | 0.48343874E-03 | 0.50105455E+03 |  187.081
 BASOPT|        2     |       2     | 0.80619639E-03 | 0.30419884E+03 |  138.161
 BASOPT|        2     |       3     | 0.20416481E-02 | 0.17387179E+03 |  112.011
 BASOPT|        3     |       1     | 0.16554155E-03 | 0.23035386E+03 |  104.379
 BASOPT|        3     |       2     | 0.22209302E-03 | 0.21129031E+03 |   72.986
 BASOPT|        3     |       3     | 0.11235504E-02 | 0.53099889E+02 |   65.718
 BASOPT|        4     |       1     | 0.45344238E-03 | 0.10436027E+05 | 1605.511
 BASOPT|        4     |       2     | 0.10220960E-02 | 0.16508078E+04 |  926.997
 BASOPT|        4     |       3     | 0.19536559E-02 | 0.30855689E+03 |  732.599
 BASOPT| -----------------------------------------------------------------------
 BASOPT| Total residuum value: -.11870824E+04

 BASOPT| Information at iteration number:    5000
 BASOPT| Training set | Combination | Rho difference | Condition num. | Time
 BASOPT| -----------------------------------------------------------------------
 BASOPT|        1     |       1     | 0.83090235E-03 | 0.25775217E+03 |  189.275
 BASOPT|        1     |       2     | 0.14609121E-02 | 0.17298734E+03 |  144.336
 BASOPT|        1     |       3     | 0.27350062E-02 | 0.63797962E+02 |  119.007
 BASOPT|        2     |       1     | 0.48211677E-03 | 0.50019938E+03 |  190.898
 BASOPT|        2     |       2     | 0.80777490E-03 | 0.30223002E+03 |  141.000
 BASOPT|        2     |       3     | 0.20400654E-02 | 0.17366504E+03 |  114.291
 BASOPT|        3     |       1     | 0.16581806E-03 | 0.23032398E+03 |  106.498
 BASOPT|        3     |       2     | 0.22311147E-03 | 0.21103388E+03 |   74.476
 BASOPT|        3     |       3     | 0.11391888E-02 | 0.52993641E+02 |   67.061
 BASOPT|        4     |       1     | 0.45225910E-03 | 0.10289492E+05 | 1638.274
 BASOPT|        4     |       2     | 0.10225684E-02 | 0.16572597E+04 |  945.904
 BASOPT|        4     |       3     | 0.19524862E-02 | 0.30866336E+03 |  747.534
 BASOPT| -----------------------------------------------------------------------
 BASOPT| Total residuum value: -.11870829E+04

 BASOPT| Information at iteration number:    5100
 BASOPT| Training set | Combination | Rho difference | Condition num. | Time
 BASOPT| -----------------------------------------------------------------------
 BASOPT|        1     |       1     | 0.83151228E-03 | 0.25858767E+03 |  193.048
 BASOPT|        1     |       2     | 0.14624490E-02 | 0.17372376E+03 |  147.221
 BASOPT|        1     |       3     | 0.27361749E-02 | 0.63761019E+02 |  121.383
 BASOPT|        2     |       1     | 0.48292620E-03 | 0.50375294E+03 |  194.713
 BASOPT|        2     |       2     | 0.81052149E-03 | 0.30379965E+03 |  143.844
 BASOPT|        2     |       3     | 0.20396888E-02 | 0.17446759E+03 |  116.572
 BASOPT|        3     |       1     | 0.16478080E-03 | 0.23011820E+03 |  108.617
 BASOPT|        3     |       2     | 0.22125318E-03 | 0.21087967E+03 |   75.963
 BASOPT|        3     |       3     | 0.11541587E-02 | 0.53036390E+02 |   68.404
 BASOPT|        4     |       1     | 0.45170667E-03 | 0.10310868E+05 | 1671.034
 BASOPT|        4     |       2     | 0.10225287E-02 | 0.16557303E+04 |  964.809
 BASOPT|        4     |       3     | 0.19495597E-02 | 0.30929674E+03 |  762.469
 BASOPT| -----------------------------------------------------------------------
 BASOPT| Total residuum value: -.11870834E+04

 BASOPT| Information at iteration number:    5200
 BASOPT| Training set | Combination | Rho difference | Condition num. | Time
 BASOPT| -----------------------------------------------------------------------
 BASOPT|        1     |       1     | 0.83201529E-03 | 0.25768457E+03 |  196.819
 BASOPT|        1     |       2     | 0.14626113E-02 | 0.17300511E+03 |  150.108
 BASOPT|        1     |       3     | 0.27388207E-02 | 0.63795313E+02 |  123.758
 BASOPT|        2     |       1     | 0.48420350E-03 | 0.50010620E+03 |  198.528
 BASOPT|        2     |       2     | 0.81108373E-03 | 0.30192916E+03 |  146.684
 BASOPT|        2     |       3     | 0.20413726E-02 | 0.17434621E+03 |  118.852
 BASOPT|        3     |       1     | 0.16591352E-03 | 0.22998831E+03 |  110.734
 BASOPT|        3     |       2     | 0.22251087E-03 | 0.21087024E+03 |   77.450
 BASOPT|        3     |       3     | 0.11552953E-02 | 0.53041726E+02 |   69.745
 BASOPT|        4     |       1     | 0.45267460E-03 | 0.10274005E+05 | 1703.797
 BASOPT|        4     |       2     | 0.10230489E-02 | 0.16566381E+04 |  983.718
 BASOPT|        4     |       3     | 0.19484001E-02 | 0.30935700E+03 |  777.406
 BASOPT| -----------------------------------------------------------------------
 BASOPT| Total residuum value: -.11870836E+04

 BASOPT| Information at iteration number:    5300
 BASOPT| Training set | Combination | Rho difference | Condition num. | Time
 BASOPT| -----------------------------------------------------------------------
 BASOPT|        1     |       1     | 0.83170360E-03 | 0.25767350E+03 |  200.589
 BASOPT|        1     |       2     | 0.14631485E-02 | 0.17300915E+03 |  152.992
 BASOPT|        1     |       3     | 0.27396912E-02 | 0.63930988E+02 |  126.137
 BASOPT|        2     |       1     | 0.48387316E-03 | 0.49909056E+03 |  202.342
 BASOPT|        2     |       2     | 0.81062405E-03 | 0.30143176E+03 |  149.521
 BASOPT|        2     |       3     | 0.20385440E-02 | 0.17426144E+03 |  121.131
 BASOPT|        3     |       1     | 0.16606880E-03 | 0.22980798E+03 |  112.852
 BASOPT|        3     |       2     | 0.22305882E-03 | 0.21081839E+03 |   78.940
 BASOPT|        3     |       3     | 0.11706511E-02 | 0.53024934E+02 |   71.087
 BASOPT|        4     |       1     | 0.45311937E-03 | 0.10284872E+05 | 1736.559
 BASOPT|        4     |       2     | 0.10231278E-02 | 0.16592249E+04 | 1002.623
 BASOPT|        4     |       3     | 0.19472754E-02 | 0.31028717E+03 |  792.340
 BASOPT| -----------------------------------------------------------------------
 BASOPT| Total residuum value: -.11870838E+04

 BASOPT| Information at iteration number:    5400
 BASOPT| Training set | Combination | Rho difference | Condition num. | Time
 BASOPT| -----------------------------------------------------------------------
 BASOPT|        1     |       1     | 0.83081110E-03 | 0.25824093E+03 |  204.360
 BASOPT|        1     |       2     | 0.14630768E-02 | 0.17333370E+03 |  155.877
 BASOPT|        1     |       3     | 0.27392191E-02 | 0.63863262E+02 |  128.513
 BASOPT|        2     |       1     | 0.48315204E-03 | 0.49859821E+03 |  206.156
 BASOPT|        2     |       2     | 0.81043562E-03 | 0.30143421E+03 |  152.360
 BASOPT|        2     |       3     | 0.20359716E-02 | 0.17386731E+03 |  123.411
[...]
 BASOPT|        2     |       3     | 0.20759798E-02 | 0.15639965E+03 |  672.956
 BASOPT|        3     |       1     | 0.15815248E-03 | 0.21636578E+03 |  625.444
 BASOPT|        3     |       2     | 0.23082086E-03 | 0.20333598E+03 |  439.279
 BASOPT|        3     |       3     | 0.10966262E-02 | 0.48302460E+02 |  396.143
 BASOPT|        4     |       1     | 0.45249787E-03 | 0.95982546E+04 | 9663.623
 BASOPT|        4     |       2     | 0.10403038E-02 | 0.14248807E+04 | 5581.653
 BASOPT|        4     |       3     | 0.19704026E-02 | 0.31956920E+03 | 4412.141
 BASOPT| -----------------------------------------------------------------------
 BASOPT| Total residuum value: -.11871032E+04

 BASOPT| Information at iteration number:   29600
 BASOPT| Training set | Combination | Rho difference | Condition num. | Time
 BASOPT| -----------------------------------------------------------------------
 BASOPT|        1     |       1     | 0.83823801E-03 | 0.20565229E+03 | 1116.853
 BASOPT|        1     |       2     | 0.15186921E-02 | 0.13133339E+03 |  853.047
 BASOPT|        1     |       3     | 0.27651037E-02 | 0.56507355E+02 |  703.938
 BASOPT|        2     |       1     | 0.49696989E-03 | 0.44904837E+03 | 1129.019
 BASOPT|        2     |       2     | 0.84764425E-03 | 0.25958827E+03 |  838.189
 BASOPT|        2     |       3     | 0.20759797E-02 | 0.15639965E+03 |  675.232
 BASOPT|        3     |       1     | 0.15815245E-03 | 0.21636578E+03 |  627.567
 BASOPT|        3     |       2     | 0.23082081E-03 | 0.20333598E+03 |  440.766
 BASOPT|        3     |       3     | 0.10966263E-02 | 0.48302460E+02 |  397.483
 BASOPT|        4     |       1     | 0.45249786E-03 | 0.95982548E+04 | 9696.377
 BASOPT|        4     |       2     | 0.10403038E-02 | 0.14248807E+04 | 5600.576
 BASOPT|        4     |       3     | 0.19704028E-02 | 0.31956919E+03 | 4427.079
 BASOPT| -----------------------------------------------------------------------
 BASOPT| Total residuum value: -.11871032E+04

 BASOPT| Information at iteration number:   29700
 BASOPT| Training set | Combination | Rho difference | Condition num. | Time
 BASOPT| -----------------------------------------------------------------------
 BASOPT|        1     |       1     | 0.83823802E-03 | 0.20565229E+03 | 1120.626
 BASOPT|        1     |       2     | 0.15186921E-02 | 0.13133339E+03 |  855.921
 BASOPT|        1     |       3     | 0.27651037E-02 | 0.56507355E+02 |  706.317
 BASOPT|        2     |       1     | 0.49696990E-03 | 0.44904838E+03 | 1132.829
 BASOPT|        2     |       2     | 0.84764426E-03 | 0.25958827E+03 |  841.021
 BASOPT|        2     |       3     | 0.20759797E-02 | 0.15639966E+03 |  677.509
 BASOPT|        3     |       1     | 0.15815246E-03 | 0.21636578E+03 |  629.696
 BASOPT|        3     |       2     | 0.23082082E-03 | 0.20333598E+03 |  442.255
 BASOPT|        3     |       3     | 0.10966264E-02 | 0.48302460E+02 |  398.834
 BASOPT|        4     |       1     | 0.45249786E-03 | 0.95982549E+04 | 9729.128
 BASOPT|        4     |       2     | 0.10403038E-02 | 0.14248807E+04 | 5619.503
 BASOPT|        4     |       3     | 0.19704028E-02 | 0.31956919E+03 | 4442.021
 BASOPT| -----------------------------------------------------------------------
 BASOPT| Total residuum value: -.11871032E+04

 BASOPT| Information at iteration number:   29800
 BASOPT| Training set | Combination | Rho difference | Condition num. | Time
 BASOPT| -----------------------------------------------------------------------
 BASOPT|        1     |       1     | 0.83823802E-03 | 0.20565229E+03 | 1124.409
 BASOPT|        1     |       2     | 0.15186921E-02 | 0.13133339E+03 |  858.794
 BASOPT|        1     |       3     | 0.27651037E-02 | 0.56507355E+02 |  708.719
 BASOPT|        2     |       1     | 0.49696990E-03 | 0.44904838E+03 | 1136.639
 BASOPT|        2     |       2     | 0.84764426E-03 | 0.25958827E+03 |  843.854
 BASOPT|        2     |       3     | 0.20759797E-02 | 0.15639966E+03 |  679.786
 BASOPT|        3     |       1     | 0.15815246E-03 | 0.21636578E+03 |  631.817
 BASOPT|        3     |       2     | 0.23082082E-03 | 0.20333598E+03 |  443.742
 BASOPT|        3     |       3     | 0.10966264E-02 | 0.48302460E+02 |  400.178
 BASOPT|        4     |       1     | 0.45249786E-03 | 0.95982549E+04 | 9761.879
 BASOPT|        4     |       2     | 0.10403038E-02 | 0.14248807E+04 | 5638.434
 BASOPT|        4     |       3     | 0.19704028E-02 | 0.31956919E+03 | 4456.964
 BASOPT| -----------------------------------------------------------------------
 BASOPT| Total residuum value: -.11871032E+04

 BASOPT| Information at iteration number:   29900
 BASOPT| Training set | Combination | Rho difference | Condition num. | Time
 BASOPT| -----------------------------------------------------------------------
 BASOPT|        1     |       1     | 0.83823802E-03 | 0.20565229E+03 | 1128.182
 BASOPT|        1     |       2     | 0.15186921E-02 | 0.13133339E+03 |  861.668
 BASOPT|        1     |       3     | 0.27651037E-02 | 0.56507355E+02 |  711.108
 BASOPT|        2     |       1     | 0.49696990E-03 | 0.44904838E+03 | 1140.449
 BASOPT|        2     |       2     | 0.84764426E-03 | 0.25958827E+03 |  846.686
 BASOPT|        2     |       3     | 0.20759797E-02 | 0.15639966E+03 |  682.062
 BASOPT|        3     |       1     | 0.15815246E-03 | 0.21636578E+03 |  633.939
 BASOPT|        3     |       2     | 0.23082082E-03 | 0.20333598E+03 |  445.230
 BASOPT|        3     |       3     | 0.10966264E-02 | 0.48302460E+02 |  401.522
 BASOPT|        4     |       1     | 0.45249786E-03 | 0.95982549E+04 | 9794.629
 BASOPT|        4     |       2     | 0.10403038E-02 | 0.14248807E+04 | 5657.361
 BASOPT|        4     |       3     | 0.19704028E-02 | 0.31956919E+03 | 4471.907
 BASOPT| -----------------------------------------------------------------------
 BASOPT| Total residuum value: -.11871032E+04


 -------------------------------------------------------------------------------
 -                                                                             -
 -                                DBCSR STATISTICS                             -
 -                                                                             -
 -------------------------------------------------------------------------------
 COUNTER                                    TOTAL       BLAS       SMM       ACC
 flops    68 x   136 x     7               388416       0.0%    100.0%      0.0%
 flops   136 x    68 x     7               388416       0.0%    100.0%      0.0%
 flops    68 x    68 x     7               582624       0.0%    100.0%      0.0%
 flops   136 x   136 x     7               776832       0.0%    100.0%      0.0%
 flops   136 x    68 x    13              2164032       0.0%    100.0%      0.0%
 flops    68 x   136 x    13              2164032       0.0%    100.0%      0.0%
 flops   116 x    68 x    13              3691584       0.0%    100.0%      0.0%
 flops    68 x   116 x    13              3691584       0.0%    100.0%      0.0%
 flops   116 x   136 x    13              3691584       0.0%    100.0%      0.0%
 flops   136 x   116 x    13              3691584       0.0%    100.0%      0.0%
 flops   136 x   136 x    13              4328064       0.0%    100.0%      0.0%
 flops    68 x    68 x    13              7574112       0.0%    100.0%      0.0%
 flops   116 x   116 x    13              9446112       0.0%    100.0%      0.0%
 flops inhomo. stacks                           0       0.0%      0.0%      0.0%
 flops total                        42.578976E+06       0.0%    100.0%      0.0%
 flops max/rank                      2.644928E+06       0.0%    100.0%      0.0%
 matmuls inhomo. stacks                         0       0.0%      0.0%      0.0%
 matmuls total                                189       0.0%    100.0%      0.0%
 number of processed stacks                    81       0.0%    100.0%      0.0%
 average stack size                                     0.0       2.3       0.0
 marketing flops                    71.203200E+06
 -------------------------------------------------------------------------------
 # multiplications                              1
 max memory usage/rank             222.023680E+06
 # max total images/rank                        1
 # max 3D layers                                1
 # MPI messages exchanged                      96
 MPI messages size (bytes):
  total size                         1.034880E+06
  min size                           0.000000E+00
  max size                          42.432000E+03
  average size                      10.780000E+03
 MPI breakdown and total messages size (bytes):
             size <=      128                  48                        0
       128 < size <=     8192                  12                    91392
      8192 < size <=    32768                  24                   459264
     32768 < size <=   131072                  12                   484224
    131072 < size <=  4194304                   0                        0
   4194304 < size <= 16777216                   0                        0
  16777216 < size                               0                        0
 -------------------------------------------------------------------------------
 -                                                                             -
 -                      DBCSR MESSAGE PASSING PERFORMANCE                      -
 -                                                                             -
 -------------------------------------------------------------------------------
 ROUTINE             CALLS      AVE VOLUME [Bytes]
 MP_Bcast               14                     12.
 MP_Allreduce           52                     22.
 MP_Alltoall       1796541                  34585.
 MP_ISend                8                   3580.
 MP_IRecv                8                     41.
 -------------------------------------------------------------------------------

 -------------------------------------------------------------------------------
 -                                                                             -
 -                                GRID STATISTICS                              -
 -                                                                             -
 -------------------------------------------------------------------------------
 LP    KERNEL             BACKEND                              COUNT     PERCENT
 4     collocate ortho    REF                                   6114      10.27%
 4     integrate ortho    REF                                   6114      10.27%
 3     collocate ortho    REF                                   5718       9.61%
 3     integrate ortho    REF                                   5718       9.61%
 2     collocate ortho    REF                                   3990       6.70%
 2     integrate ortho    REF                                   3990       6.70%
 0     collocate ortho    REF                                   3843       6.46%
 0     integrate ortho    REF                                   3843       6.46%
 1     collocate ortho    REF                                   3510       5.90%
 1     integrate ortho    REF                                   3510       5.90%
 6     collocate ortho    REF                                   2670       4.49%
 6     integrate ortho    REF                                   2670       4.49%
 5     collocate ortho    REF                                   2310       3.88%
 5     integrate ortho    REF                                   2310       3.88%
 7     collocate ortho    REF                                   1152       1.94%
 7     integrate ortho    REF                                   1152       1.94%
 8     collocate ortho    REF                                    423       0.71%
 8     integrate ortho    REF                                    423       0.71%
 0     collocate general  REF                                     54       0.09%
 -------------------------------------------------------------------------------

 MEMORY| Estimated peak process memory [MiB]                                 321

 -------------------------------------------------------------------------------
 -                                                                             -
 -                         MESSAGE PASSING PERFORMANCE                         -
 -                                                                             -
 -------------------------------------------------------------------------------

 ROUTINE             CALLS      AVE VOLUME [Bytes]
 MP_Bcast            29984                   2392.
 MP_Allreduce       209959                    132.
 MP_Sync             29942
 MP_Alltoall            18               21601109.
 MP_ISendRecv           27                1548565.
 MP_Wait                27
 MP_comm_split           1
 -------------------------------------------------------------------------------


 -------------------------------------------------------------------------------
 -                                                                             -
 -                           R E F E R E N C E S                               -
 -                                                                             -
 -------------------------------------------------------------------------------
 
 CP2K version 9.0 (Development Version), the CP2K developers group (2020).
 CP2K is freely available from https://www.cp2k.org/ .

 Kuehne,Thomas D.; Iannuzzi,Marcella; Del Ben,Mauro;
 Rybkin,Vladimir V.; Seewald,Patrick; Stein,Frederick; Laino,Teodoro;
 Khaliullin,Rustam Z.; Schuett,Ole; Schiffmann,Florian; Golze,Dorothea;
 Wilhelm,Jan; Chulkov,Sergey; Bani-Hashemian,Mohammad Hossein;
 Weber,Valery; Borstnik,Urban; Taillefumier,Mathieu;
 Jakobovits,Alice Shoshana; Lazzaro,Alfio; Pabst,Hans; Mueller,Tiziano;
 Schade,Robert; Guidon,Manuel; Andermatt,Samuel; Holmberg,Nico;
 Schenter,Gregory K.; Hehn,Anna; Bussy,Augustin; Belleflamme,Fabian;
 Tabacchi,Gloria; Gloess,Andreas; Lass,Michael; Bethune,Iain;
 Mundy,Christopher J.; Plessl,Christian; Watkins,Matt;
 VandeVondele,Joost; Krack,Matthias; Hutter,Juerg. 
 The Journal of Chemical Physics, 152 (19), (2020). 
 CP2K: An electronic structure and molecular dynamics software package -
 Quickstep: Efficient and accurate electronic structure calculations.
 https://doi.org/10.1063/5.0007045

 Schuett, Ole; Messmer, Peter; Hutter, Juerg; VandeVondele, Joost. 
 Electronic Structure Calculations on Graphics Processing Units, John
 Wiley & Sons, Ltd, 173-190 (2016). 
 GPU-Accelerated Sparse Matrix-Matrix Multiplication for
 Linear Scaling Density Functional Theory.
 https://doi.org/10.1002/9781118670712.ch8

 Borstnik, U; VandeVondele, J; Weber, V; Hutter, J. 
 PARALLEL COMPUTING, 40 (5-6), 47-58 (2014). 
 Sparse matrix multiplication: The distributed block-compressed sparse
 row library.
 https://doi.org/10.1016/j.parco.2014.03.012

 Hutter, J; Iannuzzi, M; Schiffmann, F; VandeVondele, J. 
 WIREs Comput Mol Sci., 4 (1), 15-25 (2014). 
 CP2K: atomistic simulations of condensed matter systems.
 https://doi.org/10.1002/wcms.1159

 Marek, A; Blum, V; Johanni, R; Havu, V; Lang, B; Auckenthaler, T;
 Heinecke, A; Bungartz, H; Lederer, H. 
 Journal of Physics: Condensed Matter, 26 (21), (2014). 
 The ELPA library: scalable parallel eigenvalue solutions for
 electronic structure
 theory and computational science.
 https://doi.org/10.1088/0953-8984/26/21/213201

 Guidon, M; Hutter, J; VandeVondele, J. 
 JOURNAL OF CHEMICAL THEORY AND COMPUTATION, 6 (8), 2348-2364 (2010). 
 Auxiliary Density Matrix Methods for Hartree-Fock Exchange Calculations.
 https://doi.org/10.1021/ct1002225

 VandeVondele, J; Hutter, J. 
 JOURNAL OF CHEMICAL PHYSICS, 127 (11), 114105 (2007). 
 Gaussian basis sets for accurate calculations on molecular systems in
 gas and condensed phases.
 https://doi.org/10.1063/1.2770708

 Krack, M. 
 THEORETICAL CHEMISTRY ACCOUNTS, 114 (1-3), 145-152 (2005). 
 Pseudopotentials for H to Kr optimized for gradient-corrected
 exchange-correlation functionals.
 https://doi.org/10.1007/s00214-005-0655-y

 VandeVondele, J; Krack, M; Mohamed, F; Parrinello, M; Chassaing, T;
 Hutter, J. COMPUTER PHYSICS COMMUNICATIONS, 167 (2), 103-128 (2005). 
 QUICKSTEP: Fast and accurate density functional calculations using a
 mixed Gaussian and plane waves approach.
 https://doi.org/10.1016/j.cpc.2004.12.014

 Frigo, M; Johnson, SG. 
 PROCEEDINGS OF THE IEEE, 93 (2), 216-231 (2005). 
 The design and implementation of FFTW3.
 https://doi.org/10.1109/JPROC.2004.840301

 Hartwigsen, C; Goedecker, S; Hutter, J. 
 PHYSICAL REVIEW B, 58 (7), 3641-3662 (1998). 
 Relativistic separable dual-space Gaussian pseudopotentials from H to Rn.
 https://doi.org/10.1103/PhysRevB.58.3641

 Lippert, G; Hutter, J; Parrinello, M. 
 MOLECULAR PHYSICS, 92 (3), 477-487 (1997). 
 A hybrid Gaussian and plane wave density functional scheme.
 https://doi.org/10.1080/002689797170220

 Perdew, JP; Burke, K; Ernzerhof, M. 
 PHYSICAL REVIEW LETTERS, 77 (18), 3865-3868 (1996). 
 Generalized gradient approximation made simple.
 https://doi.org/10.1103/PhysRevLett.77.3865

 Goedecker, S; Teter, M; Hutter, J. 
 PHYSICAL REVIEW B, 54 (3), 1703-1710 (1996). 
 Separable dual-space Gaussian pseudopotentials.
 https://doi.org/10.1103/PhysRevB.54.1703


 -------------------------------------------------------------------------------
 -                                                                             -
 -                                T I M I N G                                  -
 -                                                                             -
 -------------------------------------------------------------------------------
 SUBROUTINE                       CALLS  ASD         SELF TIME        TOTAL TIME
                                MAXIMUM       AVERAGE  MAXIMUM  AVERAGE  MAXIMUM
 CP2K                                 1  1.0    0.002    0.005 9825.686 9827.807
 run_optimize_basis                   1  2.0    0.003    0.004 9825.669 9827.789
 driver_para_opt_basis                1  3.0    0.000    0.000 9825.657 9827.777
 driver_optimization_para_low         1  4.0    0.372    0.857 9825.656 9827.775
 compute_residuum_vectors         29942  5.0    2.039    2.984 9811.339 9813.579
 mp_sum_dv                       149711  5.8 7576.613 9409.045 7576.613 9409.045
 cp_gemm                         359304  7.2    0.542    0.851 1842.331 8753.711
 cp_gemm_fm_gemm                 359304  8.2    0.318    0.469 1841.788 8753.126
 cp_fm_gemm                      359304  9.2 1841.470 8752.793 1841.470 8752.793
 admm_fit_mo_coeffs               29942  6.0    0.082    0.141  751.540 3440.712
 fit_mo_coeffs                    29942  7.0    0.279    0.435  608.554 3113.609
 cp_fm_syevd                      59884  7.0    0.197    0.294  126.744  408.731
 cp_fm_syevd_base                 59884  8.0  126.472  408.397  126.472  408.397
 purify_mo_diag                   29942  7.0    0.363    0.611  142.903  333.534
 build_overlap_matrix_low         59888  6.0   69.160  307.276   70.612  309.801
 copy_dbcsr_to_fm                149711  6.8    1.635    2.782  116.146  291.594
 -------------------------------------------------------------------------------

 The number of warnings for this run is : 0
 
 -------------------------------------------------------------------------------
  **** **** ******  **  PROGRAM ENDED AT                 2021-01-23 15:39:28.074
 ***** ** ***  *** **   PROGRAM RAN ON                                   tcopt10
 **    ****   ******    PROGRAM RAN BY                                    hutter
 ***** **    ** ** **   PROGRAM PROCESS ID                                 78542
  **** **  *******  **  PROGRAM STOPPED IN /data/hutter/GITHUB/BASIS/MOLOPT/PBE/
                                           Zn
