 DBCSR| CPU Multiplication driver                                           XSMM
 DBCSR| Multrec recursion limit                                              512
 DBCSR| Multiplication stack size                                           1000
 DBCSR| Maximum elements for images                                    UNLIMITED
 DBCSR| Multiplicative factor virtual images                                   1
 DBCSR| Use multiplication densification                                       T
 DBCSR| Multiplication size stacks                                             3
 DBCSR| Use memory pool for CPU allocation                                     F
 DBCSR| Number of 3D layers                                               SINGLE
 DBCSR| Use MPI memory allocation                                              F
 DBCSR| Use RMA algorithm                                                      F
 DBCSR| Use Communication thread                                               T
 DBCSR| Communication thread load                                             87
 DBCSR| MPI: My node id                                                        0
 DBCSR| MPI: Number of nodes                                                  48
 DBCSR| OMP: Current number of threads                                         1
 DBCSR| OMP: Max number of threads                                             1
 DBCSR| Split modifier for TAS multiplication algorithm                  1.0E+00


  **** **** ******  **  PROGRAM STARTED AT               2022-06-07 18:19:05.334
 ***** ** ***  *** **   PROGRAM STARTED ON                               tcopt10
 **    ****   ******    PROGRAM STARTED BY                                hutter
 ***** **    ** ** **   PROGRAM PROCESS ID                                 86954
  **** **  *******  **  PROGRAM STARTED IN /data/hutter/GITHUB/BASIS/scMOLOPT/PB
                                           E/Pb

 CP2K| version string:                   CP2K version 10.0 (Development Version)
 CP2K| source code revision number:                                  git:d19b00a
 CP2K| cp2kflags: omp libint fftw3 libxc elpa parallel mpi3 scalapack cosma xsmm
 CP2K|             spglib sirius libvori libbqb
 CP2K| is freely available from                            https://www.cp2k.org/
 CP2K| Program compiled at                      Wed 18 May 2022 12:15:59 PM CEST
 CP2K| Program compiled on                                               tcopt10
 CP2K| Program compiled for                                                local
 CP2K| Data directory path                   /data/hutter/GITHUB/TDLRI/cp2k/data
 CP2K| Input file name                                              PbH4-ref.inp

 GLOBAL| Force Environment number                                              1
 GLOBAL| Basis set file name                                        ../def2QZVPP
 GLOBAL| Potential file name                                        ../POTENTIAL
 GLOBAL| MM Potential file name                                     MM_POTENTIAL
 GLOBAL| Coordinate file name                                      __STD_INPUT__
 GLOBAL| Method name                                                        CP2K
 GLOBAL| Project name                                                    refPbH4
 GLOBAL| Run type                                                         ENERGY
 GLOBAL| FFT library                                                       FFTW3
 GLOBAL| Diagonalization library                                            ELPA
 GLOBAL| Minimum number of eigenvectors for ELPA usage                        16
 GLOBAL| Orthonormality check for eigenvectors                          DISABLED
 GLOBAL| Matrix multiplication library                                     COSMA
 GLOBAL| All-to-all communication in single precision                          F
 GLOBAL| FFTs using library dependent lengths                                  F
 GLOBAL| Grid backend                                                       AUTO
 GLOBAL| Global print level                                                  LOW
 GLOBAL| MPI I/O enabled                                                       T
 GLOBAL| Total number of message passing processes                            48
 GLOBAL| Number of threads for this process                                    1
 GLOBAL| This output is from process                                           0
 GLOBAL| Stack size for threads created by OpenMP (OMP_STACKSIZE)        default
 GLOBAL| CPU model name                          AMD EPYC 7401 24-Core Processor
 GLOBAL| CPUID                                                              1002

 MEMORY| system memory details [Kb]
 MEMORY|                        rank 0           min           max       average
 MEMORY| MemTotal            263969132     263969132     263969132     263969132
 MEMORY| MemFree             236023964     236023964     236023964     236023964
 MEMORY| Buffers                  2836          2836          2836          2836
 MEMORY| Cached               20350792      20350792      20350792      20350792
 MEMORY| Slab                  1478124       1478124       1478124       1478124
 MEMORY| SReclaimable           874644        874644        874644        874644
 MEMORY| MemLikelyFree       257252236     257252236     257252236     257252236


 GENERATE|  Preliminary Number of Bonds generated:                             0
 GENERATE|  Achieved consistency in connectivity generation.

 *******************************************************************************
 *******************************************************************************
 **                                                                           **
 **     #####                         ##              ##                      **
 **    ##   ##            ##          ##              ##                      **
 **   ##     ##                       ##            ######                    **
 **   ##     ##  ##   ##  ##   #####  ##  ##   ####   ##    #####    #####    **
 **   ##     ##  ##   ##  ##  ##      ## ##   ##      ##   ##   ##  ##   ##   **
 **   ##  ## ##  ##   ##  ##  ##      ####     ###    ##   ######   ######    **
 **    ##  ###   ##   ##  ##  ##      ## ##      ##   ##   ##       ##        **
 **     #######   #####   ##   #####  ##  ##  ####    ##    #####   ##        **
 **           ##                                                    ##        **
 **                                                                           **
 **                                                ... make the atoms dance   **
 **                                                                           **
 **            Copyright (C) by CP2K developers group (2000-2022)             **
 **                      J. Chem. Phys. 152, 194103 (2020)                    **
 **                                                                           **
 *******************************************************************************


 TOTAL NUMBERS AND MAXIMUM NUMBERS

  Total number of            - Atomic kinds:                                   2
                             - Atoms:                                          5
                             - Shell sets:                                    62
                             - Shells:                                        62
                             - Primitive Cartesian functions:                 98
                             - Cartesian basis functions:                    244
                             - Spherical basis functions:                    202

  Maximum angular momentum of- Orbital basis functions:                        4
                             - Local part of the GTH pseudopotential:          2
                             - Non-local part of the GTH pseudopotential:      5


 SCF PARAMETERS         Density guess:                                    ATOMIC
                        --------------------------------------------------------
                        max_scf:                                              20
                        max_scf_history:                                       0
                        max_diis:                                              4
                        --------------------------------------------------------
                        eps_scf:                                        1.00E-07
                        eps_scf_history:                                0.00E+00
                        eps_diis:                                       1.00E-01
                        eps_eigval:                                     1.00E-05
                        --------------------------------------------------------
                        level_shift [a.u.]:                             0.000000
                        --------------------------------------------------------
                        Outer loop SCF in use 
                        No variables optimised in outer loop
                        eps_scf                                         1.00E-07
                        max_scf                                                5
                        No outer loop optimization
                        step_size                                       5.00E-01

 Number of electrons:                                                         26
 Number of occupied orbitals:                                                 13
 Number of molecular orbitals:                                                13

 Number of orbital functions:                                                202
 Number of independent orbital functions:                                    202

 Extrapolation method: initial_guess


 SCF WAVEFUNCTION OPTIMIZATION

  ----------------------------------- OT ---------------------------------------
  Minimizer      : DIIS                : direct inversion
                                         in the iterative subspace
                                         using   7 DIIS vectors
                                         safer DIIS on
  Preconditioner : FULL_ALL            : diagonalization, state selective
  Precond_solver : DEFAULT
  stepsize       :    0.10000000                  energy_gap     :    0.08000000
  eps_taylor     :   0.10000E-15                  max_taylor     :             4
  ----------------------------------- OT ---------------------------------------

  Step     Update method      Time    Convergence         Total energy    Change
  ------------------------------------------------------------------------------
     1 OT DIIS     0.10E+00    0.8     0.19730386      -187.9589029506 -1.88E+02
     2 OT DIIS     0.10E+00    0.9     0.08763144      -191.6981857175 -3.74E+00
     3 OT DIIS     0.10E+00    0.9     0.03561323      -192.5854288514 -8.87E-01
     4 OT DIIS     0.10E+00    0.9     0.02178816      -192.8640234612 -2.79E-01
     5 OT DIIS     0.10E+00    0.9     0.01370096      -192.9774299862 -1.13E-01
     6 OT DIIS     0.10E+00    0.9     0.01075672      -193.0383446377 -6.09E-02
     7 OT DIIS     0.10E+00    0.9     0.00748185      -193.0881948497 -4.99E-02
     8 OT DIIS     0.10E+00    0.9     0.00466749      -193.1026604052 -1.45E-02
     9 OT DIIS     0.10E+00    0.9     0.00252198      -193.1141605043 -1.15E-02
    10 OT DIIS     0.10E+00    0.9     0.00210868      -193.1165852023 -2.42E-03
    11 OT DIIS     0.10E+00    0.9     0.00125574      -193.1179927448 -1.41E-03
    12 OT DIIS     0.10E+00    0.9     0.00085245      -193.1181264342 -1.34E-04
    13 OT DIIS     0.10E+00    0.9     0.00021501      -193.1182654747 -1.39E-04
    14 OT DIIS     0.10E+00    0.9     0.00009362      -193.1182854088 -1.99E-05
    15 OT DIIS     0.10E+00    0.9     0.00005235      -193.1182895842 -4.18E-06
    16 OT DIIS     0.10E+00    0.9     0.00002238      -193.1182907536 -1.17E-06
    17 OT DIIS     0.10E+00    0.9     0.00001124      -193.1182909907 -2.37E-07
    18 OT DIIS     0.10E+00    0.9     0.00000616      -193.1182910437 -5.30E-08
    19 OT DIIS     0.10E+00    0.9     0.00000328      -193.1182910619 -1.82E-08
    20 OT DIIS     0.10E+00    0.9     0.00000122      -193.1182910688 -6.94E-09

  Leaving inner SCF loop after reaching    20 steps.


  Electronic density on regular grids:        -29.4388530543       -3.4388530543
  Core density on regular grids:               26.0000000000       -0.0000000000
  Hard and soft densities (Lebedev):          -37.6361627969      -41.0750158548
  Total Rho_soft + Rho1_hard - Rho1_soft      -25.9999999964
  Total charge density (r-space):               0.0000000036
  Total Rho_soft + Rho0_soft (g-space):        -0.0000001121

  Overlap energy of the core charge distribution:               0.00000000323704
  Self energy of the core charge distribution:               -293.50024263066331
  Core Hamiltonian energy:                                     64.62085389270094
  Hartree energy:                                             378.94783266433990
  Exchange-correlation energy:                                -21.95917386160097

  GAPW| Exc from hard and soft atomic rho1:                     4.90731345518843
  GAPW| local Eh = 1 center integrals:                       -326.13487459200820

  Total energy:                                              -193.11829106880614

  outer SCF iter =    1 RMS gradient =   0.12E-05 energy =       -193.1182910688

  ----------------------------------- OT ---------------------------------------
  Minimizer      : DIIS                : direct inversion
                                         in the iterative subspace
                                         using   7 DIIS vectors
                                         safer DIIS on
  Preconditioner : FULL_ALL            : diagonalization, state selective
  Precond_solver : DEFAULT
  stepsize       :    0.10000000                  energy_gap     :    0.08000000
  eps_taylor     :   0.10000E-15                  max_taylor     :             4
  ----------------------------------- OT ---------------------------------------

  Step     Update method      Time    Convergence         Total energy    Change
  ------------------------------------------------------------------------------
     1 OT DIIS     0.10E+00    1.9     0.00000109      -193.1182910695 -6.78E-10
     2 OT DIIS     0.10E+00    0.9     0.00000064      -193.1182910697 -2.45E-10
     3 OT DIIS     0.10E+00    0.9     0.00000006      -193.1182910699 -1.34E-10

  *** SCF run converged in     3 steps ***


  Electronic density on regular grids:        -29.4388537222       -3.4388537222
  Core density on regular grids:               26.0000000000       -0.0000000000
  Hard and soft densities (Lebedev):          -37.6361799032      -41.0750336289
  Total Rho_soft + Rho1_hard - Rho1_soft      -25.9999999964
  Total charge density (r-space):               0.0000000036
  Total Rho_soft + Rho0_soft (g-space):        -0.0000001121

  Overlap energy of the core charge distribution:               0.00000000323704
  Self energy of the core charge distribution:               -293.50024263066331
  Core Hamiltonian energy:                                     64.62085307076420
  Hartree energy:                                             378.94784670652263
  Exchange-correlation energy:                                -21.95917648297157

  GAPW| Exc from hard and soft atomic rho1:                     4.90731429587786
  GAPW| local Eh = 1 center integrals:                       -326.13488603262908

  Total energy:                                              -193.11829106986221

  outer SCF iter =    2 RMS gradient =   0.56E-07 energy =       -193.1182910699
  outer SCF loop converged in   2 iterations or   23 steps


 ENERGY| Total FORCE_EVAL ( QS ) energy [a.u.]:             -193.118291069862209

 -------------------------------------------------------------------------------
 -                                                                             -
 -                                DBCSR STATISTICS                             -
 -                                                                             -
 -------------------------------------------------------------------------------
 COUNTER                                    TOTAL       BLAS       SMM       ACC
 flops    13 x    13 x    13               777738       0.0%    100.0%      0.0%
 flops    30 x    13 x    13              1186380       0.0%    100.0%      0.0%
 flops    60 x    13 x    13              2372760       0.0%    100.0%      0.0%
 flops    13 x    13 x    82              2605304       0.0%    100.0%      0.0%
 flops    30 x    82 x    13              3070080       0.0%    100.0%      0.0%
 flops    82 x    30 x    13              3070080       0.0%    100.0%      0.0%
 flops    13 x    13 x    30              3812640       0.0%    100.0%      0.0%
 flops    82 x    82 x    13              4195776       0.0%    100.0%      0.0%
 flops   112 x    13 x    13              4429152       0.0%    100.0%      0.0%
 flops    30 x    30 x    13              5616000       0.0%    100.0%      0.0%
 flops    60 x    13 x    82              6396000       0.0%    100.0%      0.0%
 flops    60 x    13 x    30              9360000       0.0%    100.0%      0.0%
 flops    82 x    13 x    82             10489440       0.0%    100.0%      0.0%
 flops   112 x    13 x    82             11939200       0.0%    100.0%      0.0%
 flops    82 x    13 x    30             15350400       0.0%    100.0%      0.0%
 flops   112 x    13 x    30             17472000       0.0%    100.0%      0.0%
 flops    30 x    13 x    82             18548400       0.0%    100.0%      0.0%
 flops    30 x    13 x    30             27144000       0.0%    100.0%      0.0%
 flops inhomo. stacks                           0       0.0%      0.0%      0.0%
 flops total                       147.835350E+06       0.0%    100.0%      0.0%
 flops max/rank                     80.525250E+06       0.0%    100.0%      0.0%
 matmuls inhomo. stacks                         0       0.0%      0.0%      0.0%
 matmuls total                               3608       0.0%    100.0%      0.0%
 number of processed stacks                  3284       0.0%    100.0%      0.0%
 average stack size                                     0.0       1.1       0.0
 marketing flops                   157.481744E+06
 -------------------------------------------------------------------------------
 # multiplications                            524
 max memory usage/rank             504.446976E+06
 # max total images/rank                        3
 # max 3D layers                                1
 # MPI messages exchanged                  503040
 MPI messages size (bytes):
  total size                       467.482688E+06
  min size                           0.000000E+00
  max size                          73.472000E+03
  average size                     929.315125E+00
 MPI breakdown and total messages size (bytes):
             size <=      128              468818                        0
       128 < size <=     8192               17643                 74630808
      8192 < size <=    32768               14159                256325152
     32768 < size <=   131072                2420                136526720
    131072 < size <=  4194304                   0                        0
   4194304 < size <= 16777216                   0                        0
  16777216 < size                               0                        0
 -------------------------------------------------------------------------------

 *** WARNING in dbcsr_mm.F:290 :: Using a non-square number of MPI ranks ***
 *** might lead to poor performance. Used ranks: 48 Suggested: 49 100    ***

 -------------------------------------------------------------------------------
 -                                                                             -
 -                      DBCSR MESSAGE PASSING PERFORMANCE                      -
 -                                                                             -
 -------------------------------------------------------------------------------
 ROUTINE             CALLS      AVE VOLUME [Bytes]
 MP_Bcast               19                     12.
 MP_Allreduce         2817                      8.
 MP_Alltoall          2074                   5088.
 MP_ISend            23334                   1325.
 MP_IRecv            23218                    774.
 -------------------------------------------------------------------------------

 -------------------------------------------------------------------------------
 -                                                                             -
 -                                GRID STATISTICS                              -
 -                                                                             -
 -------------------------------------------------------------------------------
 LP    KERNEL             BACKEND                              COUNT     PERCENT
 2     collocate ortho    REF                                  24600      12.04%
 2     integrate ortho    REF                                  23575      11.54%
 1     collocate ortho    REF                                  22608      11.07%
 1     integrate ortho    REF                                  21666      10.60%
 3     collocate ortho    REF                                  20592      10.08%
 3     integrate ortho    REF                                  19734       9.66%
 4     collocate ortho    REF                                  12120       5.93%
 4     integrate ortho    REF                                  11615       5.69%
 0     collocate ortho    REF                                  11592       5.67%
 0     integrate ortho    REF                                  11109       5.44%
 2     collocate general  REF                                   5520       2.70%
 2     integrate general  REF                                   5520       2.70%
 5     collocate ortho    REF                                   5040       2.47%
 5     integrate ortho    REF                                   4830       2.36%
 6     collocate ortho    REF                                   1824       0.89%
 6     integrate ortho    REF                                   1748       0.86%
 7     collocate ortho    REF                                    288       0.14%
 7     integrate ortho    REF                                    276       0.14%
 8     collocate ortho    REF                                     24       0.01%
 8     integrate ortho    REF                                     23       0.01%
 -------------------------------------------------------------------------------

 MEMORY| Estimated peak process memory [MiB]                                 482

 -------------------------------------------------------------------------------
 -                                                                             -
 -                         MESSAGE PASSING PERFORMANCE                         -
 -                                                                             -
 -------------------------------------------------------------------------------

 ROUTINE             CALLS      AVE VOLUME [Bytes]
 MP_Group                4
 MP_Bcast              786                 436955.
 MP_Allreduce         2151                 177976.
 MP_Sync                56
 MP_Alltoall           526                8490252.
 MP_ISendRecv         6627                 115392.
 MP_Wait             12300
 MP_comm_split          26
 MP_ISend             5208                 232194.
 MP_IRecv             5208                 232257.
 MP_Recv                12                   3232.
 -------------------------------------------------------------------------------


 -------------------------------------------------------------------------------
 -                                                                             -
 -                           R E F E R E N C E S                               -
 -                                                                             -
 -------------------------------------------------------------------------------
 
 CP2K version 10.0 (Development Version), the CP2K developers group (2022).
 CP2K is freely available from https://www.cp2k.org/ .

 Kuehne,Thomas D.; Iannuzzi,Marcella; Del Ben,Mauro;
 Rybkin,Vladimir V.; Seewald,Patrick; Stein,Frederick; Laino,Teodoro;
 Khaliullin,Rustam Z.; Schuett,Ole; Schiffmann,Florian; Golze,Dorothea;
 Wilhelm,Jan; Chulkov,Sergey; Bani-Hashemian,Mohammad Hossein;
 Weber,Valery; Borstnik,Urban; Taillefumier,Mathieu;
 Jakobovits,Alice Shoshana; Lazzaro,Alfio; Pabst,Hans; Mueller,Tiziano;
 Schade,Robert; Guidon,Manuel; Andermatt,Samuel; Holmberg,Nico;
 Schenter,Gregory K.; Hehn,Anna; Bussy,Augustin; Belleflamme,Fabian;
 Tabacchi,Gloria; Gloess,Andreas; Lass,Michael; Bethune,Iain;
 Mundy,Christopher J.; Plessl,Christian; Watkins,Matt;
 VandeVondele,Joost; Krack,Matthias; Hutter,Juerg. 
 The Journal of Chemical Physics, 152 (19), (2020). 
 CP2K: An electronic structure and molecular dynamics software package -
 Quickstep: Efficient and accurate electronic structure calculations.
 https://doi.org/10.1063/5.0007045

 Schuett, Ole; Messmer, Peter; Hutter, Juerg; VandeVondele, Joost. 
 Electronic Structure Calculations on Graphics Processing Units, John
 Wiley & Sons, Ltd, 173-190 (2016). 
 GPU-Accelerated Sparse Matrix-Matrix Multiplication for
 Linear Scaling Density Functional Theory.
 https://doi.org/10.1002/9781118670712.ch8

 Heinecke, A; Henry, G; Hutchinson, M; Pabst, H. 
 Proceedings of Intl. Supercomputing Conference, 981-991 (2016). 
 LIBXSMM: Accelerating Small Matrix Multiplications
 by Runtime Code Generation.
 https://doi.org/10.1109/SC.2016.83

 Borstnik, U; VandeVondele, J; Weber, V; Hutter, J. 
 PARALLEL COMPUTING, 40 (5-6), 47-58 (2014). 
 Sparse matrix multiplication: The distributed block-compressed sparse
 row library.
 https://doi.org/10.1016/j.parco.2014.03.012

 Hutter, J; Iannuzzi, M; Schiffmann, F; VandeVondele, J. 
 WIREs Comput Mol Sci., 4 (1), 15-25 (2014). 
 CP2K: atomistic simulations of condensed matter systems.
 https://doi.org/10.1002/wcms.1159

 Marek, A; Blum, V; Johanni, R; Havu, V; Lang, B; Auckenthaler, T;
 Heinecke, A; Bungartz, H; Lederer, H. 
 Journal of Physics: Condensed Matter, 26 (21), (2014). 
 The ELPA library: scalable parallel eigenvalue solutions for
 electronic structure
 theory and computational science.
 https://doi.org/10.1088/0953-8984/26/21/213201

 Krack, M. 
 THEORETICAL CHEMISTRY ACCOUNTS, 114 (1-3), 145-152 (2005). 
 Pseudopotentials for H to Kr optimized for gradient-corrected
 exchange-correlation functionals.
 https://doi.org/10.1007/s00214-005-0655-y

 Frigo, M; Johnson, SG. 
 PROCEEDINGS OF THE IEEE, 93 (2), 216-231 (2005). 
 The design and implementation of FFTW3.
 https://doi.org/10.1109/JPROC.2004.840301

 VandeVondele, J; Hutter, J. 
 JOURNAL OF CHEMICAL PHYSICS, 118 (10), 4365-4369 (2003). 
 An efficient orbital transformation method for electronic structure
 calculations.
 https://doi.org/10.1063/1.1543154

 Lippert, G; Hutter, J; Parrinello, M. 
 THEORETICAL CHEMISTRY ACCOUNTS, 103 (2), 124-140 (1999). 
 The Gaussian and augmented-plane-wave density functional method for ab
 initio molecular dynamics simulations.
 https://doi.org/10.1007/s002140050523

 Krack, M; Parrinello, M. 
 PHYSICAL CHEMISTRY CHEMICAL PHYSICS, 2 (10), 2105-2112 (2000). 
 All-electron ab-initio molecular dynamics.
 https://doi.org/10.1039/b001167n

 Hartwigsen, C; Goedecker, S; Hutter, J. 
 PHYSICAL REVIEW B, 58 (7), 3641-3662 (1998). 
 Relativistic separable dual-space Gaussian pseudopotentials from H to Rn.
 https://doi.org/10.1103/PhysRevB.58.3641

 Perdew, JP; Burke, K; Ernzerhof, M. 
 PHYSICAL REVIEW LETTERS, 77 (18), 3865-3868 (1996). 
 Generalized gradient approximation made simple.
 https://doi.org/10.1103/PhysRevLett.77.3865

 Goedecker, S; Teter, M; Hutter, J. 
 PHYSICAL REVIEW B, 54 (3), 1703-1710 (1996). 
 Separable dual-space Gaussian pseudopotentials.
 https://doi.org/10.1103/PhysRevB.54.1703


 -------------------------------------------------------------------------------
 -                                                                             -
 -                                T I M I N G                                  -
 -                                                                             -
 -------------------------------------------------------------------------------
 SUBROUTINE                       CALLS  ASD         SELF TIME        TOTAL TIME
                                MAXIMUM       AVERAGE  MAXIMUM  AVERAGE  MAXIMUM
 CP2K                                 1  1.0    0.009    0.034   22.102   22.104
 qs_energies                          1  2.0    0.000    0.000   21.820   21.821
 scf_env_do_scf                       1  3.0    0.000    0.000   21.308   21.309
 scf_env_do_scf_inner_loop           23  4.0    0.000    0.001   19.729   19.730
 qs_ks_update_qs_env                 25  5.0    0.000    0.000   17.524   17.526
 rebuild_ks_matrix                   23  6.0    0.000    0.000   17.523   17.524
 qs_ks_build_kohn_sham_matrix        23  7.0    0.005    0.006   17.522   17.524
 pw_transfer                        488 10.1    0.054    0.068    5.071    5.472
 fft_wrap_pw1pw2                    419 11.3    0.006    0.007    4.965    5.375
 rs_pw_transfer                     234  9.5    0.006    0.008    4.914    5.118
 fft_wrap_pw1pw2_300                278 12.6    0.321    0.379    4.630    5.031
 prepare_gapw_den                    23  8.0    0.001    0.001    4.877    4.893
 fft3d_ps                           419 13.3    1.899    2.237    3.906    4.364
 qs_vxc_create                       23  8.0    0.001    0.001    4.251    4.251
 xc_vxc_pw_create                    23  9.0    0.026    0.030    4.250    4.251
 qs_rho_update_rho                   24  5.0    0.000    0.001    3.256    3.257
 xc_pw_derive                       138 11.0    0.002    0.002    2.724    3.210
 calculate_rho_elec                  24  6.0    0.013    0.014    3.096    3.097
 calculate_rho0_atom                 46  9.0    2.739    2.854    2.739    2.854
 mp_sum_d                          1171  6.9    2.587    2.782    2.587    2.782
 sum_up_and_integrate                23  8.0    0.011    0.013    2.773    2.780
 integrate_v_rspace                  23  9.0    0.001    0.001    2.762    2.767
 integrate_vhg0_rspace               23  8.0    0.239    0.447    2.555    2.557
 density_rs2pw                       24  7.0    0.001    0.002    2.359    2.541
 mp_alltoall_z22v                   419 15.3    1.573    2.453    1.573    2.453
 xc_pw_divergence                    23 10.0    0.001    0.001    1.927    2.408
 xc_rho_set_and_dset_create          23 10.0    0.030    0.035    2.184    2.398
 potential_pw2rs                     23 10.0    0.002    0.002    2.224    2.228
 calculate_rho_atom                  46  9.0    0.609    2.199    0.609    2.199
 rs_pw_transfer_PW2RS_300            46 11.0    1.169    1.228    1.872    1.965
 rs_pw_transfer_RS2PW_300            47 10.0    1.162    1.265    1.746    1.921
 calculate_vxc_atom                  23  8.0    0.014    0.094    1.858    1.859
 yz_to_x                            187 14.1    0.183    0.241    1.146    1.844
 gaVxcgb_GC                          23  9.0    0.046    1.717    0.046    1.717
 init_scf_loop                        2  4.0    0.000    0.000    1.578    1.578
 mp_sum_dm                          355  7.6    1.410    1.471    1.410    1.471
 put_rho0_on_grid                    23  9.0    0.015    0.020    1.414    1.429
 mp_waitany                        5208 11.5    0.980    1.216    0.980    1.216
 xc_functional_eval                  69 10.8    0.000    0.001    0.890    1.111
 pbe_lda_eval                        69 11.8    0.889    1.111    0.889    1.111
 mp_waitall_1                     49012 13.8    0.907    1.014    0.907    1.014
 grid_collocate_task_list            24  7.0    0.602    0.958    0.602    0.958
 x_to_yz                            185 14.6    0.216    0.242    0.822    0.911
 mp_sum_dv                          814 13.0    0.119    0.800    0.119    0.800
 rs_pw_transfer_PW2RS_100            23 12.0    0.129    0.158    0.582    0.609
 qs_scf_new_mos                      23  5.0    0.000    0.000    0.580    0.581
 qs_scf_loop_do_ot                   23  6.0    0.000    0.000    0.580    0.581
 dbcsr_multiply_generic             524 10.1    0.015    0.016    0.568    0.577
 ot_scf_mini                         23  7.0    0.000    0.000    0.556    0.557
 mp_alltoall_d11v                   527 11.7    0.418    0.557    0.418    0.557
 Vh_1c_gg_integrals                  23  8.0    0.018    0.509    0.514    0.551
 rs_gather_matrices                  23 10.0    0.000    0.006    0.397    0.536
 grid_integrate_task_list            23 10.0    0.140    0.535    0.140    0.535
 -------------------------------------------------------------------------------

 The number of warnings for this run is : 1
 
 -------------------------------------------------------------------------------
  **** **** ******  **  PROGRAM ENDED AT                 2022-06-07 18:19:27.865
 ***** ** ***  *** **   PROGRAM RAN ON                                   tcopt10
 **    ****   ******    PROGRAM RAN BY                                    hutter
 ***** **    ** ** **   PROGRAM PROCESS ID                                 86954
  **** **  *******  **  PROGRAM STOPPED IN /data/hutter/GITHUB/BASIS/scMOLOPT/PB
                                           E/Pb
