 DBCSR| CPU Multiplication driver                                           XSMM
 DBCSR| Multrec recursion limit                                              512
 DBCSR| Multiplication stack size                                           1000
 DBCSR| Maximum elements for images                                    UNLIMITED
 DBCSR| Multiplicative factor virtual images                                   1
 DBCSR| Use multiplication densification                                       T
 DBCSR| Multiplication size stacks                                             3
 DBCSR| Use memory pool for CPU allocation                                     F
 DBCSR| Number of 3D layers                                               SINGLE
 DBCSR| Use MPI memory allocation                                              F
 DBCSR| Use RMA algorithm                                                      F
 DBCSR| Use Communication thread                                               T
 DBCSR| Communication thread load                                             87
 DBCSR| MPI: My node id                                                        0
 DBCSR| MPI: Number of nodes                                                  48
 DBCSR| OMP: Current number of threads                                         1
 DBCSR| OMP: Max number of threads                                             1
 DBCSR| Split modifier for TAS multiplication algorithm                  1.0E+00


  **** **** ******  **  PROGRAM STARTED AT               2022-06-07 17:41:32.583
 ***** ** ***  *** **   PROGRAM STARTED ON                               tcopt10
 **    ****   ******    PROGRAM STARTED BY                                hutter
 ***** **    ** ** **   PROGRAM PROCESS ID                                 82030
  **** **  *******  **  PROGRAM STARTED IN /data/hutter/GITHUB/BASIS/scMOLOPT/PB
                                           E/Hg

 CP2K| version string:                   CP2K version 10.0 (Development Version)
 CP2K| source code revision number:                                  git:d19b00a
 CP2K| cp2kflags: omp libint fftw3 libxc elpa parallel mpi3 scalapack cosma xsmm
 CP2K|             spglib sirius libvori libbqb
 CP2K| is freely available from                            https://www.cp2k.org/
 CP2K| Program compiled at                      Wed 18 May 2022 12:15:59 PM CEST
 CP2K| Program compiled on                                               tcopt10
 CP2K| Program compiled for                                                local
 CP2K| Data directory path                   /data/hutter/GITHUB/TDLRI/cp2k/data
 CP2K| Input file name                                            Hg2Cl2-ref.inp

 GLOBAL| Force Environment number                                              1
 GLOBAL| Basis set file name                                        ../def2QZVPP
 GLOBAL| Potential file name                                        ../POTENTIAL
 GLOBAL| MM Potential file name                                     MM_POTENTIAL
 GLOBAL| Coordinate file name                                      __STD_INPUT__
 GLOBAL| Method name                                                        CP2K
 GLOBAL| Project name                                                  refHg2Cl2
 GLOBAL| Run type                                                         ENERGY
 GLOBAL| FFT library                                                       FFTW3
 GLOBAL| Diagonalization library                                            ELPA
 GLOBAL| Minimum number of eigenvectors for ELPA usage                        16
 GLOBAL| Orthonormality check for eigenvectors                          DISABLED
 GLOBAL| Matrix multiplication library                                     COSMA
 GLOBAL| All-to-all communication in single precision                          F
 GLOBAL| FFTs using library dependent lengths                                  F
 GLOBAL| Grid backend                                                       AUTO
 GLOBAL| Global print level                                                  LOW
 GLOBAL| MPI I/O enabled                                                       T
 GLOBAL| Total number of message passing processes                            48
 GLOBAL| Number of threads for this process                                    1
 GLOBAL| This output is from process                                           0
 GLOBAL| Stack size for threads created by OpenMP (OMP_STACKSIZE)        default
 GLOBAL| CPU model name                          AMD EPYC 7401 24-Core Processor
 GLOBAL| CPUID                                                              1002

 MEMORY| system memory details [Kb]
 MEMORY|                        rank 0           min           max       average
 MEMORY| MemTotal            263969132     263969132     263969132     263969132
 MEMORY| MemFree             236069964     236069964     236069964     236069964
 MEMORY| Buffers                  2836          2836          2836          2836
 MEMORY| Cached               20349592      20349592      20349592      20349592
 MEMORY| Slab                  1477592       1477592       1477592       1477592
 MEMORY| SReclaimable           874420        874420        874420        874420
 MEMORY| MemLikelyFree       257296812     257296812     257296812     257296812


 GENERATE|  Preliminary Number of Bonds generated:                             0
 GENERATE|  Achieved consistency in connectivity generation.

 *******************************************************************************
 *******************************************************************************
 **                                                                           **
 **     #####                         ##              ##                      **
 **    ##   ##            ##          ##              ##                      **
 **   ##     ##                       ##            ######                    **
 **   ##     ##  ##   ##  ##   #####  ##  ##   ####   ##    #####    #####    **
 **   ##     ##  ##   ##  ##  ##      ## ##   ##      ##   ##   ##  ##   ##   **
 **   ##  ## ##  ##   ##  ##  ##      ####     ###    ##   ######   ######    **
 **    ##  ###   ##   ##  ##  ##      ## ##      ##   ##   ##       ##        **
 **     #######   #####   ##   #####  ##  ##  ####    ##    #####   ##        **
 **           ##                                                    ##        **
 **                                                                           **
 **                                                ... make the atoms dance   **
 **                                                                           **
 **            Copyright (C) by CP2K developers group (2000-2022)             **
 **                      J. Chem. Phys. 152, 194103 (2020)                    **
 **                                                                           **
 *******************************************************************************


 TOTAL NUMBERS AND MAXIMUM NUMBERS

  Total number of            - Atomic kinds:                                   2
                             - Atoms:                                          4
                             - Shell sets:                                    88
                             - Shells:                                        88
                             - Primitive Cartesian functions:                142
                             - Cartesian basis functions:                    404
                             - Spherical basis functions:                    316

  Maximum angular momentum of- Orbital basis functions:                        4
                             - Local part of the GTH pseudopotential:          2
                             - Non-local part of the GTH pseudopotential:      5


 SCF PARAMETERS         Density guess:                                    ATOMIC
                        --------------------------------------------------------
                        max_scf:                                              20
                        max_scf_history:                                       0
                        max_diis:                                              4
                        --------------------------------------------------------
                        eps_scf:                                        1.00E-07
                        eps_scf_history:                                0.00E+00
                        eps_diis:                                       1.00E-01
                        eps_eigval:                                     1.00E-05
                        --------------------------------------------------------
                        level_shift [a.u.]:                             0.000000
                        --------------------------------------------------------
                        Outer loop SCF in use 
                        No variables optimised in outer loop
                        eps_scf                                         1.00E-07
                        max_scf                                                5
                        No outer loop optimization
                        step_size                                       5.00E-01

 Number of electrons:                                                         74
 Number of occupied orbitals:                                                 37
 Number of molecular orbitals:                                                37

 Number of orbital functions:                                                316
 Number of independent orbital functions:                                    316

 Extrapolation method: initial_guess


 SCF WAVEFUNCTION OPTIMIZATION

  ----------------------------------- OT ---------------------------------------
  Minimizer      : DIIS                : direct inversion
                                         in the iterative subspace
                                         using   7 DIIS vectors
                                         safer DIIS on
  Preconditioner : FULL_ALL            : diagonalization, state selective
  Precond_solver : DEFAULT
  stepsize       :    0.10000000                  energy_gap     :    0.08000000
  eps_taylor     :   0.10000E-15                  max_taylor     :             4
  ----------------------------------- OT ---------------------------------------

  Step     Update method      Time    Convergence         Total energy    Change
  ------------------------------------------------------------------------------
     1 OT DIIS     0.10E+00    0.9     0.11300347     -1205.5938194266 -1.21E+03
     2 OT DIIS     0.10E+00    1.0     0.06954436     -1217.7092652681 -1.21E+01
     3 OT DIIS     0.10E+00    1.0     0.01523248     -1223.4240477710 -5.71E+00
     4 OT DIIS     0.10E+00    1.0     0.01007051     -1223.6280148001 -2.04E-01
     5 OT DIIS     0.10E+00    1.0     0.00580746     -1223.8949203829 -2.67E-01
     6 OT DIIS     0.10E+00    1.0     0.00401312     -1223.9830036974 -8.81E-02
     7 OT DIIS     0.10E+00    1.0     0.00336383     -1224.0152563533 -3.23E-02
     8 OT DIIS     0.10E+00    1.0     0.00292028     -1224.0759500245 -6.07E-02
     9 OT DIIS     0.10E+00    1.0     0.00263853     -1224.0908436253 -1.49E-02
    10 OT DIIS     0.10E+00    1.0     0.00327602     -1224.1260685849 -3.52E-02
    11 OT DIIS     0.10E+00    1.0     0.00298287     -1224.1434022938 -1.73E-02
    12 OT DIIS     0.10E+00    1.0     0.00153340     -1224.2142200545 -7.08E-02
    13 OT DIIS     0.10E+00    1.0     0.00138905     -1224.2340847206 -1.99E-02
    14 OT DIIS     0.10E+00    1.0     0.00131859     -1224.2472033967 -1.31E-02
    15 OT SD       0.10E+00    1.0     0.00155649     -1224.2558724307 -8.67E-03
    16 OT SD       0.10E+00    1.0     0.00114145     -1224.2582381693 -2.37E-03
    17 OT DIIS     0.10E+00    1.0     0.00105099     -1224.2596820924 -1.44E-03
    18 OT DIIS     0.10E+00    1.0     0.00116239     -1224.2946865193 -3.50E-02
    19 OT DIIS     0.10E+00    1.0     0.00074755     -1224.2972922641 -2.61E-03
    20 OT SD       0.10E+00    1.0     0.00061356     -1224.3055629464 -8.27E-03

  Leaving inner SCF loop after reaching    20 steps.


  Electronic density on regular grids:        -61.4417430998       12.5582569002
  Core density on regular grids:               74.0000000000        0.0000000000
  Hard and soft densities (Lebedev):          -84.3412863518      -71.7830293651
  Total Rho_soft + Rho1_hard - Rho1_soft      -74.0000000864
  Total charge density (r-space):              -0.0000000864
  Total Rho_soft + Rho0_soft (g-space):        -0.0000009879

  Overlap energy of the core charge distribution:               0.00000000049384
  Self energy of the core charge distribution:               -855.91477227543680
  Core Hamiltonian energy:                                   -432.12729487264426
  Hartree energy:                                             481.08425288406409
  Exchange-correlation energy:                                -41.20176036700904

  GAPW| Exc from hard and soft atomic rho1:                   -42.20453755389612
  GAPW| local Eh = 1 center integrals:                       -333.94145076197435

  Total energy:                                             -1224.30556294640269

  outer SCF iter =    1 RMS gradient =   0.61E-03 energy =      -1224.3055629464

  ----------------------------------- OT ---------------------------------------
  Minimizer      : DIIS                : direct inversion
                                         in the iterative subspace
                                         using   7 DIIS vectors
                                         safer DIIS on
  Preconditioner : FULL_ALL            : diagonalization, state selective
  Precond_solver : DEFAULT
  stepsize       :    0.10000000                  energy_gap     :    0.08000000
  eps_taylor     :   0.10000E-15                  max_taylor     :             4
  ----------------------------------- OT ---------------------------------------

  Step     Update method      Time    Convergence         Total energy    Change
  ------------------------------------------------------------------------------
     1 OT DIIS     0.10E+00    2.0     0.00374214     -1224.3059736690 -4.11E-04
     2 OT DIIS     0.10E+00    1.0     0.00205496     -1224.3186282226 -1.27E-02
     3 OT DIIS     0.10E+00    1.0     0.00061518     -1224.3237769960 -5.15E-03
     4 OT DIIS     0.10E+00    1.0     0.00018844     -1224.3239460879 -1.69E-04
     5 OT DIIS     0.10E+00    1.0     0.00006808     -1224.3239861233 -4.00E-05
     6 OT DIIS     0.10E+00    1.0     0.00001057     -1224.3239911832 -5.06E-06
     7 OT DIIS     0.10E+00    1.0     0.00000591     -1224.3239912792 -9.60E-08
     8 OT DIIS     0.10E+00    1.0     0.00000162     -1224.3239912996 -2.04E-08
     9 OT DIIS     0.10E+00    1.0     0.00000033     -1224.3239913028 -3.18E-09
    10 OT DIIS     0.10E+00    1.0     0.00000009     -1224.3239913027  1.04E-10

  *** SCF run converged in    10 steps ***


  Electronic density on regular grids:        -61.4409518047       12.5590481953
  Core density on regular grids:               74.0000000000        0.0000000000
  Hard and soft densities (Lebedev):          -84.2101704244      -71.6511222280
  Total Rho_soft + Rho1_hard - Rho1_soft      -74.0000000010
  Total charge density (r-space):              -0.0000000010
  Total Rho_soft + Rho0_soft (g-space):        -0.0000009025

  Overlap energy of the core charge distribution:               0.00000000049384
  Self energy of the core charge distribution:               -855.91477227543680
  Core Hamiltonian energy:                                   -432.14295021917604
  Hartree energy:                                             481.08903272067585
  Exchange-correlation energy:                                -41.20201905988112

  GAPW| Exc from hard and soft atomic rho1:                   -42.20516935731496
  GAPW| local Eh = 1 center integrals:                       -333.94811311206286

  Total energy:                                             -1224.32399130270232

  outer SCF iter =    2 RMS gradient =   0.91E-07 energy =      -1224.3239913027
  outer SCF loop converged in   2 iterations or   30 steps


 ENERGY| Total FORCE_EVAL ( QS ) energy [a.u.]:            -1224.323991302702325

 -------------------------------------------------------------------------------
 -                                                                             -
 -                                DBCSR STATISTICS                             -
 -                                                                             -
 -------------------------------------------------------------------------------
 COUNTER                                    TOTAL       BLAS       SMM       ACC
 flops    88 x     5 x     5                17600       0.0%    100.0%      0.0%
 flops     5 x     5 x     5                66250       0.0%    100.0%      0.0%
 flops     5 x     5 x    32               424000       0.0%    100.0%      0.0%
 flops     5 x    32 x     5               424000       0.0%    100.0%      0.0%
 flops    32 x     5 x     5               424000       0.0%    100.0%      0.0%
 flops    88 x    32 x    32               720896       0.0%    100.0%      0.0%
 flops     5 x     5 x    70               854000       0.0%    100.0%      0.0%
 flops    70 x     5 x     5              1064000       0.0%    100.0%      0.0%
 flops     5 x     5 x    88              1073600       0.0%    100.0%      0.0%
 flops   176 x     5 x     5              1320000       0.0%    100.0%      0.0%
 flops    32 x    32 x     5              2713600       0.0%    100.0%      0.0%
 flops     5 x    32 x    32              2713600       0.0%    100.0%      0.0%
 flops    32 x     5 x    32              2713600       0.0%    100.0%      0.0%
 flops    70 x    88 x     5              3819200       0.0%    100.0%      0.0%
 flops    88 x    70 x     5              3819200       0.0%    100.0%      0.0%
 flops    70 x    70 x     5              4557000       0.0%    100.0%      0.0%
 flops     5 x    32 x    70              5465600       0.0%    100.0%      0.0%
 flops    32 x     5 x    70              5465600       0.0%    100.0%      0.0%
 flops    70 x     5 x    32              6720000       0.0%    100.0%      0.0%
 flops    70 x    32 x     5              6720000       0.0%    100.0%      0.0%
 flops     5 x    32 x    88              6871040       0.0%    100.0%      0.0%
 flops    32 x     5 x    88              6871040       0.0%    100.0%      0.0%
 flops    88 x    88 x     5              7201920       0.0%    100.0%      0.0%
 flops   176 x    32 x     5              8448000       0.0%    100.0%      0.0%
 flops   176 x     5 x    32              8448000       0.0%    100.0%      0.0%
 flops   176 x     5 x    70             15769600       0.0%    100.0%      0.0%
 flops    32 x    32 x    32             17367040       0.0%    100.0%      0.0%
 flops    88 x     5 x    70             18233600       0.0%    100.0%      0.0%
 flops   176 x     5 x    88             19824640       0.0%    100.0%      0.0%
 flops    88 x     5 x    88             22922240       0.0%    100.0%      0.0%
 flops    70 x    88 x    32             24442880       0.0%    100.0%      0.0%
 flops    88 x    70 x    32             24442880       0.0%    100.0%      0.0%
 flops    70 x     5 x    70             27048000       0.0%    100.0%      0.0%
 flops    70 x    70 x    32             29164800       0.0%    100.0%      0.0%
 flops    70 x     5 x    88             34003200       0.0%    100.0%      0.0%
 flops    32 x    32 x    70             34979840       0.0%    100.0%      0.0%
 flops    70 x    32 x    32             43581440       0.0%    100.0%      0.0%
 flops    32 x    32 x    88             43974656       0.0%    100.0%      0.0%
 flops    88 x    88 x    32             46092288       0.0%    100.0%      0.0%
 flops   176 x    32 x    32             54067200       0.0%    100.0%      0.0%
 flops   176 x    32 x    70            100925440       0.0%    100.0%      0.0%
 flops    88 x    32 x    70            116695040       0.0%    100.0%      0.0%
 flops   176 x    32 x    88            126877696       0.0%    100.0%      0.0%
 flops    88 x    32 x    88            146702336       0.0%    100.0%      0.0%
 flops    70 x    32 x    70            173107200       0.0%    100.0%      0.0%
 flops    70 x    32 x    88            217620480       0.0%    100.0%      0.0%
 flops inhomo. stacks                           0       0.0%      0.0%      0.0%
 flops total                         1.426778E+09       0.0%    100.0%      0.0%
 flops max/rank                    671.236480E+06       0.0%    100.0%      0.0%
 matmuls inhomo. stacks                         0       0.0%      0.0%      0.0%
 matmuls total                              10412       0.0%    100.0%      0.0%
 number of processed stacks                  9754       0.0%    100.0%      0.0%
 average stack size                                     0.0       1.1       0.0
 marketing flops                     1.514443E+09
 -------------------------------------------------------------------------------
 # multiplications                            710
 max memory usage/rank             421.040128E+06
 # max total images/rank                        3
 # max 3D layers                                1
 # MPI messages exchanged                  681600
 MPI messages size (bytes):
  total size                         1.653732E+09
  min size                           0.000000E+00
  max size                         123.904000E+03
  average size                       2.426250E+03
 MPI breakdown and total messages size (bytes):
             size <=      128              616934                        0
       128 < size <=     8192               31551                 99052592
      8192 < size <=    32768               12886                251330560
     32768 < size <=   131072               20229               1303348992
    131072 < size <=  4194304                   0                        0
   4194304 < size <= 16777216                   0                        0
  16777216 < size                               0                        0
 -------------------------------------------------------------------------------

 *** WARNING in dbcsr_mm.F:290 :: Using a non-square number of MPI ranks ***
 *** might lead to poor performance. Used ranks: 48 Suggested: 49 100    ***

 -------------------------------------------------------------------------------
 -                                                                             -
 -                      DBCSR MESSAGE PASSING PERFORMANCE                      -
 -                                                                             -
 -------------------------------------------------------------------------------
 ROUTINE             CALLS      AVE VOLUME [Bytes]
 MP_Bcast               47                     12.
 MP_Allreduce         3860                      8.
 MP_Alltoall          2659                   6991.
 MP_ISend            31602                   3955.
 MP_IRecv            31528                   2537.
 -------------------------------------------------------------------------------

 -------------------------------------------------------------------------------
 -                                                                             -
 -                                GRID STATISTICS                              -
 -                                                                             -
 -------------------------------------------------------------------------------
 LP    KERNEL             BACKEND                              COUNT     PERCENT
 2     collocate ortho    REF                                  40672      10.60%
 3     collocate ortho    REF                                  39990      10.42%
 2     integrate ortho    REF                                  39360      10.26%
 3     integrate ortho    REF                                  38700      10.09%
 1     collocate ortho    REF                                  35774       9.32%
 1     integrate ortho    REF                                  34620       9.02%
 4     collocate ortho    REF                                  31465       8.20%
 4     integrate ortho    REF                                  30450       7.94%
 5     collocate ortho    REF                                  16740       4.36%
 5     integrate ortho    REF                                  16200       4.22%
 0     collocate ortho    REF                                  13392       3.49%
 0     integrate ortho    REF                                  12960       3.38%
 6     collocate ortho    REF                                   7533       1.96%
 6     integrate ortho    REF                                   7290       1.90%
 2     collocate general  REF                                   5760       1.50%
 2     integrate general  REF                                   5760       1.50%
 7     collocate ortho    REF                                   2914       0.76%
 7     integrate ortho    REF                                   2820       0.73%
 8     collocate ortho    REF                                    651       0.17%
 8     integrate ortho    REF                                    630       0.16%
 -------------------------------------------------------------------------------

 MEMORY| Estimated peak process memory [MiB]                                 402

 -------------------------------------------------------------------------------
 -                                                                             -
 -                         MESSAGE PASSING PERFORMANCE                         -
 -                                                                             -
 -------------------------------------------------------------------------------

 ROUTINE             CALLS      AVE VOLUME [Bytes]
 MP_Group                4
 MP_Bcast              814                 438764.
 MP_Allreduce         2184                 258024.
 MP_Sync                74
 MP_Alltoall           680                5952158.
 MP_ISendRecv         8601                 115392.
 MP_Wait             15982
 MP_comm_split          35
 MP_ISend             6776                 242076.
 MP_IRecv             6776                 242124.
 MP_Recv                18                  10112.
 -------------------------------------------------------------------------------


 -------------------------------------------------------------------------------
 -                                                                             -
 -                           R E F E R E N C E S                               -
 -                                                                             -
 -------------------------------------------------------------------------------
 
 CP2K version 10.0 (Development Version), the CP2K developers group (2022).
 CP2K is freely available from https://www.cp2k.org/ .

 Kuehne,Thomas D.; Iannuzzi,Marcella; Del Ben,Mauro;
 Rybkin,Vladimir V.; Seewald,Patrick; Stein,Frederick; Laino,Teodoro;
 Khaliullin,Rustam Z.; Schuett,Ole; Schiffmann,Florian; Golze,Dorothea;
 Wilhelm,Jan; Chulkov,Sergey; Bani-Hashemian,Mohammad Hossein;
 Weber,Valery; Borstnik,Urban; Taillefumier,Mathieu;
 Jakobovits,Alice Shoshana; Lazzaro,Alfio; Pabst,Hans; Mueller,Tiziano;
 Schade,Robert; Guidon,Manuel; Andermatt,Samuel; Holmberg,Nico;
 Schenter,Gregory K.; Hehn,Anna; Bussy,Augustin; Belleflamme,Fabian;
 Tabacchi,Gloria; Gloess,Andreas; Lass,Michael; Bethune,Iain;
 Mundy,Christopher J.; Plessl,Christian; Watkins,Matt;
 VandeVondele,Joost; Krack,Matthias; Hutter,Juerg. 
 The Journal of Chemical Physics, 152 (19), (2020). 
 CP2K: An electronic structure and molecular dynamics software package -
 Quickstep: Efficient and accurate electronic structure calculations.
 https://doi.org/10.1063/5.0007045

 Schuett, Ole; Messmer, Peter; Hutter, Juerg; VandeVondele, Joost. 
 Electronic Structure Calculations on Graphics Processing Units, John
 Wiley & Sons, Ltd, 173-190 (2016). 
 GPU-Accelerated Sparse Matrix-Matrix Multiplication for
 Linear Scaling Density Functional Theory.
 https://doi.org/10.1002/9781118670712.ch8

 Heinecke, A; Henry, G; Hutchinson, M; Pabst, H. 
 Proceedings of Intl. Supercomputing Conference, 981-991 (2016). 
 LIBXSMM: Accelerating Small Matrix Multiplications
 by Runtime Code Generation.
 https://doi.org/10.1109/SC.2016.83

 Borstnik, U; VandeVondele, J; Weber, V; Hutter, J. 
 PARALLEL COMPUTING, 40 (5-6), 47-58 (2014). 
 Sparse matrix multiplication: The distributed block-compressed sparse
 row library.
 https://doi.org/10.1016/j.parco.2014.03.012

 Hutter, J; Iannuzzi, M; Schiffmann, F; VandeVondele, J. 
 WIREs Comput Mol Sci., 4 (1), 15-25 (2014). 
 CP2K: atomistic simulations of condensed matter systems.
 https://doi.org/10.1002/wcms.1159

 Marek, A; Blum, V; Johanni, R; Havu, V; Lang, B; Auckenthaler, T;
 Heinecke, A; Bungartz, H; Lederer, H. 
 Journal of Physics: Condensed Matter, 26 (21), (2014). 
 The ELPA library: scalable parallel eigenvalue solutions for
 electronic structure
 theory and computational science.
 https://doi.org/10.1088/0953-8984/26/21/213201

 Krack, M. 
 THEORETICAL CHEMISTRY ACCOUNTS, 114 (1-3), 145-152 (2005). 
 Pseudopotentials for H to Kr optimized for gradient-corrected
 exchange-correlation functionals.
 https://doi.org/10.1007/s00214-005-0655-y

 Frigo, M; Johnson, SG. 
 PROCEEDINGS OF THE IEEE, 93 (2), 216-231 (2005). 
 The design and implementation of FFTW3.
 https://doi.org/10.1109/JPROC.2004.840301

 VandeVondele, J; Hutter, J. 
 JOURNAL OF CHEMICAL PHYSICS, 118 (10), 4365-4369 (2003). 
 An efficient orbital transformation method for electronic structure
 calculations.
 https://doi.org/10.1063/1.1543154

 Lippert, G; Hutter, J; Parrinello, M. 
 THEORETICAL CHEMISTRY ACCOUNTS, 103 (2), 124-140 (1999). 
 The Gaussian and augmented-plane-wave density functional method for ab
 initio molecular dynamics simulations.
 https://doi.org/10.1007/s002140050523

 Krack, M; Parrinello, M. 
 PHYSICAL CHEMISTRY CHEMICAL PHYSICS, 2 (10), 2105-2112 (2000). 
 All-electron ab-initio molecular dynamics.
 https://doi.org/10.1039/b001167n

 Hartwigsen, C; Goedecker, S; Hutter, J. 
 PHYSICAL REVIEW B, 58 (7), 3641-3662 (1998). 
 Relativistic separable dual-space Gaussian pseudopotentials from H to Rn.
 https://doi.org/10.1103/PhysRevB.58.3641

 Perdew, JP; Burke, K; Ernzerhof, M. 
 PHYSICAL REVIEW LETTERS, 77 (18), 3865-3868 (1996). 
 Generalized gradient approximation made simple.
 https://doi.org/10.1103/PhysRevLett.77.3865

 Goedecker, S; Teter, M; Hutter, J. 
 PHYSICAL REVIEW B, 54 (3), 1703-1710 (1996). 
 Separable dual-space Gaussian pseudopotentials.
 https://doi.org/10.1103/PhysRevB.54.1703


 -------------------------------------------------------------------------------
 -                                                                             -
 -                                T I M I N G                                  -
 -                                                                             -
 -------------------------------------------------------------------------------
 SUBROUTINE                       CALLS  ASD         SELF TIME        TOTAL TIME
                                MAXIMUM       AVERAGE  MAXIMUM  AVERAGE  MAXIMUM
 CP2K                                 1  1.0    0.007    0.031   31.403   31.404
 qs_energies                          1  2.0    0.000    0.000   31.130   31.130
 scf_env_do_scf                       1  3.0    0.000    0.000   30.417   30.418
 scf_env_do_scf_inner_loop           30  4.0    0.001    0.002   28.648   28.648
 qs_ks_update_qs_env                 32  5.0    0.000    0.000   25.068   25.078
 rebuild_ks_matrix                   30  6.0    0.000    0.000   25.061   25.070
 qs_ks_build_kohn_sham_matrix        30  7.0    0.006    0.008   25.061   25.070
 prepare_gapw_den                    30  8.0    0.001    0.002    7.697    7.733
 pw_transfer                        635 10.1    0.070    0.088    6.518    6.982
 fft_wrap_pw1pw2                    545 11.3    0.008    0.009    6.381    6.854
 rs_pw_transfer                     304  9.5    0.008    0.010    6.600    6.763
 fft_wrap_pw1pw2_300                362 12.7    0.425    0.494    5.953    6.435
 qs_vxc_create                       30  8.0    0.001    0.001    5.579    5.581
 xc_vxc_pw_create                    30  9.0    0.036    0.045    5.578    5.580
 fft3d_ps                           545 13.3    2.470    2.876    4.997    5.522
 mp_sum_d                          1307  7.2    4.224    4.580    4.224    4.580
 qs_rho_update_rho                   31  5.0    0.001    0.001    4.409    4.414
 calculate_rho0_atom                 60  9.0    3.994    4.270    3.994    4.270
 calculate_rho_elec                  31  6.0    0.017    0.018    4.137    4.138
 xc_pw_derive                       180 11.0    0.002    0.002    3.469    4.048
 integrate_vhg0_rspace               30  8.0    0.451    0.742    3.379    3.452
 calculate_rho_atom                  60  9.0    1.049    3.361    1.049    3.361
 sum_up_and_integrate                30  8.0    0.015    0.018    3.314    3.320
 integrate_v_rspace                  30  9.0    0.001    0.001    3.299    3.304
 calculate_vxc_atom                  30  8.0    0.019    0.236    3.295    3.295
 density_rs2pw                       31  7.0    0.002    0.002    3.096    3.211
 xc_rho_set_and_dset_create          30 10.0    0.042    0.049    2.921    3.142
 xc_pw_divergence                    30 10.0    0.001    0.001    2.470    3.035
 mp_alltoall_z22v                   545 15.3    1.964    2.973    1.964    2.973
 potential_pw2rs                     30 10.0    0.002    0.003    2.949    2.954
 gaVxcgb_GC                          60  9.0    0.123    2.942    0.123    2.942
 rs_pw_transfer_PW2RS_300            60 11.0    1.586    1.668    2.529    2.626
 rs_pw_transfer_RS2PW_300            61 10.0    1.608    1.767    2.379    2.528
 mp_sum_dv                          738 12.9    0.743    2.429    0.743    2.429
 yz_to_x                            243 14.1    0.239    0.312    1.453    2.263
 put_rho0_on_grid                    30  9.0    0.020    0.024    1.914    1.950
 mp_sum_dm                          368  7.7    1.732    1.868    1.732    1.868
 init_scf_loop                        2  4.0    0.000    0.000    1.768    1.768
 xc_functional_eval                 150 10.9    0.000    0.001    1.266    1.539
 pbe_lda_eval                       150 11.9    1.266    1.538    1.266    1.538
 mp_waitany                        6776 11.5    1.295    1.535    1.295    1.535
 mp_waitall_1                     66006 13.9    1.235    1.396    1.235    1.396
 x_to_yz                            241 14.6    0.280    0.315    1.025    1.137
 dbcsr_multiply_generic             710 10.1    0.021    0.021    0.969    0.999
 grid_collocate_task_list            31  7.0    0.871    0.950    0.871    0.950
 qs_scf_new_mos                      30  5.0    0.000    0.000    0.939    0.946
 qs_scf_loop_do_ot                   30  6.0    0.000    0.000    0.939    0.946
 ot_scf_mini                         30  7.0    0.000    0.000    0.903    0.910
 rs_pw_transfer_PW2RS_100            30 12.0    0.166    0.212    0.766    0.818
 Vh_1c_gg_integrals                  30  8.0    0.034    0.678    0.709    0.756
 -------------------------------------------------------------------------------

 The number of warnings for this run is : 1
 
 -------------------------------------------------------------------------------
  **** **** ******  **  PROGRAM ENDED AT                 2022-06-07 17:42:04.423
 ***** ** ***  *** **   PROGRAM RAN ON                                   tcopt10
 **    ****   ******    PROGRAM RAN BY                                    hutter
 ***** **    ** ** **   PROGRAM PROCESS ID                                 82030
  **** **  *******  **  PROGRAM STOPPED IN /data/hutter/GITHUB/BASIS/scMOLOPT/PB
                                           E/Hg
