 DBCSR| CPU Multiplication driver                                           XSMM
 DBCSR| Multrec recursion limit                                              512
 DBCSR| Multiplication stack size                                           1000
 DBCSR| Maximum elements for images                                    UNLIMITED
 DBCSR| Multiplicative factor virtual images                                   1
 DBCSR| Use multiplication densification                                       T
 DBCSR| Multiplication size stacks                                             3
 DBCSR| Use memory pool for CPU allocation                                     F
 DBCSR| Number of 3D layers                                               SINGLE
 DBCSR| Use MPI memory allocation                                              F
 DBCSR| Use RMA algorithm                                                      F
 DBCSR| Use Communication thread                                               T
 DBCSR| Communication thread load                                             87
 DBCSR| MPI: My node id                                                        0
 DBCSR| MPI: Number of nodes                                                  48
 DBCSR| OMP: Current number of threads                                         1
 DBCSR| OMP: Max number of threads                                             1
 DBCSR| Split modifier for TAS multiplication algorithm                  1.0E+00


  **** **** ******  **  PROGRAM STARTED AT               2022-05-13 20:18:15.180
 ***** ** ***  *** **   PROGRAM STARTED ON                               tcopt10
 **    ****   ******    PROGRAM STARTED BY                                hutter
 ***** **    ** ** **   PROGRAM PROCESS ID                                 28366
  **** **  *******  **  PROGRAM STARTED IN /data/hutter/GITHUB/BASIS/scMOLOPT/PB
                                           E/Br

 CP2K| version string:                   CP2K version 10.0 (Development Version)
 CP2K| source code revision number:                                  git:13fcfd8
 CP2K| cp2kflags: omp libint fftw3 libxc elpa parallel mpi3 scalapack cosma xsmm
 CP2K|             spglib sirius libvori libbqb
 CP2K| is freely available from                            https://www.cp2k.org/
 CP2K| Program compiled at                      Tue 10 May 2022 02:27:21 PM CEST
 CP2K| Program compiled on                                               tcopt10
 CP2K| Program compiled for                                                local
 CP2K| Data directory path                   /data/hutter/GITHUB/TDLRI/cp2k/data
 CP2K| Input file name                                              BrCl-ref.inp

 GLOBAL| Force Environment number                                              1
 GLOBAL| Basis set file name                                        ../def2QZVPP
 GLOBAL| Potential file name                                        ../POTENTIAL
 GLOBAL| MM Potential file name                                     MM_POTENTIAL
 GLOBAL| Coordinate file name                                      __STD_INPUT__
 GLOBAL| Method name                                                        CP2K
 GLOBAL| Project name                                                    refBrCl
 GLOBAL| Run type                                                         ENERGY
 GLOBAL| FFT library                                                       FFTW3
 GLOBAL| Diagonalization library                                       ScaLAPACK
 GLOBAL| Orthonormality check for eigenvectors                          DISABLED
 GLOBAL| Matrix multiplication library                                     COSMA
 GLOBAL| All-to-all communication in single precision                          F
 GLOBAL| FFTs using library dependent lengths                                  F
 GLOBAL| Grid backend                                                       AUTO
 GLOBAL| Global print level                                                  LOW
 GLOBAL| MPI I/O enabled                                                       T
 GLOBAL| Total number of message passing processes                            48
 GLOBAL| Number of threads for this process                                    1
 GLOBAL| This output is from process                                           0
 GLOBAL| Stack size for threads created by OpenMP (OMP_STACKSIZE)        default
 GLOBAL| CPU model name                          AMD EPYC 7401 24-Core Processor
 GLOBAL| CPUID                                                              1002

 MEMORY| system memory details [Kb]
 MEMORY|                        rank 0           min           max       average
 MEMORY| MemTotal            263969136     263969136     263969136     263969136
 MEMORY| MemFree             237791216     237791216     237791216     237791216
 MEMORY| Buffers                   136           136           136           136
 MEMORY| Cached               18978576      18978576      18978576      18978576
 MEMORY| Slab                  1427192       1427192       1427192       1427192
 MEMORY| SReclaimable           871460        871460        871460        871460
 MEMORY| MemLikelyFree       257641388     257641388     257641388     257641388


 GENERATE|  Preliminary Number of Bonds generated:                             0
 GENERATE|  Achieved consistency in connectivity generation.

 *******************************************************************************
 *******************************************************************************
 **                                                                           **
 **     #####                         ##              ##                      **
 **    ##   ##            ##          ##              ##                      **
 **   ##     ##                       ##            ######                    **
 **   ##     ##  ##   ##  ##   #####  ##  ##   ####   ##    #####    #####    **
 **   ##     ##  ##   ##  ##  ##      ## ##   ##      ##   ##   ##  ##   ##   **
 **   ##  ## ##  ##   ##  ##  ##      ####     ###    ##   ######   ######    **
 **    ##  ###   ##   ##  ##  ##      ## ##      ##   ##   ##       ##        **
 **     #######   #####   ##   #####  ##  ##  ####    ##    #####   ##        **
 **           ##                                                    ##        **
 **                                                                           **
 **                                                ... make the atoms dance   **
 **                                                                           **
 **            Copyright (C) by CP2K developers group (2000-2022)             **
 **                      J. Chem. Phys. 152, 194103 (2020)                    **
 **                                                                           **
 *******************************************************************************


 TOTAL NUMBERS AND MAXIMUM NUMBERS

  Total number of            - Atomic kinds:                                   2
                             - Atoms:                                          2
                             - Shell sets:                                    49
                             - Shells:                                        49
                             - Primitive Cartesian functions:                100
                             - Cartesian basis functions:                    197
                             - Spherical basis functions:                    159

  Maximum angular momentum of the orbital basis functions:                     4


 SCF PARAMETERS         Density guess:                                    ATOMIC
                        --------------------------------------------------------
                        max_scf:                                              20
                        max_scf_history:                                       0
                        max_diis:                                              4
                        --------------------------------------------------------
                        eps_scf:                                        5.00E-07
                        eps_scf_history:                                0.00E+00
                        eps_diis:                                       1.00E-01
                        eps_eigval:                                     1.00E-05
                        --------------------------------------------------------
                        level_shift [a.u.]:                             0.000000
                        --------------------------------------------------------
                        Outer loop SCF in use 
                        No variables optimised in outer loop
                        eps_scf                                         5.00E-07
                        max_scf                                               10
                        No outer loop optimization
                        step_size                                       5.00E-01

 Number of electrons:                                                         52
 Number of occupied orbitals:                                                 26
 Number of molecular orbitals:                                                26

 Number of orbital functions:                                                159
 Number of independent orbital functions:                                    159

 Extrapolation method: initial_guess


 SCF WAVEFUNCTION OPTIMIZATION

  ----------------------------------- OT ---------------------------------------
  Minimizer      : DIIS                : direct inversion
                                         in the iterative subspace
                                         using   7 DIIS vectors
                                         safer DIIS on
  Preconditioner : FULL_ALL            : diagonalization, state selective
  Precond_solver : DEFAULT
  stepsize       :    0.15000000                  energy_gap     :    0.08000000
  eps_taylor     :   0.10000E-15                  max_taylor     :             4
  ----------------------------------- OT ---------------------------------------

  Step     Update method      Time    Convergence         Total energy    Change
  ------------------------------------------------------------------------------
     1 OT DIIS     0.15E+00    2.1     0.23495335     -3009.5005632742 -3.01E+03
     2 OT DIIS     0.15E+00    2.2     0.06293610     -3031.3973380673 -2.19E+01
     3 OT DIIS     0.15E+00    2.2     0.01999500     -3032.9169405377 -1.52E+00
     4 OT DIIS     0.15E+00    2.2     0.01443656     -3033.1063442911 -1.89E-01
     5 OT DIIS     0.15E+00    2.2     0.00957492     -3033.3046175380 -1.98E-01
     6 OT DIIS     0.15E+00    2.2     0.00644957     -3033.4679486720 -1.63E-01
     7 OT DIIS     0.15E+00    2.2     0.00491037     -3033.5562680652 -8.83E-02
     8 OT SD       0.15E+00    2.2     0.01009042     -3033.5120064255  4.43E-02
     9 OT DIIS     0.15E+00    2.2     0.00494225     -3033.5512271330 -3.92E-02
    10 OT DIIS     0.15E+00    2.2     0.00536853     -3033.6043170878 -5.31E-02
    11 OT DIIS     0.15E+00    2.2     0.00691214     -3033.7052994629 -1.01E-01
    12 OT DIIS     0.15E+00    2.2     0.00435512     -3033.6853871691  1.99E-02
    13 OT DIIS     0.15E+00    2.2     0.00434437     -3033.7230599497 -3.77E-02
    14 OT DIIS     0.15E+00    2.2     0.00459438     -3033.7420846970 -1.90E-02
    15 OT DIIS     0.15E+00    2.2     0.00242795     -3033.7692505400 -2.72E-02
    16 OT DIIS     0.15E+00    2.2     0.00207843     -3033.7922393336 -2.30E-02
    17 OT DIIS     0.15E+00    2.2     0.00212570     -3033.7934067485 -1.17E-03
    18 OT DIIS     0.15E+00    2.2     0.00261727     -3033.7951449702 -1.74E-03
    19 OT SD       0.15E+00    2.2     0.00130220     -3033.8037824179 -8.64E-03
    20 OT SD       0.15E+00    2.2     0.00123819     -3033.8048033720 -1.02E-03

  Leaving inner SCF loop after reaching    20 steps.


  Electronic density on regular grids:        -22.8397623193       29.1602376807
  Core density on regular grids:               52.0000000000        0.0000000000
  Hard and soft densities (Lebedev):          -52.9878320527      -23.8275945452
  Total Rho_soft + Rho1_hard - Rho1_soft      -51.9999998268
  Total charge density (r-space):               0.0000001732
  Total Rho_soft + Rho0_soft (g-space):        -0.0000001996

  Overlap energy of the core charge distribution:               0.00000001919242
  Self energy of the core charge distribution:               -889.97466624271090
  Core Hamiltonian energy:                                  -2340.80012748727358
  Hartree energy:                                              94.10203326297669
  Exchange-correlation energy:                                -14.43493381288608

  GAPW| Exc from hard and soft atomic rho1:                  -104.49166132947413
  GAPW| local Eh = 1 center integrals:                        221.79455221815383

  Total energy:                                             -3033.80480337202107

  outer SCF iter =    1 RMS gradient =   0.12E-02 energy =      -3033.8048033720

  ----------------------------------- OT ---------------------------------------
  Minimizer      : DIIS                : direct inversion
                                         in the iterative subspace
                                         using   7 DIIS vectors
                                         safer DIIS on
  Preconditioner : FULL_ALL            : diagonalization, state selective
  Precond_solver : DEFAULT
  stepsize       :    0.15000000                  energy_gap     :    0.08000000
  eps_taylor     :   0.10000E-15                  max_taylor     :             4
  ----------------------------------- OT ---------------------------------------

  Step     Update method      Time    Convergence         Total energy    Change
  ------------------------------------------------------------------------------
     1 OT DIIS     0.15E+00    4.4     0.01019017     -3033.8057387971 -9.35E-04
     2 OT DIIS     0.15E+00    2.2     0.00462357     -3033.8421921129 -3.65E-02
     3 OT DIIS     0.15E+00    2.2     0.00327560     -3033.8460900957 -3.90E-03
     4 OT DIIS     0.15E+00    2.2     0.00092451     -3033.8479381802 -1.85E-03
     5 OT DIIS     0.15E+00    2.2     0.00014144     -3033.8480938088 -1.56E-04
     6 OT DIIS     0.15E+00    2.2     0.00004501     -3033.8481022240 -8.42E-06
     7 OT DIIS     0.15E+00    2.2     0.00001237     -3033.8481027275 -5.03E-07
     8 OT DIIS     0.15E+00    2.2     0.00000122     -3033.8481027706 -4.32E-08
     9 OT DIIS     0.15E+00    2.2     0.00000032     -3033.8481027628  7.87E-09

  *** SCF run converged in     9 steps ***


  Electronic density on regular grids:        -22.8431537826       29.1568462174
  Core density on regular grids:               52.0000000000        0.0000000000
  Hard and soft densities (Lebedev):          -53.0070041858      -23.8501582707
  Total Rho_soft + Rho1_hard - Rho1_soft      -51.9999996977
  Total charge density (r-space):               0.0000003023
  Total Rho_soft + Rho0_soft (g-space):        -0.0000000704

  Overlap energy of the core charge distribution:               0.00000001919242
  Self energy of the core charge distribution:               -889.97466624271090
  Core Hamiltonian energy:                                  -2340.83585063291775
  Hartree energy:                                              94.08570907519371
  Exchange-correlation energy:                                -14.44164832663632

  GAPW| Exc from hard and soft atomic rho1:                  -104.48218905780845
  GAPW| local Eh = 1 center integrals:                        221.80054240291764

  Total energy:                                             -3033.84810276276949

  outer SCF iter =    2 RMS gradient =   0.32E-06 energy =      -3033.8481027628
  outer SCF loop converged in   2 iterations or   29 steps


 ENERGY| Total FORCE_EVAL ( QS ) energy [a.u.]:            -3033.848102762769486

 -------------------------------------------------------------------------------
 -                                                                             -
 -                                DBCSR STATISTICS                             -
 -                                                                             -
 -------------------------------------------------------------------------------
 COUNTER                                    TOTAL       BLAS       SMM       ACC
 flops    70 x    70 x    26              7644000       0.0%    100.0%      0.0%
 flops    26 x    26 x    26              8752848       0.0%    100.0%      0.0%
 flops    70 x    89 x    26              9718800       0.0%    100.0%      0.0%
 flops    26 x    26 x    70             11167520       0.0%    100.0%      0.0%
 flops    89 x    89 x    26             12356760       0.0%    100.0%      0.0%
 flops    26 x    26 x    89             14198704       0.0%    100.0%      0.0%
 flops    70 x    26 x    70             18345600       0.0%    100.0%      0.0%
 flops    70 x    26 x    89             23325120       0.0%    100.0%      0.0%
 flops    89 x    26 x    70             23325120       0.0%    100.0%      0.0%
 flops    89 x    26 x    89             29656224       0.0%    100.0%      0.0%
 flops   159 x    26 x    26             31600296       0.0%    100.0%      0.0%
 flops   159 x    26 x    70             35883120       0.0%    100.0%      0.0%
 flops   159 x    26 x    89             45622824       0.0%    100.0%      0.0%
 flops inhomo. stacks                           0       0.0%      0.0%      0.0%
 flops total                       271.596936E+06       0.0%    100.0%      0.0%
 flops max/rank                    263.952936E+06       0.0%    100.0%      0.0%
 matmuls inhomo. stacks                         0       0.0%      0.0%      0.0%
 matmuls total                               1134       0.0%    100.0%      0.0%
 number of processed stacks                  1134       0.0%    100.0%      0.0%
 average stack size                                     0.0       1.0       0.0
 marketing flops                   281.746112E+06
 -------------------------------------------------------------------------------
 # multiplications                            680
 max memory usage/rank             611.258368E+06
 # max total images/rank                        3
 # max 3D layers                                1
 # MPI messages exchanged                  652800
 MPI messages size (bytes):
  total size                       454.648320E+06
  min size                           0.000000E+00
  max size                         113.208000E+03
  average size                     696.458801E+00
 MPI breakdown and total messages size (bytes):
             size <=      128              639690                        0
       128 < size <=     8192                3927                 21237216
      8192 < size <=    32768                4288                 70906368
     32768 < size <=   131072                4895                362504736
    131072 < size <=  4194304                   0                        0
   4194304 < size <= 16777216                   0                        0
  16777216 < size                               0                        0
 -------------------------------------------------------------------------------

 *** WARNING in dbcsr_mm.F:290 :: Using a non-square number of MPI ranks ***
 *** might lead to poor performance. Used ranks: 48 Suggested: 49 100    ***

 -------------------------------------------------------------------------------
 -                                                                             -
 -                      DBCSR MESSAGE PASSING PERFORMANCE                      -
 -                                                                             -
 -------------------------------------------------------------------------------
 ROUTINE             CALLS      AVE VOLUME [Bytes]
 MP_Bcast               14                     12.
 MP_Allreduce         3635                      8.
 MP_Alltoall          2585                   6585.
 MP_ISend            30414                   1918.
 MP_IRecv            29974                    566.
 -------------------------------------------------------------------------------

 -------------------------------------------------------------------------------
 -                                                                             -
 -                                GRID STATISTICS                              -
 -                                                                             -
 -------------------------------------------------------------------------------
 LP    KERNEL             BACKEND                              COUNT     PERCENT
 2     collocate ortho    REF                                   6180      10.39%
 2     integrate ortho    REF                                   5974      10.04%
 3     collocate ortho    REF                                   5670       9.53%
 3     integrate ortho    REF                                   5481       9.21%
 1     collocate ortho    REF                                   5190       8.72%
 1     integrate ortho    REF                                   5017       8.43%
 4     collocate ortho    REF                                   4230       7.11%
 4     integrate ortho    REF                                   4089       6.87%
 2     collocate general  REF                                   2784       4.68%
 2     integrate general  REF                                   2784       4.68%
 5     collocate ortho    REF                                   2550       4.29%
 5     integrate ortho    REF                                   2465       4.14%
 0     collocate ortho    REF                                   1860       3.13%
 0     integrate ortho    REF                                   1798       3.02%
 6     collocate ortho    REF                                   1200       2.02%
 6     integrate ortho    REF                                   1160       1.95%
 7     collocate ortho    REF                                    450       0.76%
 7     integrate ortho    REF                                    435       0.73%
 8     collocate ortho    REF                                     90       0.15%
 8     integrate ortho    REF                                     87       0.15%
 -------------------------------------------------------------------------------

 MEMORY| Estimated peak process memory [MiB]                                 584

 -------------------------------------------------------------------------------
 -                                                                             -
 -                         MESSAGE PASSING PERFORMANCE                         -
 -                                                                             -
 -------------------------------------------------------------------------------

 ROUTINE             CALLS      AVE VOLUME [Bytes]
 MP_Group                4
 MP_Bcast              511                 448605.
 MP_Allreduce         1699                 474539.
 MP_Sync                74
 MP_Alltoall           658                5573766.
 MP_ISendRecv         8319                 115392.
 MP_Wait             15456
 MP_comm_split          35
 MP_ISend             6552                 252154.
 MP_IRecv             6552                 252206.
 MP_Recv                16                   3816.
 -------------------------------------------------------------------------------


 -------------------------------------------------------------------------------
 -                                                                             -
 -                           R E F E R E N C E S                               -
 -                                                                             -
 -------------------------------------------------------------------------------
 
 CP2K version 10.0 (Development Version), the CP2K developers group (2022).
 CP2K is freely available from https://www.cp2k.org/ .

 Kuehne,Thomas D.; Iannuzzi,Marcella; Del Ben,Mauro;
 Rybkin,Vladimir V.; Seewald,Patrick; Stein,Frederick; Laino,Teodoro;
 Khaliullin,Rustam Z.; Schuett,Ole; Schiffmann,Florian; Golze,Dorothea;
 Wilhelm,Jan; Chulkov,Sergey; Bani-Hashemian,Mohammad Hossein;
 Weber,Valery; Borstnik,Urban; Taillefumier,Mathieu;
 Jakobovits,Alice Shoshana; Lazzaro,Alfio; Pabst,Hans; Mueller,Tiziano;
 Schade,Robert; Guidon,Manuel; Andermatt,Samuel; Holmberg,Nico;
 Schenter,Gregory K.; Hehn,Anna; Bussy,Augustin; Belleflamme,Fabian;
 Tabacchi,Gloria; Gloess,Andreas; Lass,Michael; Bethune,Iain;
 Mundy,Christopher J.; Plessl,Christian; Watkins,Matt;
 VandeVondele,Joost; Krack,Matthias; Hutter,Juerg. 
 The Journal of Chemical Physics, 152 (19), (2020). 
 CP2K: An electronic structure and molecular dynamics software package -
 Quickstep: Efficient and accurate electronic structure calculations.
 https://doi.org/10.1063/5.0007045

 Schuett, Ole; Messmer, Peter; Hutter, Juerg; VandeVondele, Joost. 
 Electronic Structure Calculations on Graphics Processing Units, John
 Wiley & Sons, Ltd, 173-190 (2016). 
 GPU-Accelerated Sparse Matrix-Matrix Multiplication for
 Linear Scaling Density Functional Theory.
 https://doi.org/10.1002/9781118670712.ch8

 Heinecke, A; Henry, G; Hutchinson, M; Pabst, H. 
 Proceedings of Intl. Supercomputing Conference, 981-991 (2016). 
 LIBXSMM: Accelerating Small Matrix Multiplications
 by Runtime Code Generation.
 https://doi.org/10.1109/SC.2016.83

 Borstnik, U; VandeVondele, J; Weber, V; Hutter, J. 
 PARALLEL COMPUTING, 40 (5-6), 47-58 (2014). 
 Sparse matrix multiplication: The distributed block-compressed sparse
 row library.
 https://doi.org/10.1016/j.parco.2014.03.012

 Hutter, J; Iannuzzi, M; Schiffmann, F; VandeVondele, J. 
 WIREs Comput Mol Sci., 4 (1), 15-25 (2014). 
 CP2K: atomistic simulations of condensed matter systems.
 https://doi.org/10.1002/wcms.1159

 Frigo, M; Johnson, SG. 
 PROCEEDINGS OF THE IEEE, 93 (2), 216-231 (2005). 
 The design and implementation of FFTW3.
 https://doi.org/10.1109/JPROC.2004.840301

 VandeVondele, J; Hutter, J. 
 JOURNAL OF CHEMICAL PHYSICS, 118 (10), 4365-4369 (2003). 
 An efficient orbital transformation method for electronic structure
 calculations.
 https://doi.org/10.1063/1.1543154

 Lippert, G; Hutter, J; Parrinello, M. 
 THEORETICAL CHEMISTRY ACCOUNTS, 103 (2), 124-140 (1999). 
 The Gaussian and augmented-plane-wave density functional method for ab
 initio molecular dynamics simulations.
 https://doi.org/10.1007/s002140050523

 Krack, M; Parrinello, M. 
 PHYSICAL CHEMISTRY CHEMICAL PHYSICS, 2 (10), 2105-2112 (2000). 
 All-electron ab-initio molecular dynamics.
 https://doi.org/10.1039/b001167n

 Perdew, JP; Burke, K; Ernzerhof, M. 
 PHYSICAL REVIEW LETTERS, 77 (18), 3865-3868 (1996). 
 Generalized gradient approximation made simple.
 https://doi.org/10.1103/PhysRevLett.77.3865


 -------------------------------------------------------------------------------
 -                                                                             -
 -                                T I M I N G                                  -
 -                                                                             -
 -------------------------------------------------------------------------------
 SUBROUTINE                       CALLS  ASD         SELF TIME        TOTAL TIME
                                MAXIMUM       AVERAGE  MAXIMUM  AVERAGE  MAXIMUM
 CP2K                                 1  1.0    0.013    0.035   64.610   64.630
 qs_energies                          1  2.0    0.000    0.000   64.234   64.254
 scf_env_do_scf                       1  3.0    0.000    0.000   63.923   63.943
 scf_env_do_scf_inner_loop           29  4.0    0.001    0.002   59.833   59.851
 qs_ks_update_qs_env                 31  5.0    0.000    0.000   58.804   58.825
 rebuild_ks_matrix                   29  6.0    0.000    0.000   58.798   58.819
 qs_ks_build_kohn_sham_matrix        29  7.0    0.007    0.008   58.798   58.819
 mp_sum_d                          1219  7.0   28.296   29.048   28.296   29.048
 calculate_vxc_atom                  29  8.0    0.074    1.337   26.726   26.735
 gaVxcgb_GC                          58  9.0    0.516   24.783    0.516   24.783
 prepare_gapw_den                    29  8.0    0.001    0.002   16.029   16.046
 calculate_rho_atom                  58  9.0    4.302   12.570    4.302   12.570
 pw_transfer                        614 10.1    0.066    0.084    6.454    7.147
 fft_wrap_pw1pw2                    527 11.3    0.007    0.009    6.322    7.013
 rs_pw_transfer                     294  9.5    0.007    0.009    6.799    6.979
 fft_wrap_pw1pw2_300                350 12.7    0.413    0.481    5.955    6.642
 calculate_rho0_atom                 58  9.0    5.799    6.311    5.799    6.311
 fft3d_ps                           527 13.3    2.297    2.588    4.986    5.680
 mp_sum_dv                          510 12.8    4.017    5.637    4.017    5.637
 qs_vxc_create                       29  8.0    0.001    0.001    4.928    4.929
 xc_vxc_pw_create                    29  9.0    0.031    0.035    4.927    4.928
 integrate_vhg0_rspace               29  8.0    0.529    1.058    4.729    4.828
 qs_rho_update_rho                   30  5.0    0.001    0.001    4.350    4.354
 xc_pw_derive                       174 11.0    0.002    0.002    3.443    4.116
 init_scf_loop                        2  4.0    0.000    0.000    4.089    4.090
 calculate_rho_elec                  30  6.0    0.016    0.018    4.048    4.049
 density_rs2pw                       30  7.0    0.002    0.002    3.168    3.370
 mp_alltoall_z22v                   527 15.3    2.144    3.319    2.144    3.319
 sum_up_and_integrate                29  8.0    0.017    0.021    3.138    3.148
 integrate_v_rspace                  29  9.0    0.001    0.001    3.120    3.131
 mp_sum_dm                          178  7.7    2.960    3.066    2.960    3.066
 xc_pw_divergence                    29 10.0    0.001    0.001    2.337    3.011
 potential_pw2rs                     29 10.0    0.002    0.003    2.924    2.928
 xc_rho_set_and_dset_create          29 10.0    0.040    0.045    2.463    2.907
 rs_pw_transfer_PW2RS_300            58 11.0    1.704    1.787    2.665    2.787
 rs_pw_transfer_RS2PW_300            59 10.0    1.725    1.825    2.506    2.711
 yz_to_x                            235 14.1    0.231    0.281    1.380    2.274
 Vh_1c_gg_integrals                  29  8.0    0.111    1.984    1.999    2.044
 put_rho0_on_grid                    29  9.0    0.019    0.023    1.913    1.930
 xc_functional_eval                 145 10.9    0.000    0.001    0.724    1.594
 pbe_lda_eval                       145 11.9    0.724    1.592    0.724    1.592
 mp_waitany                        6552 11.5    1.325    1.469    1.325    1.469
 x_to_yz                            233 14.6    0.271    0.305    1.261    1.387
 -------------------------------------------------------------------------------

 The number of warnings for this run is : 1
 
 -------------------------------------------------------------------------------
  **** **** ******  **  PROGRAM ENDED AT                 2022-05-13 20:19:20.234
 ***** ** ***  *** **   PROGRAM RAN ON                                   tcopt10
 **    ****   ******    PROGRAM RAN BY                                    hutter
 ***** **    ** ** **   PROGRAM PROCESS ID                                 28366
  **** **  *******  **  PROGRAM STOPPED IN /data/hutter/GITHUB/BASIS/scMOLOPT/PB
                                           E/Br
