 DBCSR| CPU Multiplication driver                                           XSMM
 DBCSR| Multrec recursion limit                                              512
 DBCSR| Multiplication stack size                                           1000
 DBCSR| Maximum elements for images                                    UNLIMITED
 DBCSR| Multiplicative factor virtual images                                   1
 DBCSR| Use multiplication densification                                       T
 DBCSR| Multiplication size stacks                                             3
 DBCSR| Use memory pool for CPU allocation                                     F
 DBCSR| Number of 3D layers                                               SINGLE
 DBCSR| Use MPI memory allocation                                              F
 DBCSR| Use RMA algorithm                                                      F
 DBCSR| Use Communication thread                                               T
 DBCSR| Communication thread load                                             87
 DBCSR| MPI: My node id                                                        0
 DBCSR| MPI: Number of nodes                                                  36
 DBCSR| OMP: Current number of threads                                         1
 DBCSR| OMP: Max number of threads                                             1
 DBCSR| Split modifier for TAS multiplication algorithm                  1.0E+00


  **** **** ******  **  PROGRAM STARTED AT               2022-05-31 14:27:37.565
 ***** ** ***  *** **   PROGRAM STARTED ON                               tcopt10
 **    ****   ******    PROGRAM STARTED BY                                hutter
 ***** **    ** ** **   PROGRAM PROCESS ID                                 96674
  **** **  *******  **  PROGRAM STARTED IN /data/hutter/GITHUB/BASIS/scMOLOPT/PB
                                           E/In

 CP2K| version string:                   CP2K version 10.0 (Development Version)
 CP2K| source code revision number:                                  git:d19b00a
 CP2K| cp2kflags: omp libint fftw3 libxc elpa parallel mpi3 scalapack cosma xsmm
 CP2K|             spglib sirius libvori libbqb
 CP2K| is freely available from                            https://www.cp2k.org/
 CP2K| Program compiled at                      Wed 18 May 2022 12:15:59 PM CEST
 CP2K| Program compiled on                                               tcopt10
 CP2K| Program compiled for                                                local
 CP2K| Data directory path                   /data/hutter/GITHUB/TDLRI/cp2k/data
 CP2K| Input file name                                              InCl-ref.inp

 GLOBAL| Force Environment number                                              1
 GLOBAL| Basis set file name                                        ../def2QZVPP
 GLOBAL| Potential file name                                        ../POTENTIAL
 GLOBAL| MM Potential file name                                     MM_POTENTIAL
 GLOBAL| Coordinate file name                                      __STD_INPUT__
 GLOBAL| Method name                                                        CP2K
 GLOBAL| Project name                                                    refInCl
 GLOBAL| Run type                                                         ENERGY
 GLOBAL| FFT library                                                       FFTW3
 GLOBAL| Diagonalization library                                            ELPA
 GLOBAL| Minimum number of eigenvectors for ELPA usage                        16
 GLOBAL| Orthonormality check for eigenvectors                          DISABLED
 GLOBAL| Matrix multiplication library                                     COSMA
 GLOBAL| All-to-all communication in single precision                          F
 GLOBAL| FFTs using library dependent lengths                                  F
 GLOBAL| Grid backend                                                       AUTO
 GLOBAL| Global print level                                                  LOW
 GLOBAL| MPI I/O enabled                                                       T
 GLOBAL| Total number of message passing processes                            36
 GLOBAL| Number of threads for this process                                    1
 GLOBAL| This output is from process                                           0
 GLOBAL| Stack size for threads created by OpenMP (OMP_STACKSIZE)        default
 GLOBAL| CPU model name                          AMD EPYC 7401 24-Core Processor
 GLOBAL| CPUID                                                              1002

 MEMORY| system memory details [Kb]
 MEMORY|                        rank 0           min           max       average
 MEMORY| MemTotal            263969132     263969132     263969132     263969132
 MEMORY| MemFree             237204096     237204096     237204096     237204096
 MEMORY| Buffers                  2836          2836          2836          2836
 MEMORY| Cached               20264892      20264888      20264892      20264888
 MEMORY| Slab                  1470964       1470964       1470964       1470964
 MEMORY| SReclaimable           876396        876396        876396        876396
 MEMORY| MemLikelyFree       258348220     258348216     258348220     258348216


 GENERATE|  Preliminary Number of Bonds generated:                             0
 GENERATE|  Achieved consistency in connectivity generation.

 *******************************************************************************
 *******************************************************************************
 **                                                                           **
 **     #####                         ##              ##                      **
 **    ##   ##            ##          ##              ##                      **
 **   ##     ##                       ##            ######                    **
 **   ##     ##  ##   ##  ##   #####  ##  ##   ####   ##    #####    #####    **
 **   ##     ##  ##   ##  ##  ##      ## ##   ##      ##   ##   ##  ##   ##   **
 **   ##  ## ##  ##   ##  ##  ##      ####     ###    ##   ######   ######    **
 **    ##  ###   ##   ##  ##  ##      ## ##      ##   ##   ##       ##        **
 **     #######   #####   ##   #####  ##  ##  ####    ##    #####   ##        **
 **           ##                                                    ##        **
 **                                                                           **
 **                                                ... make the atoms dance   **
 **                                                                           **
 **            Copyright (C) by CP2K developers group (2000-2022)             **
 **                      J. Chem. Phys. 152, 194103 (2020)                    **
 **                                                                           **
 *******************************************************************************


 TOTAL NUMBERS AND MAXIMUM NUMBERS

  Total number of            - Atomic kinds:                                   2
                             - Atoms:                                          2
                             - Shell sets:                                    44
                             - Shells:                                        44
                             - Primitive Cartesian functions:                 88
                             - Cartesian basis functions:                    190
                             - Spherical basis functions:                    152

  Maximum angular momentum of- Orbital basis functions:                        4
                             - Local part of the GTH pseudopotential:          4
                             - Non-local part of the GTH pseudopotential:      4


 SCF PARAMETERS         Density guess:                                    ATOMIC
                        --------------------------------------------------------
                        max_scf:                                              20
                        max_scf_history:                                       0
                        max_diis:                                              4
                        --------------------------------------------------------
                        eps_scf:                                        1.00E-07
                        eps_scf_history:                                0.00E+00
                        eps_diis:                                       1.00E-01
                        eps_eigval:                                     1.00E-05
                        --------------------------------------------------------
                        level_shift [a.u.]:                             0.000000
                        --------------------------------------------------------
                        Outer loop SCF in use 
                        No variables optimised in outer loop
                        eps_scf                                         1.00E-07
                        max_scf                                                5
                        No outer loop optimization
                        step_size                                       5.00E-01

 Number of electrons:                                                         38
 Number of occupied orbitals:                                                 19
 Number of molecular orbitals:                                                19

 Number of orbital functions:                                                152
 Number of independent orbital functions:                                    152

 Extrapolation method: initial_guess


 SCF WAVEFUNCTION OPTIMIZATION

  ----------------------------------- OT ---------------------------------------
  Minimizer      : DIIS                : direct inversion
                                         in the iterative subspace
                                         using   7 DIIS vectors
                                         safer DIIS on
  Preconditioner : FULL_ALL            : diagonalization, state selective
  Precond_solver : DEFAULT
  stepsize       :    0.10000000                  energy_gap     :    0.08000000
  eps_taylor     :   0.10000E-15                  max_taylor     :             4
  ----------------------------------- OT ---------------------------------------

  Step     Update method      Time    Convergence         Total energy    Change
  ------------------------------------------------------------------------------
     1 OT DIIS     0.10E+00    1.0     0.17054872      -632.1505004804 -6.32E+02
     2 OT DIIS     0.10E+00    1.1     0.11068378      -639.0543749932 -6.90E+00
     3 OT DIIS     0.10E+00    1.1     0.03968914      -642.3949808803 -3.34E+00
     4 OT DIIS     0.10E+00    1.1     0.03165640      -642.6136029723 -2.19E-01
     5 OT DIIS     0.10E+00    1.1     0.01287315      -642.9634571488 -3.50E-01
     6 OT DIIS     0.10E+00    1.1     0.01063509      -643.0320735905 -6.86E-02
     7 OT DIIS     0.10E+00    1.1     0.00889599      -643.1011292703 -6.91E-02
     8 OT DIIS     0.10E+00    1.1     0.00628723      -643.2314862825 -1.30E-01
     9 OT DIIS     0.10E+00    1.1     0.00463328      -643.2722872290 -4.08E-02
    10 OT DIIS     0.10E+00    1.1     0.00383030      -643.2981368296 -2.58E-02
    11 OT DIIS     0.10E+00    1.1     0.00361329      -643.3121960039 -1.41E-02
    12 OT DIIS     0.10E+00    1.1     0.00286662      -643.3242980730 -1.21E-02
    13 OT DIIS     0.10E+00    1.1     0.00246555      -643.3355039662 -1.12E-02
    14 OT DIIS     0.10E+00    1.1     0.00217203      -643.3457761801 -1.03E-02
    15 OT SD       0.10E+00    1.1     0.00201648      -643.3546844014 -8.91E-03
    16 OT DIIS     0.10E+00    1.1     0.00170198      -643.3557281102 -1.04E-03
    17 OT DIIS     0.10E+00    1.1     0.00152239      -643.3609918984 -5.26E-03
    18 OT DIIS     0.10E+00    1.1     0.00135783      -643.3660300788 -5.04E-03
    19 OT DIIS     0.10E+00    1.1     0.00146088      -643.3692366127 -3.21E-03
    20 OT DIIS     0.10E+00    1.1     0.00092041      -643.3716704948 -2.43E-03

  Leaving inner SCF loop after reaching    20 steps.


  Electronic density on regular grids:        -30.9403331849        7.0596668151
  Core density on regular grids:               38.0000000000        0.0000000000
  Hard and soft densities (Lebedev):          -39.1702128863      -32.1105462424
  Total Rho_soft + Rho1_hard - Rho1_soft      -37.9999998289
  Total charge density (r-space):               0.0000001711
  Total Rho_soft + Rho0_soft (g-space):        -0.0000002729

  Overlap energy of the core charge distribution:               0.00000000000009
  Self energy of the core charge distribution:               -512.84996090726008
  Core Hamiltonian energy:                                   -189.14595001102253
  Hartree energy:                                             219.99128989501182
  Exchange-correlation energy:                                -22.08689381850227

  GAPW| Exc from hard and soft atomic rho1:                   -21.76095069366258
  GAPW| local Eh = 1 center integrals:                       -117.51920495941339

  Total energy:                                              -643.37167049484901

  outer SCF iter =    1 RMS gradient =   0.92E-03 energy =       -643.3716704948

  ----------------------------------- OT ---------------------------------------
  Minimizer      : DIIS                : direct inversion
                                         in the iterative subspace
                                         using   7 DIIS vectors
                                         safer DIIS on
  Preconditioner : FULL_ALL            : diagonalization, state selective
  Precond_solver : DEFAULT
  stepsize       :    0.10000000                  energy_gap     :    0.08000000
  eps_taylor     :   0.10000E-15                  max_taylor     :             4
  ----------------------------------- OT ---------------------------------------

  Step     Update method      Time    Convergence         Total energy    Change
  ------------------------------------------------------------------------------
     1 OT DIIS     0.10E+00    2.2     0.00396359      -643.3725310583 -8.61E-04
     2 OT DIIS     0.10E+00    1.1     0.00219692      -643.3759731839 -3.44E-03
     3 OT DIIS     0.10E+00    1.1     0.00060939      -643.3774381336 -1.46E-03
     4 OT DIIS     0.10E+00    1.1     0.00014514      -643.3775553549 -1.17E-04
     5 OT DIIS     0.10E+00    1.1     0.00012598      -643.3775577184 -2.36E-06
     6 OT DIIS     0.10E+00    1.1     0.00002925      -643.3775597591 -2.04E-06
     7 OT DIIS     0.10E+00    1.1     0.00000808      -643.3775598702 -1.11E-07
     8 OT DIIS     0.10E+00    1.1     0.00000140      -643.3775598803 -1.01E-08
     9 OT DIIS     0.10E+00    1.1     0.00000032      -643.3775598808 -4.52E-10
    10 OT DIIS     0.10E+00    1.1     0.00000008      -643.3775598807  7.11E-11

  *** SCF run converged in    10 steps ***


  Electronic density on regular grids:        -30.9411043768        7.0588956232
  Core density on regular grids:               38.0000000000        0.0000000000
  Hard and soft densities (Lebedev):          -39.1605644288      -32.1016689648
  Total Rho_soft + Rho1_hard - Rho1_soft      -37.9999998408
  Total charge density (r-space):               0.0000001592
  Total Rho_soft + Rho0_soft (g-space):        -0.0000002849

  Overlap energy of the core charge distribution:               0.00000000000009
  Self energy of the core charge distribution:               -512.84996090726008
  Core Hamiltonian energy:                                   -189.15069425423164
  Hartree energy:                                             219.98933393482332
  Exchange-correlation energy:                                -22.08489098604629

  GAPW| Exc from hard and soft atomic rho1:                   -21.75966206441478
  GAPW| local Eh = 1 center integrals:                       -117.52168560355082

  Total energy:                                              -643.37755988068022

  outer SCF iter =    2 RMS gradient =   0.79E-07 energy =       -643.3775598807
  outer SCF loop converged in   2 iterations or   30 steps


 ENERGY| Total FORCE_EVAL ( QS ) energy [a.u.]:             -643.377559880680224

 -------------------------------------------------------------------------------
 -                                                                             -
 -                                DBCSR STATISTICS                             -
 -                                                                             -
 -------------------------------------------------------------------------------
 COUNTER                                    TOTAL       BLAS       SMM       ACC
 flops    19 x    19 x    19              3758732       0.0%    100.0%      0.0%
 flops    70 x    70 x    19              5772200       0.0%    100.0%      0.0%
 flops    19 x    19 x    70              6165880       0.0%    100.0%      0.0%
 flops    70 x    82 x    19              6761720       0.0%    100.0%      0.0%
 flops    19 x    19 x    82              7222888       0.0%    100.0%      0.0%
 flops    70 x    19 x    19              7682080       0.0%    100.0%      0.0%
 flops    82 x    82 x    19              7920872       0.0%    100.0%      0.0%
 flops    82 x    19 x    19              8999008       0.0%    100.0%      0.0%
 flops    70 x    19 x    70             25695600       0.0%    100.0%      0.0%
 flops    82 x    19 x    70             30100560       0.0%    100.0%      0.0%
 flops    70 x    19 x    82             30100560       0.0%    100.0%      0.0%
 flops    82 x    19 x    82             35260656       0.0%    100.0%      0.0%
 flops inhomo. stacks                           0       0.0%      0.0%      0.0%
 flops total                       175.440756E+06       0.0%    100.0%      0.0%
 flops max/rank                     99.428596E+06       0.0%    100.0%      0.0%
 matmuls inhomo. stacks                         0       0.0%      0.0%      0.0%
 matmuls total                               1467       0.0%    100.0%      0.0%
 number of processed stacks                  1467       0.0%    100.0%      0.0%
 average stack size                                     0.0       1.0       0.0
 marketing flops                   182.421680E+06
 -------------------------------------------------------------------------------
 # multiplications                            719
 max memory usage/rank             612.704256E+06
 # max total images/rank                        1
 # max 3D layers                                1
 # MPI messages exchanged                  258840
 MPI messages size (bytes):
  total size                       206.492000E+06
  min size                           0.000000E+00
  max size                          53.792000E+03
  average size                     797.759216E+00
 MPI breakdown and total messages size (bytes):
             size <=      128              246620                        0
       128 < size <=     8192                3500                 10108000
      8192 < size <=    32768                5960                 68849920
     32768 < size <=   131072                2760                127534080
    131072 < size <=  4194304                   0                        0
   4194304 < size <= 16777216                   0                        0
  16777216 < size                               0                        0
 -------------------------------------------------------------------------------
 -                                                                             -
 -                      DBCSR MESSAGE PASSING PERFORMANCE                      -
 -                                                                             -
 -------------------------------------------------------------------------------
 ROUTINE             CALLS      AVE VOLUME [Bytes]
 MP_Bcast               13                     12.
 MP_Allreduce         3837                      8.
 MP_Alltoall          2653                   3115.
 MP_ISend            17248                   1638.
 MP_IRecv            17248                    658.
 -------------------------------------------------------------------------------

 -------------------------------------------------------------------------------
 -                                                                             -
 -                                GRID STATISTICS                              -
 -                                                                             -
 -------------------------------------------------------------------------------
 LP    KERNEL             BACKEND                              COUNT     PERCENT
 2     collocate ortho    REF                                  21793      12.50%
 2     integrate ortho    REF                                  21090      12.09%
 3     collocate ortho    REF                                  19623      11.25%
 3     integrate ortho    REF                                  18990      10.89%
 1     collocate ortho    REF                                  17205       9.87%
 1     integrate ortho    REF                                  16650       9.55%
 4     collocate ortho    REF                                  13330       7.64%
 4     integrate ortho    REF                                  12900       7.40%
 5     collocate ortho    REF                                   6169       3.54%
 5     integrate ortho    REF                                   5970       3.42%
 0     collocate ortho    REF                                   5239       3.00%
 0     integrate ortho    REF                                   5070       2.91%
 6     collocate ortho    REF                                   2418       1.39%
 6     integrate ortho    REF                                   2340       1.34%
 2     collocate general  REF                                   2160       1.24%
 2     integrate general  REF                                   2160       1.24%
 7     collocate ortho    REF                                    558       0.32%
 7     integrate ortho    REF                                    540       0.31%
 8     collocate ortho    REF                                     93       0.05%
 8     integrate ortho    REF                                     90       0.05%
 -------------------------------------------------------------------------------

 MEMORY| Estimated peak process memory [MiB]                                 585

 -------------------------------------------------------------------------------
 -                                                                             -
 -                         MESSAGE PASSING PERFORMANCE                         -
 -                                                                             -
 -------------------------------------------------------------------------------

 ROUTINE             CALLS      AVE VOLUME [Bytes]
 MP_Group                4
 MP_Bcast              645                 396997.
 MP_Allreduce         1929                 382875.
 MP_Sync                70
 MP_Alltoall           618                6462891.
 MP_ISendRecv         6405                 115968.
 MP_Wait             11608
 MP_comm_split          33
 MP_ISend             4840                 291600.
 MP_IRecv             4840                 291600.
 MP_Recv                 8                   4864.
 -------------------------------------------------------------------------------


 -------------------------------------------------------------------------------
 -                                                                             -
 -                           R E F E R E N C E S                               -
 -                                                                             -
 -------------------------------------------------------------------------------
 
 CP2K version 10.0 (Development Version), the CP2K developers group (2022).
 CP2K is freely available from https://www.cp2k.org/ .

 Kuehne,Thomas D.; Iannuzzi,Marcella; Del Ben,Mauro;
 Rybkin,Vladimir V.; Seewald,Patrick; Stein,Frederick; Laino,Teodoro;
 Khaliullin,Rustam Z.; Schuett,Ole; Schiffmann,Florian; Golze,Dorothea;
 Wilhelm,Jan; Chulkov,Sergey; Bani-Hashemian,Mohammad Hossein;
 Weber,Valery; Borstnik,Urban; Taillefumier,Mathieu;
 Jakobovits,Alice Shoshana; Lazzaro,Alfio; Pabst,Hans; Mueller,Tiziano;
 Schade,Robert; Guidon,Manuel; Andermatt,Samuel; Holmberg,Nico;
 Schenter,Gregory K.; Hehn,Anna; Bussy,Augustin; Belleflamme,Fabian;
 Tabacchi,Gloria; Gloess,Andreas; Lass,Michael; Bethune,Iain;
 Mundy,Christopher J.; Plessl,Christian; Watkins,Matt;
 VandeVondele,Joost; Krack,Matthias; Hutter,Juerg. 
 The Journal of Chemical Physics, 152 (19), (2020). 
 CP2K: An electronic structure and molecular dynamics software package -
 Quickstep: Efficient and accurate electronic structure calculations.
 https://doi.org/10.1063/5.0007045

 Schuett, Ole; Messmer, Peter; Hutter, Juerg; VandeVondele, Joost. 
 Electronic Structure Calculations on Graphics Processing Units, John
 Wiley & Sons, Ltd, 173-190 (2016). 
 GPU-Accelerated Sparse Matrix-Matrix Multiplication for
 Linear Scaling Density Functional Theory.
 https://doi.org/10.1002/9781118670712.ch8

 Heinecke, A; Henry, G; Hutchinson, M; Pabst, H. 
 Proceedings of Intl. Supercomputing Conference, 981-991 (2016). 
 LIBXSMM: Accelerating Small Matrix Multiplications
 by Runtime Code Generation.
 https://doi.org/10.1109/SC.2016.83

 Borstnik, U; VandeVondele, J; Weber, V; Hutter, J. 
 PARALLEL COMPUTING, 40 (5-6), 47-58 (2014). 
 Sparse matrix multiplication: The distributed block-compressed sparse
 row library.
 https://doi.org/10.1016/j.parco.2014.03.012

 Hutter, J; Iannuzzi, M; Schiffmann, F; VandeVondele, J. 
 WIREs Comput Mol Sci., 4 (1), 15-25 (2014). 
 CP2K: atomistic simulations of condensed matter systems.
 https://doi.org/10.1002/wcms.1159

 Marek, A; Blum, V; Johanni, R; Havu, V; Lang, B; Auckenthaler, T;
 Heinecke, A; Bungartz, H; Lederer, H. 
 Journal of Physics: Condensed Matter, 26 (21), (2014). 
 The ELPA library: scalable parallel eigenvalue solutions for
 electronic structure
 theory and computational science.
 https://doi.org/10.1088/0953-8984/26/21/213201

 Krack, M. 
 THEORETICAL CHEMISTRY ACCOUNTS, 114 (1-3), 145-152 (2005). 
 Pseudopotentials for H to Kr optimized for gradient-corrected
 exchange-correlation functionals.
 https://doi.org/10.1007/s00214-005-0655-y

 Frigo, M; Johnson, SG. 
 PROCEEDINGS OF THE IEEE, 93 (2), 216-231 (2005). 
 The design and implementation of FFTW3.
 https://doi.org/10.1109/JPROC.2004.840301

 VandeVondele, J; Hutter, J. 
 JOURNAL OF CHEMICAL PHYSICS, 118 (10), 4365-4369 (2003). 
 An efficient orbital transformation method for electronic structure
 calculations.
 https://doi.org/10.1063/1.1543154

 Lippert, G; Hutter, J; Parrinello, M. 
 THEORETICAL CHEMISTRY ACCOUNTS, 103 (2), 124-140 (1999). 
 The Gaussian and augmented-plane-wave density functional method for ab
 initio molecular dynamics simulations.
 https://doi.org/10.1007/s002140050523

 Krack, M; Parrinello, M. 
 PHYSICAL CHEMISTRY CHEMICAL PHYSICS, 2 (10), 2105-2112 (2000). 
 All-electron ab-initio molecular dynamics.
 https://doi.org/10.1039/b001167n

 Hartwigsen, C; Goedecker, S; Hutter, J. 
 PHYSICAL REVIEW B, 58 (7), 3641-3662 (1998). 
 Relativistic separable dual-space Gaussian pseudopotentials from H to Rn.
 https://doi.org/10.1103/PhysRevB.58.3641

 Perdew, JP; Burke, K; Ernzerhof, M. 
 PHYSICAL REVIEW LETTERS, 77 (18), 3865-3868 (1996). 
 Generalized gradient approximation made simple.
 https://doi.org/10.1103/PhysRevLett.77.3865

 Goedecker, S; Teter, M; Hutter, J. 
 PHYSICAL REVIEW B, 54 (3), 1703-1710 (1996). 
 Separable dual-space Gaussian pseudopotentials.
 https://doi.org/10.1103/PhysRevB.54.1703


 -------------------------------------------------------------------------------
 -                                                                             -
 -                                T I M I N G                                  -
 -                                                                             -
 -------------------------------------------------------------------------------
 SUBROUTINE                       CALLS  ASD         SELF TIME        TOTAL TIME
                                MAXIMUM       AVERAGE  MAXIMUM  AVERAGE  MAXIMUM
 CP2K                                 1  1.0    0.019    0.039   33.961   33.962
 qs_energies                          1  2.0    0.000    0.000   33.621   33.622
 scf_env_do_scf                       1  3.0    0.000    0.000   33.156   33.157
 scf_env_do_scf_inner_loop           30  4.0    0.001    0.002   31.242   31.243
 qs_ks_update_qs_env                 32  5.0    0.000    0.000   28.619   28.623
 rebuild_ks_matrix                   30  6.0    0.000    0.000   28.613   28.614
 qs_ks_build_kohn_sham_matrix        30  7.0    0.006    0.008   28.613   28.614
 prepare_gapw_den                    30  8.0    0.001    0.001    8.544    8.594
 pw_transfer                        635 10.1    0.065    0.082    7.758    8.131
 fft_wrap_pw1pw2                    545 11.3    0.008    0.009    7.623    8.008
 fft_wrap_pw1pw2_300                362 12.7    0.486    0.553    7.126    7.478
 qs_vxc_create                       30  8.0    0.001    0.001    6.776    6.776
 xc_vxc_pw_create                    30  9.0    0.045    0.052    6.775    6.776
 fft3d_ps                           545 13.3    3.024    3.563    5.919    6.454
 mp_sum_d                          1293  7.2    5.578    5.857    5.578    5.857
 rs_pw_transfer                     304  9.5    0.008    0.010    4.736    4.990
 calculate_rho0_atom                 60  9.0    3.905    4.613    3.905    4.613
 xc_pw_derive                       180 11.0    0.002    0.002    4.067    4.424
 calculate_rho_atom                  60  9.0    1.301    4.256    1.301    4.256
 calculate_vxc_atom                  30  8.0    0.015    0.234    4.168    4.168
 qs_rho_update_rho                   31  5.0    0.001    0.001    3.964    3.969
 xc_rho_set_and_dset_create          30 10.0    0.046    0.055    3.731    3.843
 gaVxcgb_GC                          60  9.0    0.106    3.820    0.106    3.820
 calculate_rho_elec                  31  6.0    0.022    0.023    3.624    3.625
 integrate_vhg0_rspace               30  8.0    0.338    0.860    3.271    3.345
 sum_up_and_integrate                30  8.0    0.015    0.021    3.312    3.317
 integrate_v_rspace                  30  9.0    0.001    0.001    3.296    3.302
 xc_pw_divergence                    30 10.0    0.001    0.001    2.836    3.196
 mp_alltoall_z22v                   545 15.3    2.250    3.109    2.250    3.109
 density_rs2pw                       31  7.0    0.002    0.005    2.831    2.972
 potential_pw2rs                     30 10.0    0.002    0.002    2.431    2.434
 mp_sum_dm                          184  7.7    2.245    2.381    2.245    2.381
 yz_to_x                            274 13.9    0.288    0.396    1.569    2.174
 mp_sum_dv                          690 12.9    1.749    2.156    1.749    2.156
 rs_pw_transfer_PW2RS_300            60 11.0    1.070    1.291    1.725    1.998
 rs_pw_transfer_RS2PW_300            61 10.0    0.984    1.231    1.781    1.925
 init_scf_loop                        2  4.0    0.000    0.000    1.913    1.913
 xc_functional_eval                 150 10.9    0.000    0.001    1.705    1.873
 pbe_lda_eval                       150 11.9    1.704    1.873    1.704    1.873
 put_rho0_on_grid                    30  9.0    0.025    0.029    1.591    1.641
 mp_waitany                        4840 11.5    1.133    1.525    1.133    1.525
 x_to_yz                            271 14.7    0.334    0.387    1.305    1.486
 Vh_1c_gg_integrals                  30  8.0    0.107    1.156    1.170    1.191
 mp_waitall_1                     52784 14.0    0.873    1.122    0.873    1.122
 grid_collocate_task_list            31  7.0    0.596    1.085    0.596    1.085
 mp_alltoall_d11v                   628 11.8    0.691    0.885    0.691    0.885
 dbcsr_multiply_generic             719 10.1    0.019    0.020    0.852    0.873
 rs_gather_matrices                  30 10.0    0.000    0.006    0.669    0.865
 grid_integrate_task_list            30 10.0    0.196    0.865    0.196    0.865
 pw_gather_p                        274 12.9    0.601    0.774    0.601    0.774
 rs_pw_transfer_PW2RS_100            30 12.0    0.118    0.141    0.613    0.736
 -------------------------------------------------------------------------------

 The number of warnings for this run is : 0
 
 -------------------------------------------------------------------------------
  **** **** ******  **  PROGRAM ENDED AT                 2022-05-31 14:28:11.917
 ***** ** ***  *** **   PROGRAM RAN ON                                   tcopt10
 **    ****   ******    PROGRAM RAN BY                                    hutter
 ***** **    ** ** **   PROGRAM PROCESS ID                                 96674
  **** **  *******  **  PROGRAM STOPPED IN /data/hutter/GITHUB/BASIS/scMOLOPT/PB
                                           E/In
