 DBCSR| CPU Multiplication driver                                           XSMM
 DBCSR| Multrec recursion limit                                              512
 DBCSR| Multiplication stack size                                           1000
 DBCSR| Maximum elements for images                                    UNLIMITED
 DBCSR| Multiplicative factor virtual images                                   1
 DBCSR| Use multiplication densification                                       T
 DBCSR| Multiplication size stacks                                             3
 DBCSR| Use memory pool for CPU allocation                                     F
 DBCSR| Number of 3D layers                                               SINGLE
 DBCSR| Use MPI memory allocation                                              F
 DBCSR| Use RMA algorithm                                                      F
 DBCSR| Use Communication thread                                               T
 DBCSR| Communication thread load                                             87
 DBCSR| MPI: My node id                                                        0
 DBCSR| MPI: Number of nodes                                                  36
 DBCSR| OMP: Current number of threads                                         1
 DBCSR| OMP: Max number of threads                                             1
 DBCSR| Split modifier for TAS multiplication algorithm                  1.0E+00


  **** **** ******  **  PROGRAM STARTED AT               2022-05-31 14:26:53.665
 ***** ** ***  *** **   PROGRAM STARTED ON                               tcopt10
 **    ****   ******    PROGRAM STARTED BY                                hutter
 ***** **    ** ** **   PROGRAM PROCESS ID                                 96491
  **** **  *******  **  PROGRAM STARTED IN /data/hutter/GITHUB/BASIS/scMOLOPT/PB
                                           E/In

 CP2K| version string:                   CP2K version 10.0 (Development Version)
 CP2K| source code revision number:                                  git:d19b00a
 CP2K| cp2kflags: omp libint fftw3 libxc elpa parallel mpi3 scalapack cosma xsmm
 CP2K|             spglib sirius libvori libbqb
 CP2K| is freely available from                            https://www.cp2k.org/
 CP2K| Program compiled at                      Wed 18 May 2022 12:15:59 PM CEST
 CP2K| Program compiled on                                               tcopt10
 CP2K| Program compiled for                                                local
 CP2K| Data directory path                   /data/hutter/GITHUB/TDLRI/cp2k/data
 CP2K| Input file name                                             InCl3-ref.inp

 GLOBAL| Force Environment number                                              1
 GLOBAL| Basis set file name                                        ../def2QZVPP
 GLOBAL| Potential file name                                        ../POTENTIAL
 GLOBAL| MM Potential file name                                     MM_POTENTIAL
 GLOBAL| Coordinate file name                                      __STD_INPUT__
 GLOBAL| Method name                                                        CP2K
 GLOBAL| Project name                                                   refInCl3
 GLOBAL| Run type                                                         ENERGY
 GLOBAL| FFT library                                                       FFTW3
 GLOBAL| Diagonalization library                                            ELPA
 GLOBAL| Minimum number of eigenvectors for ELPA usage                        16
 GLOBAL| Orthonormality check for eigenvectors                          DISABLED
 GLOBAL| Matrix multiplication library                                     COSMA
 GLOBAL| All-to-all communication in single precision                          F
 GLOBAL| FFTs using library dependent lengths                                  F
 GLOBAL| Grid backend                                                       AUTO
 GLOBAL| Global print level                                                  LOW
 GLOBAL| MPI I/O enabled                                                       T
 GLOBAL| Total number of message passing processes                            36
 GLOBAL| Number of threads for this process                                    1
 GLOBAL| This output is from process                                           0
 GLOBAL| Stack size for threads created by OpenMP (OMP_STACKSIZE)        default
 GLOBAL| CPU model name                          AMD EPYC 7401 24-Core Processor
 GLOBAL| CPUID                                                              1002

 MEMORY| system memory details [Kb]
 MEMORY|                        rank 0           min           max       average
 MEMORY| MemTotal            263969132     263969132     263969132     263969132
 MEMORY| MemFree             237255724     237255724     237255724     237255724
 MEMORY| Buffers                  2836          2836          2836          2836
 MEMORY| Cached               20263920      20263920      20263920      20263920
 MEMORY| Slab                  1469500       1469500       1469500       1469500
 MEMORY| SReclaimable           876396        876396        876396        876396
 MEMORY| MemLikelyFree       258398876     258398876     258398876     258398876


 GENERATE|  Preliminary Number of Bonds generated:                             0
 GENERATE|  Achieved consistency in connectivity generation.

 *******************************************************************************
 *******************************************************************************
 **                                                                           **
 **     #####                         ##              ##                      **
 **    ##   ##            ##          ##              ##                      **
 **   ##     ##                       ##            ######                    **
 **   ##     ##  ##   ##  ##   #####  ##  ##   ####   ##    #####    #####    **
 **   ##     ##  ##   ##  ##  ##      ## ##   ##      ##   ##   ##  ##   ##   **
 **   ##  ## ##  ##   ##  ##  ##      ####     ###    ##   ######   ######    **
 **    ##  ###   ##   ##  ##  ##      ## ##      ##   ##   ##       ##        **
 **     #######   #####   ##   #####  ##  ##  ####    ##    #####   ##        **
 **           ##                                                    ##        **
 **                                                                           **
 **                                                ... make the atoms dance   **
 **                                                                           **
 **            Copyright (C) by CP2K developers group (2000-2022)             **
 **                      J. Chem. Phys. 152, 194103 (2020)                    **
 **                                                                           **
 *******************************************************************************


 TOTAL NUMBERS AND MAXIMUM NUMBERS

  Total number of            - Atomic kinds:                                   2
                             - Atoms:                                          4
                             - Shell sets:                                    88
                             - Shells:                                        88
                             - Primitive Cartesian functions:                170
                             - Cartesian basis functions:                    362
                             - Spherical basis functions:                    292

  Maximum angular momentum of- Orbital basis functions:                        4
                             - Local part of the GTH pseudopotential:          4
                             - Non-local part of the GTH pseudopotential:      4


 SCF PARAMETERS         Density guess:                                    ATOMIC
                        --------------------------------------------------------
                        max_scf:                                              20
                        max_scf_history:                                       0
                        max_diis:                                              4
                        --------------------------------------------------------
                        eps_scf:                                        1.00E-07
                        eps_scf_history:                                0.00E+00
                        eps_diis:                                       1.00E-01
                        eps_eigval:                                     1.00E-05
                        --------------------------------------------------------
                        level_shift [a.u.]:                             0.000000
                        --------------------------------------------------------
                        Outer loop SCF in use 
                        No variables optimised in outer loop
                        eps_scf                                         1.00E-07
                        max_scf                                                5
                        No outer loop optimization
                        step_size                                       5.00E-01

 Number of electrons:                                                         72
 Number of occupied orbitals:                                                 36
 Number of molecular orbitals:                                                36

 Number of orbital functions:                                                292
 Number of independent orbital functions:                                    292

 Extrapolation method: initial_guess


 SCF WAVEFUNCTION OPTIMIZATION

  ----------------------------------- OT ---------------------------------------
  Minimizer      : DIIS                : direct inversion
                                         in the iterative subspace
                                         using   7 DIIS vectors
                                         safer DIIS on
  Preconditioner : FULL_ALL            : diagonalization, state selective
  Precond_solver : DEFAULT
  stepsize       :    0.10000000                  energy_gap     :    0.08000000
  eps_taylor     :   0.10000E-15                  max_taylor     :             4
  ----------------------------------- OT ---------------------------------------

  Step     Update method      Time    Convergence         Total energy    Change
  ------------------------------------------------------------------------------
     1 OT DIIS     0.10E+00    1.0     0.17488505     -1523.8373467955 -1.52E+03
     2 OT DIIS     0.10E+00    1.1     0.10385901     -1549.5914686242 -2.58E+01
     3 OT DIIS     0.10E+00    1.1     0.02865384     -1560.7368044549 -1.11E+01
     4 OT DIIS     0.10E+00    1.1     0.02027553     -1561.2966498585 -5.60E-01
     5 OT DIIS     0.10E+00    1.1     0.01124442     -1562.0704302089 -7.74E-01
     6 OT DIIS     0.10E+00    1.1     0.00843466     -1562.3530310358 -2.83E-01
     7 OT DIIS     0.10E+00    1.1     0.00710989     -1562.4750621442 -1.22E-01
     8 OT DIIS     0.10E+00    1.1     0.00523737     -1562.7803992400 -3.05E-01
     9 OT DIIS     0.10E+00    1.2     0.00474284     -1562.8784395278 -9.80E-02
    10 OT SD       0.10E+00    1.2     0.00425485     -1563.0600055846 -1.82E-01
    11 OT DIIS     0.10E+00    1.2     0.00384246     -1563.0778185107 -1.78E-02
    12 OT DIIS     0.10E+00    1.2     0.00430497     -1563.3148509828 -2.37E-01
    13 OT DIIS     0.10E+00    1.2     0.00299580     -1563.2924445149  2.24E-02
    14 OT DIIS     0.10E+00    1.2     0.00290613     -1563.3602060382 -6.78E-02
    15 OT DIIS     0.10E+00    1.2     0.00337891     -1563.3701766948 -9.97E-03
    16 OT DIIS     0.10E+00    1.2     0.00248768     -1563.3808273642 -1.07E-02
    17 OT DIIS     0.10E+00    1.2     0.00168846     -1563.4072714499 -2.64E-02
    18 OT DIIS     0.10E+00    1.2     0.00135577     -1563.4311371053 -2.39E-02
    19 OT DIIS     0.10E+00    1.2     0.00129892     -1563.4426072574 -1.15E-02
    20 OT DIIS     0.10E+00    1.2     0.00111521     -1563.4522959555 -9.69E-03

  Leaving inner SCF loop after reaching    20 steps.


  Electronic density on regular grids:        -47.1017369813       24.8982630187
  Core density on regular grids:               72.0000000000        0.0000000000
  Hard and soft densities (Lebedev):          -77.4615519560      -52.5632891874
  Total Rho_soft + Rho1_hard - Rho1_soft      -71.9999997499
  Total charge density (r-space):               0.0000002501
  Total Rho_soft + Rho0_soft (g-space):        -0.0000006717

  Overlap energy of the core charge distribution:               0.00000000000394
  Self energy of the core charge distribution:               -910.53481370067857
  Core Hamiltonian energy:                                   -720.38200764638191
  Hartree energy:                                             285.71235485017269
  Exchange-correlation energy:                                -29.47357658867707

  GAPW| Exc from hard and soft atomic rho1:                   -70.52301488328416
  GAPW| local Eh = 1 center integrals:                       -118.25123798663464

  Total energy:                                             -1563.45229595547971

  outer SCF iter =    1 RMS gradient =   0.11E-02 energy =      -1563.4522959555

  ----------------------------------- OT ---------------------------------------
  Minimizer      : DIIS                : direct inversion
                                         in the iterative subspace
                                         using   7 DIIS vectors
                                         safer DIIS on
  Preconditioner : FULL_ALL            : diagonalization, state selective
  Precond_solver : DEFAULT
  stepsize       :    0.10000000                  energy_gap     :    0.08000000
  eps_taylor     :   0.10000E-15                  max_taylor     :             4
  ----------------------------------- OT ---------------------------------------

  Step     Update method      Time    Convergence         Total energy    Change
  ------------------------------------------------------------------------------
     1 OT DIIS     0.10E+00    2.4     0.00756212     -1563.4614660013 -9.17E-03
     2 OT DIIS     0.10E+00    1.2     0.00413797     -1563.5073084628 -4.58E-02
     3 OT DIIS     0.10E+00    1.2     0.00145848     -1563.5252021465 -1.79E-02
     4 OT DIIS     0.10E+00    1.2     0.00046535     -1563.5262058753 -1.00E-03
     5 OT DIIS     0.10E+00    1.2     0.00012239     -1563.5263685246 -1.63E-04
     6 OT DIIS     0.10E+00    1.2     0.00003167     -1563.5263818231 -1.33E-05
     7 OT DIIS     0.10E+00    1.2     0.00000996     -1563.5263826779 -8.55E-07
     8 OT DIIS     0.10E+00    1.2     0.00000401     -1563.5263827650 -8.71E-08
     9 OT DIIS     0.10E+00    1.2     0.00000081     -1563.5263827840 -1.90E-08
    10 OT DIIS     0.10E+00    1.2     0.00000022     -1563.5263827847 -6.96E-10
    11 OT DIIS     0.10E+00    1.2     0.00000008     -1563.5263827851 -3.52E-10

  *** SCF run converged in    11 steps ***


  Electronic density on regular grids:        -47.0943555853       24.9056444147
  Core density on regular grids:               72.0000000000        0.0000000000
  Hard and soft densities (Lebedev):          -77.4846355928      -52.5789915552
  Total Rho_soft + Rho1_hard - Rho1_soft      -71.9999996228
  Total charge density (r-space):               0.0000003772
  Total Rho_soft + Rho0_soft (g-space):        -0.0000005445

  Overlap energy of the core charge distribution:               0.00000000000394
  Self energy of the core charge distribution:               -910.53481370067857
  Core Hamiltonian energy:                                   -720.46973862272023
  Hartree energy:                                             285.76369863822583
  Exchange-correlation energy:                                -29.46801925367695

  GAPW| Exc from hard and soft atomic rho1:                   -70.52782828693756
  GAPW| local Eh = 1 center integrals:                       -118.28968155926948

  Total energy:                                             -1563.52638278505287

  outer SCF iter =    2 RMS gradient =   0.82E-07 energy =      -1563.5263827851
  outer SCF loop converged in   2 iterations or   31 steps


 ENERGY| Total FORCE_EVAL ( QS ) energy [a.u.]:            -1563.526382785052874

 -------------------------------------------------------------------------------
 -                                                                             -
 -                                DBCSR STATISTICS                             -
 -                                                                             -
 -------------------------------------------------------------------------------
 COUNTER                                    TOTAL       BLAS       SMM       ACC
 flops     4 x     4 x     4                34176       0.0%    100.0%      0.0%
 flops     4 x     4 x    32               273408       0.0%    100.0%      0.0%
 flops     4 x    32 x     4               273408       0.0%    100.0%      0.0%
 flops    32 x     4 x     4               273408       0.0%    100.0%      0.0%
 flops     4 x     4 x    82               330624       0.0%    100.0%      0.0%
 flops    82 x     4 x     4               411968       0.0%    100.0%      0.0%
 flops     4 x     4 x    70               846720       0.0%    100.0%      0.0%
 flops    70 x     4 x     4              1055040       0.0%    100.0%      0.0%
 flops    82 x    70 x     4              1469440       0.0%    100.0%      0.0%
 flops    82 x    82 x     4              1721344       0.0%    100.0%      0.0%
 flops    32 x    32 x     4              2187264       0.0%    100.0%      0.0%
 flops     4 x    32 x    32              2187264       0.0%    100.0%      0.0%
 flops    32 x     4 x    32              2187264       0.0%    100.0%      0.0%
 flops     4 x    32 x    82              2644992       0.0%    100.0%      0.0%
 flops    32 x     4 x    82              2644992       0.0%    100.0%      0.0%
 flops    70 x    82 x     4              2938880       0.0%    100.0%      0.0%
 flops    82 x    32 x     4              3253760       0.0%    100.0%      0.0%
 flops    82 x     4 x    32              3253760       0.0%    100.0%      0.0%
 flops     4 x    32 x    70              6773760       0.0%    100.0%      0.0%
 flops    32 x     4 x    70              6773760       0.0%    100.0%      0.0%
 flops    70 x    70 x     4              7526400       0.0%    100.0%      0.0%
 flops    82 x     4 x    82              7638464       0.0%    100.0%      0.0%
 flops    70 x     4 x    32              8332800       0.0%    100.0%      0.0%
 flops    70 x    32 x     4              8332800       0.0%    100.0%      0.0%
 flops    82 x    70 x    32             11755520       0.0%    100.0%      0.0%
 flops    82 x    82 x    32             13770752       0.0%    100.0%      0.0%
 flops    32 x    32 x    32             17498112       0.0%    100.0%      0.0%
 flops    70 x     4 x    82             19561920       0.0%    100.0%      0.0%
 flops    82 x     4 x    70             19561920       0.0%    100.0%      0.0%
 flops    32 x    32 x    82             21159936       0.0%    100.0%      0.0%
 flops    70 x    82 x    32             23511040       0.0%    100.0%      0.0%
 flops    82 x    32 x    32             26365952       0.0%    100.0%      0.0%
 flops    70 x     4 x    70             50097600       0.0%    100.0%      0.0%
 flops    32 x    32 x    70             54190080       0.0%    100.0%      0.0%
 flops    70 x    70 x    32             60211200       0.0%    100.0%      0.0%
 flops    82 x    32 x    82             61107712       0.0%    100.0%      0.0%
 flops    70 x    32 x    32             67522560       0.0%    100.0%      0.0%
 flops    82 x    32 x    70            156495360       0.0%    100.0%      0.0%
 flops    70 x    32 x    82            156495360       0.0%    100.0%      0.0%
 flops    70 x    32 x    70            400780800       0.0%    100.0%      0.0%
 flops inhomo. stacks                           0       0.0%      0.0%      0.0%
 flops total                         1.233452E+09       0.0%    100.0%      0.0%
 flops max/rank                    357.750272E+06       0.0%    100.0%      0.0%
 matmuls inhomo. stacks                         0       0.0%      0.0%      0.0%
 matmuls total                              11832       0.0%    100.0%      0.0%
 number of processed stacks                 11832       0.0%    100.0%      0.0%
 average stack size                                     0.0       1.0       0.0
 marketing flops                     1.308808E+09
 -------------------------------------------------------------------------------
 # multiplications                            726
 max memory usage/rank             613.376000E+06
 # max total images/rank                        1
 # max 3D layers                                1
 # MPI messages exchanged                  261360
 MPI messages size (bytes):
  total size                       778.695680E+06
  min size                           0.000000E+00
  max size                          53.792000E+03
  average size                       2.979399E+03
 MPI breakdown and total messages size (bytes):
             size <=      128              215055                   442240
       128 < size <=     8192               22645                 64091520
      8192 < size <=    32768               12300                229862400
     32768 < size <=   131072               11360                484299520
    131072 < size <=  4194304                   0                        0
   4194304 < size <= 16777216                   0                        0
  16777216 < size                               0                        0
 -------------------------------------------------------------------------------
 -                                                                             -
 -                      DBCSR MESSAGE PASSING PERFORMANCE                      -
 -                                                                             -
 -------------------------------------------------------------------------------
 ROUTINE             CALLS      AVE VOLUME [Bytes]
 MP_Bcast               41                     12.
 MP_Allreduce         3937                      8.
 MP_Alltoall          2729                   4215.
 MP_ISend            17416                   3976.
 MP_IRecv            17416                   2470.
 -------------------------------------------------------------------------------

 -------------------------------------------------------------------------------
 -                                                                             -
 -                                GRID STATISTICS                              -
 -                                                                             -
 -------------------------------------------------------------------------------
 LP    KERNEL             BACKEND                              COUNT     PERCENT
 2     collocate ortho    REF                                  43744      12.34%
 2     integrate ortho    REF                                  42377      11.95%
 3     collocate ortho    REF                                  38080      10.74%
 3     integrate ortho    REF                                  36890      10.40%
 1     collocate ortho    REF                                  34688       9.78%
 1     integrate ortho    REF                                  33604       9.48%
 4     collocate ortho    REF                                  27104       7.64%
 4     integrate ortho    REF                                  26257       7.41%
 5     collocate ortho    REF                                  13792       3.89%
 5     integrate ortho    REF                                  13361       3.77%
 0     collocate ortho    REF                                  10848       3.06%
 0     integrate ortho    REF                                  10509       2.96%
 6     collocate ortho    REF                                   5376       1.52%
 6     integrate ortho    REF                                   5208       1.47%
 2     collocate general  REF                                   4464       1.26%
 2     integrate general  REF                                   4464       1.26%
 7     collocate ortho    REF                                   1600       0.45%
 7     integrate ortho    REF                                   1550       0.44%
 8     collocate ortho    REF                                    320       0.09%
 8     integrate ortho    REF                                    310       0.09%
 -------------------------------------------------------------------------------

 MEMORY| Estimated peak process memory [MiB]                                 585

 -------------------------------------------------------------------------------
 -                                                                             -
 -                         MESSAGE PASSING PERFORMANCE                         -
 -                                                                             -
 -------------------------------------------------------------------------------

 ROUTINE             CALLS      AVE VOLUME [Bytes]
 MP_Group                4
 MP_Bcast              971                 275591.
 MP_Allreduce         2625                 388708.
 MP_Sync                78
 MP_Alltoall           638                6419883.
 MP_ISendRecv         6615                 115968.
 MP_Wait             11990
 MP_comm_split          37
 MP_ISend             5000                 291600.
 MP_IRecv             5000                 291600.
 MP_Recv                10                  14016.
 -------------------------------------------------------------------------------


 -------------------------------------------------------------------------------
 -                                                                             -
 -                           R E F E R E N C E S                               -
 -                                                                             -
 -------------------------------------------------------------------------------
 
 CP2K version 10.0 (Development Version), the CP2K developers group (2022).
 CP2K is freely available from https://www.cp2k.org/ .

 Kuehne,Thomas D.; Iannuzzi,Marcella; Del Ben,Mauro;
 Rybkin,Vladimir V.; Seewald,Patrick; Stein,Frederick; Laino,Teodoro;
 Khaliullin,Rustam Z.; Schuett,Ole; Schiffmann,Florian; Golze,Dorothea;
 Wilhelm,Jan; Chulkov,Sergey; Bani-Hashemian,Mohammad Hossein;
 Weber,Valery; Borstnik,Urban; Taillefumier,Mathieu;
 Jakobovits,Alice Shoshana; Lazzaro,Alfio; Pabst,Hans; Mueller,Tiziano;
 Schade,Robert; Guidon,Manuel; Andermatt,Samuel; Holmberg,Nico;
 Schenter,Gregory K.; Hehn,Anna; Bussy,Augustin; Belleflamme,Fabian;
 Tabacchi,Gloria; Gloess,Andreas; Lass,Michael; Bethune,Iain;
 Mundy,Christopher J.; Plessl,Christian; Watkins,Matt;
 VandeVondele,Joost; Krack,Matthias; Hutter,Juerg. 
 The Journal of Chemical Physics, 152 (19), (2020). 
 CP2K: An electronic structure and molecular dynamics software package -
 Quickstep: Efficient and accurate electronic structure calculations.
 https://doi.org/10.1063/5.0007045

 Schuett, Ole; Messmer, Peter; Hutter, Juerg; VandeVondele, Joost. 
 Electronic Structure Calculations on Graphics Processing Units, John
 Wiley & Sons, Ltd, 173-190 (2016). 
 GPU-Accelerated Sparse Matrix-Matrix Multiplication for
 Linear Scaling Density Functional Theory.
 https://doi.org/10.1002/9781118670712.ch8

 Heinecke, A; Henry, G; Hutchinson, M; Pabst, H. 
 Proceedings of Intl. Supercomputing Conference, 981-991 (2016). 
 LIBXSMM: Accelerating Small Matrix Multiplications
 by Runtime Code Generation.
 https://doi.org/10.1109/SC.2016.83

 Borstnik, U; VandeVondele, J; Weber, V; Hutter, J. 
 PARALLEL COMPUTING, 40 (5-6), 47-58 (2014). 
 Sparse matrix multiplication: The distributed block-compressed sparse
 row library.
 https://doi.org/10.1016/j.parco.2014.03.012

 Hutter, J; Iannuzzi, M; Schiffmann, F; VandeVondele, J. 
 WIREs Comput Mol Sci., 4 (1), 15-25 (2014). 
 CP2K: atomistic simulations of condensed matter systems.
 https://doi.org/10.1002/wcms.1159

 Marek, A; Blum, V; Johanni, R; Havu, V; Lang, B; Auckenthaler, T;
 Heinecke, A; Bungartz, H; Lederer, H. 
 Journal of Physics: Condensed Matter, 26 (21), (2014). 
 The ELPA library: scalable parallel eigenvalue solutions for
 electronic structure
 theory and computational science.
 https://doi.org/10.1088/0953-8984/26/21/213201

 Krack, M. 
 THEORETICAL CHEMISTRY ACCOUNTS, 114 (1-3), 145-152 (2005). 
 Pseudopotentials for H to Kr optimized for gradient-corrected
 exchange-correlation functionals.
 https://doi.org/10.1007/s00214-005-0655-y

 Frigo, M; Johnson, SG. 
 PROCEEDINGS OF THE IEEE, 93 (2), 216-231 (2005). 
 The design and implementation of FFTW3.
 https://doi.org/10.1109/JPROC.2004.840301

 VandeVondele, J; Hutter, J. 
 JOURNAL OF CHEMICAL PHYSICS, 118 (10), 4365-4369 (2003). 
 An efficient orbital transformation method for electronic structure
 calculations.
 https://doi.org/10.1063/1.1543154

 Lippert, G; Hutter, J; Parrinello, M. 
 THEORETICAL CHEMISTRY ACCOUNTS, 103 (2), 124-140 (1999). 
 The Gaussian and augmented-plane-wave density functional method for ab
 initio molecular dynamics simulations.
 https://doi.org/10.1007/s002140050523

 Krack, M; Parrinello, M. 
 PHYSICAL CHEMISTRY CHEMICAL PHYSICS, 2 (10), 2105-2112 (2000). 
 All-electron ab-initio molecular dynamics.
 https://doi.org/10.1039/b001167n

 Hartwigsen, C; Goedecker, S; Hutter, J. 
 PHYSICAL REVIEW B, 58 (7), 3641-3662 (1998). 
 Relativistic separable dual-space Gaussian pseudopotentials from H to Rn.
 https://doi.org/10.1103/PhysRevB.58.3641

 Perdew, JP; Burke, K; Ernzerhof, M. 
 PHYSICAL REVIEW LETTERS, 77 (18), 3865-3868 (1996). 
 Generalized gradient approximation made simple.
 https://doi.org/10.1103/PhysRevLett.77.3865

 Goedecker, S; Teter, M; Hutter, J. 
 PHYSICAL REVIEW B, 54 (3), 1703-1710 (1996). 
 Separable dual-space Gaussian pseudopotentials.
 https://doi.org/10.1103/PhysRevB.54.1703


 -------------------------------------------------------------------------------
 -                                                                             -
 -                                T I M I N G                                  -
 -                                                                             -
 -------------------------------------------------------------------------------
 SUBROUTINE                       CALLS  ASD         SELF TIME        TOTAL TIME
                                MAXIMUM       AVERAGE  MAXIMUM  AVERAGE  MAXIMUM
 CP2K                                 1  1.0    0.019    0.034   37.178   37.182
 qs_energies                          1  2.0    0.000    0.000   36.880   36.884
 scf_env_do_scf                       1  3.0    0.000    0.000   36.390   36.394
 scf_env_do_scf_inner_loop           31  4.0    0.001    0.002   34.370   34.374
 qs_ks_update_qs_env                 33  5.0    0.000    0.001   31.410   31.417
 rebuild_ks_matrix                   31  6.0    0.000    0.000   31.404   31.409
 qs_ks_build_kohn_sham_matrix        31  7.0    0.006    0.008   31.404   31.409
 prepare_gapw_den                    31  8.0    0.001    0.001    9.955   10.014
 pw_transfer                        656 10.1    0.069    0.084    7.919    8.185
 fft_wrap_pw1pw2                    563 11.3    0.008    0.010    7.778    8.043
 fft_wrap_pw1pw2_300                374 12.7    0.497    0.564    7.257    7.492
 qs_vxc_create                       31  8.0    0.001    0.001    6.843    6.844
 xc_vxc_pw_create                    31  9.0    0.047    0.057    6.843    6.843
 fft3d_ps                           563 13.3    3.068    3.856    6.034    6.407
 calculate_rho0_atom                 62  9.0    5.223    6.194    5.223    6.194
 mp_sum_d                          1410  7.5    5.438    5.810    5.438    5.810
 rs_pw_transfer                     314  9.5    0.008    0.011    4.851    5.189
 xc_pw_derive                       186 11.0    0.002    0.002    4.113    4.430
 qs_rho_update_rho                   32  5.0    0.001    0.001    4.271    4.276
 calculate_rho_atom                  62  9.0    1.319    4.221    1.319    4.221
 integrate_vhg0_rspace               31  8.0    0.523    1.119    4.052    4.121
 calculate_vxc_atom                  31  8.0    0.021    0.229    4.107    4.108
 xc_rho_set_and_dset_create          31 10.0    0.047    0.061    3.694    3.790
 calculate_rho_elec                  32  6.0    0.023    0.023    3.787    3.787
 sum_up_and_integrate                31  8.0    0.016    0.022    3.768    3.774
 gaVxcgb_GC                          62  9.0    0.185    3.767    0.185    3.767
 integrate_v_rspace                  31  9.0    0.001    0.001    3.752    3.760
 xc_pw_divergence                    31 10.0    0.001    0.001    2.942    3.262
 mp_alltoall_z22v                   563 15.3    2.331    3.139    2.331    3.139
 density_rs2pw                       32  7.0    0.002    0.002    2.878    3.129
 mp_sum_dm                          380  7.7    2.937    3.121    2.937    3.121
 mp_sum_dv                         1066 13.0    1.771    2.960    1.771    2.960
 potential_pw2rs                     31 10.0    0.002    0.002    2.506    2.509
 yz_to_x                            283 13.9    0.289    0.390    1.627    2.209
 rs_pw_transfer_RS2PW_300            63 10.0    0.971    1.243    1.820    2.068
 rs_pw_transfer_PW2RS_300            62 11.0    1.107    1.346    1.774    2.053
 init_scf_loop                        2  4.0    0.000    0.000    2.019    2.019
 xc_functional_eval                 155 10.8    0.000    0.001    1.699    1.846
 pbe_lda_eval                       155 11.8    1.699    1.846    1.699    1.846
 put_rho0_on_grid                    31  9.0    0.026    0.036    1.648    1.706
 mp_waitany                        5000 11.5    1.191    1.574    1.191    1.574
 x_to_yz                            280 14.7    0.324    0.375    1.316    1.549
 mp_alltoall_d11v                   660 11.9    0.906    1.262    0.906    1.262
 rs_gather_matrices                  31 10.0    0.001    0.004    0.887    1.243
 grid_integrate_task_list            31 10.0    0.357    1.241    0.357    1.241
 grid_collocate_task_list            32  7.0    0.704    1.238    0.704    1.238
 Vh_1c_gg_integrals                  31  8.0    0.123    1.151    1.165    1.190
 mp_waitall_1                     53454 13.9    0.935    1.182    0.935    1.182
 dbcsr_multiply_generic             726 10.1    0.019    0.020    0.989    1.029
 pw_gather_p                        283 12.9    0.618    0.785    0.618    0.785
 rs_pw_transfer_PW2RS_100            31 12.0    0.120    0.145    0.624    0.766
 -------------------------------------------------------------------------------

 The number of warnings for this run is : 0
 
 -------------------------------------------------------------------------------
  **** **** ******  **  PROGRAM ENDED AT                 2022-05-31 14:27:31.199
 ***** ** ***  *** **   PROGRAM RAN ON                                   tcopt10
 **    ****   ******    PROGRAM RAN BY                                    hutter
 ***** **    ** ** **   PROGRAM PROCESS ID                                 96491
  **** **  *******  **  PROGRAM STOPPED IN /data/hutter/GITHUB/BASIS/scMOLOPT/PB
                                           E/In
