 DBCSR| CPU Multiplication driver                                           XSMM
 DBCSR| Multrec recursion limit                                              512
 DBCSR| Multiplication stack size                                           1000
 DBCSR| Maximum elements for images                                    UNLIMITED
 DBCSR| Multiplicative factor virtual images                                   1
 DBCSR| Use multiplication densification                                       T
 DBCSR| Multiplication size stacks                                             3
 DBCSR| Use memory pool for CPU allocation                                     F
 DBCSR| Number of 3D layers                                               SINGLE
 DBCSR| Use MPI memory allocation                                              F
 DBCSR| Use RMA algorithm                                                      F
 DBCSR| Use Communication thread                                               T
 DBCSR| Communication thread load                                             87
 DBCSR| MPI: My node id                                                        0
 DBCSR| MPI: Number of nodes                                                  48
 DBCSR| OMP: Current number of threads                                         1
 DBCSR| OMP: Max number of threads                                             1
 DBCSR| Split modifier for TAS multiplication algorithm                  1.0E+00


  **** **** ******  **  PROGRAM STARTED AT               2022-05-13 15:46:46.147
 ***** ** ***  *** **   PROGRAM STARTED ON                               tcopt10
 **    ****   ******    PROGRAM STARTED BY                                hutter
 ***** **    ** ** **   PROGRAM PROCESS ID                                  6280
  **** **  *******  **  PROGRAM STARTED IN /data/hutter/GITHUB/BASIS/scMOLOPT/PB
                                           E/Mn

 CP2K| version string:                   CP2K version 10.0 (Development Version)
 CP2K| source code revision number:                                  git:13fcfd8
 CP2K| cp2kflags: omp libint fftw3 libxc elpa parallel mpi3 scalapack cosma xsmm
 CP2K|             spglib sirius libvori libbqb
 CP2K| is freely available from                            https://www.cp2k.org/
 CP2K| Program compiled at                      Tue 10 May 2022 02:27:21 PM CEST
 CP2K| Program compiled on                                               tcopt10
 CP2K| Program compiled for                                                local
 CP2K| Data directory path                   /data/hutter/GITHUB/TDLRI/cp2k/data
 CP2K| Input file name                                              MnF2-ref.inp

 GLOBAL| Force Environment number                                              1
 GLOBAL| Basis set file name                                        ../def2QZVPP
 GLOBAL| Potential file name                                        ../POTENTIAL
 GLOBAL| MM Potential file name                                     MM_POTENTIAL
 GLOBAL| Coordinate file name                                      __STD_INPUT__
 GLOBAL| Method name                                                        CP2K
 GLOBAL| Project name                                                    refMnF2
 GLOBAL| Run type                                                         ENERGY
 GLOBAL| FFT library                                                       FFTW3
 GLOBAL| Diagonalization library                                       ScaLAPACK
 GLOBAL| Orthonormality check for eigenvectors                          DISABLED
 GLOBAL| Matrix multiplication library                                     COSMA
 GLOBAL| All-to-all communication in single precision                          F
 GLOBAL| FFTs using library dependent lengths                                  F
 GLOBAL| Grid backend                                                       AUTO
 GLOBAL| Global print level                                                  LOW
 GLOBAL| MPI I/O enabled                                                       T
 GLOBAL| Total number of message passing processes                            48
 GLOBAL| Number of threads for this process                                    1
 GLOBAL| This output is from process                                           0
 GLOBAL| Stack size for threads created by OpenMP (OMP_STACKSIZE)        default
 GLOBAL| CPU model name                          AMD EPYC 7401 24-Core Processor
 GLOBAL| CPUID                                                              1002

 MEMORY| system memory details [Kb]
 MEMORY|                        rank 0           min           max       average
 MEMORY| MemTotal            263969136     263969136     263969136     263969136
 MEMORY| MemFree             237787744     237787744     237787744     237787744
 MEMORY| Buffers                   136           136           136           136
 MEMORY| Cached               18977376      18977376      18977376      18977376
 MEMORY| Slab                  1429856       1429856       1429856       1429856
 MEMORY| SReclaimable           873444        873444        873444        873444
 MEMORY| MemLikelyFree       257638700     257638700     257638700     257638700


 GENERATE|  Preliminary Number of Bonds generated:                             0
 GENERATE|  Achieved consistency in connectivity generation.

 *******************************************************************************
 *******************************************************************************
 **                                                                           **
 **     #####                         ##              ##                      **
 **    ##   ##            ##          ##              ##                      **
 **   ##     ##                       ##            ######                    **
 **   ##     ##  ##   ##  ##   #####  ##  ##   ####   ##    #####    #####    **
 **   ##     ##  ##   ##  ##  ##      ## ##   ##      ##   ##   ##  ##   ##   **
 **   ##  ## ##  ##   ##  ##  ##      ####     ###    ##   ######   ######    **
 **    ##  ###   ##   ##  ##  ##      ## ##      ##   ##   ##       ##        **
 **     #######   #####   ##   #####  ##  ##  ####    ##    #####   ##        **
 **           ##                                                    ##        **
 **                                                                           **
 **                                                ... make the atoms dance   **
 **                                                                           **
 **            Copyright (C) by CP2K developers group (2000-2022)             **
 **                      J. Chem. Phys. 152, 194103 (2020)                    **
 **                                                                           **
 *******************************************************************************


 TOTAL NUMBERS AND MAXIMUM NUMBERS

  Total number of            - Atomic kinds:                                   2
                             - Atoms:                                          3
                             - Shell sets:                                    62
                             - Shells:                                        62
                             - Primitive Cartesian functions:                116
                             - Cartesian basis functions:                    273
                             - Spherical basis functions:                    214

  Maximum angular momentum of the orbital basis functions:                     4


 SCF PARAMETERS         Density guess:                                   RESTART
                        --------------------------------------------------------
                        max_scf:                                              40
                        max_scf_history:                                       0
                        max_diis:                                              4
                        --------------------------------------------------------
                        eps_scf:                                        1.00E-06
                        eps_scf_history:                                0.00E+00
                        eps_diis:                                       1.00E-01
                        eps_eigval:                                     1.00E-05
                        --------------------------------------------------------
                        level_shift [a.u.]:                             0.000000
                        --------------------------------------------------------
                        Outer loop SCF in use 
                        No variables optimised in outer loop
                        eps_scf                                         1.00E-06
                        max_scf                                                1
                        No outer loop optimization
                        step_size                                       5.00E-01

 Spin 1

 Number of electrons:                                                         22
 Number of occupied orbitals:                                                 22
 Number of molecular orbitals:                                                22

 Spin 2

 Number of electrons:                                                         21
 Number of occupied orbitals:                                                 21
 Number of molecular orbitals:                                                21

 Number of orbital functions:                                                214
 Number of independent orbital functions:                                    214

 Extrapolation method: initial_guess


 SCF WAVEFUNCTION OPTIMIZATION

  ----------------------------------- OT ---------------------------------------
  Minimizer      : DIIS                : direct inversion
                                         in the iterative subspace
                                         using   7 DIIS vectors
                                         safer DIIS on
  Preconditioner : FULL_ALL            : diagonalization, state selective
  Precond_solver : DEFAULT
  stepsize       :    0.10000000                  energy_gap     :    0.08000000
  eps_taylor     :   0.10000E-15                  max_taylor     :             4
  ----------------------------------- OT ---------------------------------------

  Step     Update method      Time    Convergence         Total energy    Change
  ------------------------------------------------------------------------------
     1 OT DIIS     0.10E+00    2.1     0.00000549     -1350.4329906854 -1.35E+03
     2 OT DIIS     0.10E+00    2.5     0.00000311     -1350.4329907058 -2.04E-08
     3 OT DIIS     0.10E+00    2.4     0.00000186     -1350.4329907149 -9.15E-09
     4 OT DIIS     0.10E+00    2.4     0.00000095     -1350.4329907199 -4.94E-09

  *** SCF run converged in     4 steps ***


  Electronic density on regular grids:        -29.2139892258       13.7860107742
  Core density on regular grids:               43.0000000000        0.0000000000
  Hard and soft densities (Lebedev):          -54.1003627397      -40.3143539905
  Total Rho_soft + Rho1_hard - Rho1_soft      -42.9999979749
  Total charge density (r-space):               0.0000020251
  Total Rho_soft + Rho0_soft (g-space):        -0.0000016835

  Overlap energy of the core charge distribution:               0.00000000000037
  Self energy of the core charge distribution:               -692.16580637966183
  Core Hamiltonian energy:                                   -702.44149041855667
  Hartree energy:                                             104.14961725697668
  Exchange-correlation energy:                                -21.33737558365968

  GAPW| Exc from hard and soft atomic rho1:                   -51.18342058366173
  GAPW| local Eh = 1 center integrals:                         12.54548498869084

  Total energy:                                             -1350.43299071987212

  outer SCF iter =    1 RMS gradient =   0.95E-06 energy =      -1350.4329907199
  outer SCF loop converged in   1 iterations or    4 steps


  Integrated absolute spin density  :                               2.2779021997
  Ideal and single determinant S**2 :                    0.750000       2.558488

 ENERGY| Total FORCE_EVAL ( QS ) energy [a.u.]:            -1350.432990719872123

 -------------------------------------------------------------------------------
 -                                                                             -
 -                                DBCSR STATISTICS                             -
 -                                                                             -
 -------------------------------------------------------------------------------
 COUNTER                                    TOTAL       BLAS       SMM       ACC
 flops    21 x    21 x    21                74088       0.0%    100.0%      0.0%
 flops    22 x    22 x    22                85184       0.0%    100.0%      0.0%
 flops    57 x    21 x    21              1055754       0.0%    100.0%      0.0%
 flops    57 x    22 x    22              1158696       0.0%    100.0%      0.0%
 flops    57 x   100 x    21              1197000       0.0%    100.0%      0.0%
 flops   100 x    57 x    21              1197000       0.0%    100.0%      0.0%
 flops    57 x   100 x    22              1254000       0.0%    100.0%      0.0%
 flops   100 x    57 x    22              1254000       0.0%    100.0%      0.0%
 flops    21 x    21 x   100              1499400       0.0%    100.0%      0.0%
 flops    22 x    22 x   100              1645600       0.0%    100.0%      0.0%
 flops    21 x    21 x    57              1709316       0.0%    100.0%      0.0%
 flops    22 x    22 x    57              1875984       0.0%    100.0%      0.0%
 flops    57 x    57 x    21              2046870       0.0%    100.0%      0.0%
 flops   100 x   100 x    21              2100000       0.0%    100.0%      0.0%
 flops    57 x    57 x    22              2144340       0.0%    100.0%      0.0%
 flops   100 x   100 x    22              2200000       0.0%    100.0%      0.0%
 flops   157 x    21 x    21              2907954       0.0%    100.0%      0.0%
 flops   157 x    22 x    22              3191496       0.0%    100.0%      0.0%
 flops   100 x    22 x   100              6160000       0.0%    100.0%      0.0%
 flops   100 x    21 x   100              6300000       0.0%    100.0%      0.0%
 flops   157 x    21 x   100              6594000       0.0%    100.0%      0.0%
 flops   157 x    22 x   100              6908000       0.0%    100.0%      0.0%
 flops   100 x    22 x    57              7022400       0.0%    100.0%      0.0%
 flops   100 x    21 x    57              7182000       0.0%    100.0%      0.0%
 flops   157 x    21 x    57              7517160       0.0%    100.0%      0.0%
 flops   157 x    22 x    57              7875120       0.0%    100.0%      0.0%
 flops    57 x    22 x   100              9530400       0.0%    100.0%      0.0%
 flops    57 x    21 x   100              9576000       0.0%    100.0%      0.0%
 flops    57 x    22 x    57             10864656       0.0%    100.0%      0.0%
 flops    57 x    21 x    57             10916640       0.0%    100.0%      0.0%
 flops inhomo. stacks                           0       0.0%      0.0%      0.0%
 flops total                       125.043058E+06       0.0%    100.0%      0.0%
 flops max/rank                     88.046410E+06       0.0%    100.0%      0.0%
 matmuls inhomo. stacks                         0       0.0%      0.0%      0.0%
 matmuls total                                635       0.0%    100.0%      0.0%
 number of processed stacks                   635       0.0%    100.0%      0.0%
 average stack size                                     0.0       1.0       0.0
 marketing flops                   131.738032E+06
 -------------------------------------------------------------------------------
 # multiplications                            145
 max memory usage/rank             632.246272E+06
 # max total images/rank                        3
 # max 3D layers                                1
 # MPI messages exchanged                  139200
 MPI messages size (bytes):
  total size                       243.440160E+06
  min size                           0.000000E+00
  max size                         125.600000E+03
  average size                       1.748852E+03
 MPI breakdown and total messages size (bytes):
             size <=      128              132625                        0
       128 < size <=     8192                 238                   880600
      8192 < size <=    32768                4181                 73106608
     32768 < size <=   131072                2156                169452976
    131072 < size <=  4194304                   0                        0
   4194304 < size <= 16777216                   0                        0
  16777216 < size                               0                        0
 -------------------------------------------------------------------------------

 *** WARNING in dbcsr_mm.F:290 :: Using a non-square number of MPI ranks ***
 *** might lead to poor performance. Used ranks: 48 Suggested: 49 100    ***

 -------------------------------------------------------------------------------
 -                                                                             -
 -                      DBCSR MESSAGE PASSING PERFORMANCE                      -
 -                                                                             -
 -------------------------------------------------------------------------------
 ROUTINE             CALLS      AVE VOLUME [Bytes]
 MP_Bcast               31                     12.
 MP_Allreduce          812                     10.
 MP_Alltoall           873                  10454.
 MP_ISend             6480                   3170.
 MP_IRecv             6450                   1652.
 -------------------------------------------------------------------------------

 -------------------------------------------------------------------------------
 -                                                                             -
 -                                GRID STATISTICS                              -
 -                                                                             -
 -------------------------------------------------------------------------------
 LP    KERNEL             BACKEND                              COUNT     PERCENT
 3     collocate ortho    REF                                   4760      11.46%
 2     collocate ortho    REF                                   4690      11.29%
 1     collocate ortho    REF                                   4060       9.78%
 3     integrate ortho    REF                                   3808       9.17%
 2     integrate ortho    REF                                   3752       9.04%
 4     collocate ortho    REF                                   3650       8.79%
 1     integrate ortho    REF                                   3248       7.82%
 4     integrate ortho    REF                                   2920       7.03%
 5     collocate ortho    REF                                   2220       5.35%
 5     integrate ortho    REF                                   1776       4.28%
 0     collocate ortho    REF                                   1580       3.80%
 0     integrate ortho    REF                                   1264       3.04%
 6     collocate ortho    REF                                    950       2.29%
 6     integrate ortho    REF                                    760       1.83%
 2     collocate general  REF                                    576       1.39%
 2     integrate general  REF                                    576       1.39%
 7     collocate ortho    REF                                    420       1.01%
 7     integrate ortho    REF                                    336       0.81%
 8     collocate ortho    REF                                    100       0.24%
 8     integrate ortho    REF                                     80       0.19%
 -------------------------------------------------------------------------------

 MEMORY| Estimated peak process memory [MiB]                                 603

 -------------------------------------------------------------------------------
 -                                                                             -
 -                         MESSAGE PASSING PERFORMANCE                         -
 -                                                                             -
 -------------------------------------------------------------------------------

 ROUTINE             CALLS      AVE VOLUME [Bytes]
 MP_Group                4
 MP_Bcast              186                1007545.
 MP_Allreduce          627                 147327.
 MP_Sync                16
 MP_Alltoall           197               12984737.
 MP_ISendRecv         1692                  53640.
 MP_Wait              2836
 MP_comm_split           6
 MP_ISend              968                 513015.
 MP_IRecv              968                 513413.
 MP_Recv                20                   3424.
 -------------------------------------------------------------------------------


 -------------------------------------------------------------------------------
 -                                                                             -
 -                           R E F E R E N C E S                               -
 -                                                                             -
 -------------------------------------------------------------------------------
 
 CP2K version 10.0 (Development Version), the CP2K developers group (2022).
 CP2K is freely available from https://www.cp2k.org/ .

 Kuehne,Thomas D.; Iannuzzi,Marcella; Del Ben,Mauro;
 Rybkin,Vladimir V.; Seewald,Patrick; Stein,Frederick; Laino,Teodoro;
 Khaliullin,Rustam Z.; Schuett,Ole; Schiffmann,Florian; Golze,Dorothea;
 Wilhelm,Jan; Chulkov,Sergey; Bani-Hashemian,Mohammad Hossein;
 Weber,Valery; Borstnik,Urban; Taillefumier,Mathieu;
 Jakobovits,Alice Shoshana; Lazzaro,Alfio; Pabst,Hans; Mueller,Tiziano;
 Schade,Robert; Guidon,Manuel; Andermatt,Samuel; Holmberg,Nico;
 Schenter,Gregory K.; Hehn,Anna; Bussy,Augustin; Belleflamme,Fabian;
 Tabacchi,Gloria; Gloess,Andreas; Lass,Michael; Bethune,Iain;
 Mundy,Christopher J.; Plessl,Christian; Watkins,Matt;
 VandeVondele,Joost; Krack,Matthias; Hutter,Juerg. 
 The Journal of Chemical Physics, 152 (19), (2020). 
 CP2K: An electronic structure and molecular dynamics software package -
 Quickstep: Efficient and accurate electronic structure calculations.
 https://doi.org/10.1063/5.0007045

 Schuett, Ole; Messmer, Peter; Hutter, Juerg; VandeVondele, Joost. 
 Electronic Structure Calculations on Graphics Processing Units, John
 Wiley & Sons, Ltd, 173-190 (2016). 
 GPU-Accelerated Sparse Matrix-Matrix Multiplication for
 Linear Scaling Density Functional Theory.
 https://doi.org/10.1002/9781118670712.ch8

 Heinecke, A; Henry, G; Hutchinson, M; Pabst, H. 
 Proceedings of Intl. Supercomputing Conference, 981-991 (2016). 
 LIBXSMM: Accelerating Small Matrix Multiplications
 by Runtime Code Generation.
 https://doi.org/10.1109/SC.2016.83

 Borstnik, U; VandeVondele, J; Weber, V; Hutter, J. 
 PARALLEL COMPUTING, 40 (5-6), 47-58 (2014). 
 Sparse matrix multiplication: The distributed block-compressed sparse
 row library.
 https://doi.org/10.1016/j.parco.2014.03.012

 Hutter, J; Iannuzzi, M; Schiffmann, F; VandeVondele, J. 
 WIREs Comput Mol Sci., 4 (1), 15-25 (2014). 
 CP2K: atomistic simulations of condensed matter systems.
 https://doi.org/10.1002/wcms.1159

 Frigo, M; Johnson, SG. 
 PROCEEDINGS OF THE IEEE, 93 (2), 216-231 (2005). 
 The design and implementation of FFTW3.
 https://doi.org/10.1109/JPROC.2004.840301

 VandeVondele, J; Hutter, J. 
 JOURNAL OF CHEMICAL PHYSICS, 118 (10), 4365-4369 (2003). 
 An efficient orbital transformation method for electronic structure
 calculations.
 https://doi.org/10.1063/1.1543154

 Lippert, G; Hutter, J; Parrinello, M. 
 THEORETICAL CHEMISTRY ACCOUNTS, 103 (2), 124-140 (1999). 
 The Gaussian and augmented-plane-wave density functional method for ab
 initio molecular dynamics simulations.
 https://doi.org/10.1007/s002140050523

 Krack, M; Parrinello, M. 
 PHYSICAL CHEMISTRY CHEMICAL PHYSICS, 2 (10), 2105-2112 (2000). 
 All-electron ab-initio molecular dynamics.
 https://doi.org/10.1039/b001167n

 Perdew, JP; Burke, K; Ernzerhof, M. 
 PHYSICAL REVIEW LETTERS, 77 (18), 3865-3868 (1996). 
 Generalized gradient approximation made simple.
 https://doi.org/10.1103/PhysRevLett.77.3865


 -------------------------------------------------------------------------------
 -                                                                             -
 -                                T I M I N G                                  -
 -                                                                             -
 -------------------------------------------------------------------------------
 SUBROUTINE                       CALLS  ASD         SELF TIME        TOTAL TIME
                                MAXIMUM       AVERAGE  MAXIMUM  AVERAGE  MAXIMUM
 CP2K                                 1  1.0    0.016    0.039   10.839   10.840
 qs_energies                          1  2.0    0.000    0.000   10.479   10.479
 scf_env_do_scf                       1  3.0    0.000    0.000    9.846    9.846
 qs_ks_update_qs_env                  5  5.0    0.000    0.000    8.026    8.027
 rebuild_ks_matrix                    4  6.0    0.000    0.000    8.025    8.026
 qs_ks_build_kohn_sham_matrix         4  7.0    0.001    0.001    8.025    8.026
 scf_env_do_scf_inner_loop            4  4.0    0.000    0.000    7.765    7.765
 pw_transfer                        158 10.1    0.020    0.023    3.283    3.556
 fft_wrap_pw1pw2                    146 11.2    0.002    0.003    3.242    3.517
 fft_wrap_pw1pw2_300                 92 12.7    0.238    0.256    3.104    3.359
 fft3d_ps                           146 13.2    1.267    1.598    2.379    2.687
 qs_vxc_create                        4  8.0    0.000    0.000    2.643    2.643
 xc_vxc_pw_create                     4  9.0    0.036    0.043    2.643    2.643
 xc_pw_derive                        48 11.0    0.001    0.001    1.900    2.189
 init_scf_loop                        1  4.0    0.000    0.000    2.079    2.079
 qs_rho_update_rho                    5  5.0    0.000    0.000    1.961    1.962
 prepare_gapw_den                     4  8.0    0.000    0.000    1.903    1.912
 rs_pw_transfer                      80  9.3    0.002    0.004    1.821    1.906
 calculate_rho_elec                  10  6.0    0.010    0.011    1.878    1.878
 density_rs2pw                       10  7.0    0.001    0.001    1.547    1.632
 xc_pw_divergence                     8 10.0    0.000    0.000    1.303    1.556
 sum_up_and_integrate                 4  8.0    0.009    0.012    1.451    1.453
 integrate_v_rspace                   8  9.0    0.000    0.000    1.442    1.446
 xc_rho_set_and_dset_create           4 10.0    0.033    0.042    1.246    1.409
 mp_sum_d                           604  3.2    1.214    1.314    1.214    1.314
 calculate_rho0_atom                  8  9.0    1.224    1.304    1.224    1.304
 mp_alltoall_z22v                   146 15.2    0.749    1.159    0.749    1.159
 calculate_rho_atom                   8  9.0    0.207    1.015    0.207    1.016
 potential_pw2rs                      8 10.0    0.001    0.001    0.974    0.977
 calculate_vxc_atom                   4  8.0    0.004    0.032    0.972    0.972
 yz_to_x                             66 13.9    0.174    0.215    0.646    0.939
 gaVxcgb_GC                           4  9.0    0.028    0.927    0.028    0.927
 rs_pw_transfer_RS2PW_300            14  9.6    0.381    0.444    0.726    0.802
 mp_waitany                         968 11.4    0.563    0.688    0.563    0.688
 grid_collocate_task_list            10  7.0    0.259    0.639    0.259    0.639
 integrate_vhg0_rspace                4  8.0    0.064    0.158    0.622    0.631
 rs_pw_transfer_PW2RS_300            12 11.3    0.369    0.386    0.563    0.586
 x_to_yz                             62 14.7    0.172    0.192    0.447    0.515
 mp_alltoall_d11v                   291 10.6    0.448    0.481    0.448    0.481
 rs_gather_matrices                   8 10.0    0.000    0.003    0.435    0.468
 grid_integrate_task_list             8 10.0    0.033    0.467    0.033    0.467
 xc_functional_eval                  12 10.9    0.000    0.000    0.294    0.450
 pbe_lsd_eval                        12 11.9    0.294    0.450    0.294    0.450
 mp_sum_dm                           72  7.3    0.413    0.431    0.413    0.431
 mp_sum_dv                           30 11.7    0.123    0.429    0.123    0.429
 init_scf_run                         1  3.0    0.000    0.000    0.408    0.408
 scf_env_initial_rho_setup            1  4.0    0.000    0.000    0.408    0.408
 put_rho0_on_grid                     4  9.0    0.005    0.007    0.349    0.359
 pw_gather_p                         76 12.7    0.309    0.333    0.309    0.333
 pw_scatter_p                        70 13.7    0.305    0.332    0.305    0.332
 qs_init_subsys                       1  2.0    0.006    0.006    0.283    0.283
 qs_energies_init_hamiltonians        1  3.0    0.000    0.000    0.217    0.217
 -------------------------------------------------------------------------------

 The number of warnings for this run is : 1
 
 -------------------------------------------------------------------------------
  **** **** ******  **  PROGRAM ENDED AT                 2022-05-13 15:46:57.425
 ***** ** ***  *** **   PROGRAM RAN ON                                   tcopt10
 **    ****   ******    PROGRAM RAN BY                                    hutter
 ***** **    ** ** **   PROGRAM PROCESS ID                                  6280
  **** **  *******  **  PROGRAM STOPPED IN /data/hutter/GITHUB/BASIS/scMOLOPT/PB
                                           E/Mn
