 DBCSR| CPU Multiplication driver                                           XSMM
 DBCSR| Multrec recursion limit                                              512
 DBCSR| Multiplication stack size                                           1000
 DBCSR| Maximum elements for images                                    UNLIMITED
 DBCSR| Multiplicative factor virtual images                                   1
 DBCSR| Use multiplication densification                                       T
 DBCSR| Multiplication size stacks                                             3
 DBCSR| Use memory pool for CPU allocation                                     F
 DBCSR| Number of 3D layers                                               SINGLE
 DBCSR| Use MPI memory allocation                                              F
 DBCSR| Use RMA algorithm                                                      F
 DBCSR| Use Communication thread                                               T
 DBCSR| Communication thread load                                             87
 DBCSR| MPI: My node id                                                        0
 DBCSR| MPI: Number of nodes                                                  48
 DBCSR| OMP: Current number of threads                                         1
 DBCSR| OMP: Max number of threads                                             1
 DBCSR| Split modifier for TAS multiplication algorithm                  1.0E+00


  **** **** ******  **  PROGRAM STARTED AT               2022-05-13 15:29:07.033
 ***** ** ***  *** **   PROGRAM STARTED ON                               tcopt10
 **    ****   ******    PROGRAM STARTED BY                                hutter
 ***** **    ** ** **   PROGRAM PROCESS ID                                  3959
  **** **  *******  **  PROGRAM STARTED IN /data/hutter/GITHUB/BASIS/scMOLOPT/PB
                                           E/Mn

 CP2K| version string:                   CP2K version 10.0 (Development Version)
 CP2K| source code revision number:                                  git:13fcfd8
 CP2K| cp2kflags: omp libint fftw3 libxc elpa parallel mpi3 scalapack cosma xsmm
 CP2K|             spglib sirius libvori libbqb
 CP2K| is freely available from                            https://www.cp2k.org/
 CP2K| Program compiled at                      Tue 10 May 2022 02:27:21 PM CEST
 CP2K| Program compiled on                                               tcopt10
 CP2K| Program compiled for                                                local
 CP2K| Data directory path                   /data/hutter/GITHUB/TDLRI/cp2k/data
 CP2K| Input file name                                               MnO-ref.inp

 GLOBAL| Force Environment number                                              1
 GLOBAL| Basis set file name                                        ../def2QZVPP
 GLOBAL| Potential file name                                        ../POTENTIAL
 GLOBAL| MM Potential file name                                     MM_POTENTIAL
 GLOBAL| Coordinate file name                                      __STD_INPUT__
 GLOBAL| Method name                                                        CP2K
 GLOBAL| Project name                                                     refMnO
 GLOBAL| Run type                                                         ENERGY
 GLOBAL| FFT library                                                       FFTW3
 GLOBAL| Diagonalization library                                       ScaLAPACK
 GLOBAL| Orthonormality check for eigenvectors                          DISABLED
 GLOBAL| Matrix multiplication library                                     COSMA
 GLOBAL| All-to-all communication in single precision                          F
 GLOBAL| FFTs using library dependent lengths                                  F
 GLOBAL| Grid backend                                                       AUTO
 GLOBAL| Global print level                                                  LOW
 GLOBAL| MPI I/O enabled                                                       T
 GLOBAL| Total number of message passing processes                            48
 GLOBAL| Number of threads for this process                                    1
 GLOBAL| This output is from process                                           0
 GLOBAL| Stack size for threads created by OpenMP (OMP_STACKSIZE)        default
 GLOBAL| CPU model name                          AMD EPYC 7401 24-Core Processor
 GLOBAL| CPUID                                                              1002

 MEMORY| system memory details [Kb]
 MEMORY|                        rank 0           min           max       average
 MEMORY| MemTotal            263969136     263969136     263969136     263969136
 MEMORY| MemFree             237774980     237774980     237774980     237774980
 MEMORY| Buffers                   136           136           136           136
 MEMORY| Cached               18976468      18976468      18976468      18976468
 MEMORY| Slab                  1431440       1431440       1431440       1431440
 MEMORY| SReclaimable           873336        873336        873336        873336
 MEMORY| MemLikelyFree       257624920     257624920     257624920     257624920


 GENERATE|  Preliminary Number of Bonds generated:                             0
 GENERATE|  Achieved consistency in connectivity generation.

 *******************************************************************************
 *******************************************************************************
 **                                                                           **
 **     #####                         ##              ##                      **
 **    ##   ##            ##          ##              ##                      **
 **   ##     ##                       ##            ######                    **
 **   ##     ##  ##   ##  ##   #####  ##  ##   ####   ##    #####    #####    **
 **   ##     ##  ##   ##  ##  ##      ## ##   ##      ##   ##   ##  ##   ##   **
 **   ##  ## ##  ##   ##  ##  ##      ####     ###    ##   ######   ######    **
 **    ##  ###   ##   ##  ##  ##      ## ##      ##   ##   ##       ##        **
 **     #######   #####   ##   #####  ##  ##  ####    ##    #####   ##        **
 **           ##                                                    ##        **
 **                                                                           **
 **                                                ... make the atoms dance   **
 **                                                                           **
 **            Copyright (C) by CP2K developers group (2000-2022)             **
 **                      J. Chem. Phys. 152, 194103 (2020)                    **
 **                                                                           **
 *******************************************************************************


 TOTAL NUMBERS AND MAXIMUM NUMBERS

  Total number of            - Atomic kinds:                                   2
                             - Atoms:                                          2
                             - Shell sets:                                    45
                             - Shells:                                        45
                             - Primitive Cartesian functions:                 87
                             - Cartesian basis functions:                    201
                             - Spherical basis functions:                    157

  Maximum angular momentum of the orbital basis functions:                     4


 SCF PARAMETERS         Density guess:                                   RESTART
                        --------------------------------------------------------
                        max_scf:                                              40
                        max_scf_history:                                       0
                        max_diis:                                              4
                        --------------------------------------------------------
                        eps_scf:                                        1.00E-06
                        eps_scf_history:                                0.00E+00
                        eps_diis:                                       1.00E-01
                        eps_eigval:                                     1.00E-05
                        --------------------------------------------------------
                        level_shift [a.u.]:                             0.000000
                        --------------------------------------------------------
                        Outer loop SCF in use 
                        No variables optimised in outer loop
                        eps_scf                                         1.00E-06
                        max_scf                                                1
                        No outer loop optimization
                        step_size                                       5.00E-01

 Spin 1

 Number of electrons:                                                         17
 Number of occupied orbitals:                                                 17
 Number of molecular orbitals:                                                17

 Spin 2

 Number of electrons:                                                         16
 Number of occupied orbitals:                                                 16
 Number of molecular orbitals:                                                16

 Number of orbital functions:                                                157
 Number of independent orbital functions:                                    157

 Extrapolation method: initial_guess


 SCF WAVEFUNCTION OPTIMIZATION

  ----------------------------------- OT ---------------------------------------
  Minimizer      : DIIS                : direct inversion
                                         in the iterative subspace
                                         using   7 DIIS vectors
                                         safer DIIS on
  Preconditioner : FULL_ALL            : diagonalization, state selective
  Precond_solver : DEFAULT
  stepsize       :    0.10000000                  energy_gap     :    0.08000000
  eps_taylor     :   0.10000E-15                  max_taylor     :             4
  ----------------------------------- OT ---------------------------------------

  Step     Update method      Time    Convergence         Total energy    Change
  ------------------------------------------------------------------------------
     1 OT DIIS     0.10E+00    2.1     0.00001035     -1225.9045846721 -1.23E+03
     2 OT DIIS     0.10E+00    2.5     0.00000738     -1225.9045847101 -3.80E-08
     3 OT DIIS     0.10E+00    2.5     0.00000612     -1225.9045847274 -1.73E-08
     4 OT DIIS     0.10E+00    2.5     0.00000457     -1225.9045847487 -2.13E-08
     5 OT DIIS     0.10E+00    2.5     0.00000288     -1225.9045847848 -3.61E-08
     6 OT DIIS     0.10E+00    2.5     0.00000247     -1225.9045848067 -2.19E-08
     7 OT DIIS     0.10E+00    2.5     0.00000240     -1225.9045848256 -1.89E-08
     8 OT DIIS     0.10E+00    2.5     0.00000232     -1225.9045848737 -4.82E-08
     9 OT DIIS     0.10E+00    2.5     0.00000230     -1225.9045848864 -1.26E-08
    10 OT DIIS     0.10E+00    2.5     0.00000225     -1225.9045849393 -5.29E-08
    11 OT DIIS     0.10E+00    2.5     0.00000224     -1225.9045849605 -2.13E-08
    12 OT DIIS     0.10E+00    2.5     0.00000222     -1225.9045850010 -4.05E-08
    13 OT DIIS     0.10E+00    2.5     0.00000219     -1225.9045850428 -4.18E-08
    14 OT DIIS     0.10E+00    2.5     0.00000205     -1225.9045853215 -2.79E-07
    15 OT DIIS     0.10E+00    2.5     0.00000202     -1225.9045853785 -5.70E-08
    16 OT DIIS     0.10E+00    2.5     0.00000191     -1225.9045855893 -2.11E-07
    17 OT DIIS     0.10E+00    2.5     0.00000183     -1225.9045857041 -1.15E-07
    18 OT DIIS     0.10E+00    2.5     0.00000171     -1225.9045858459 -1.42E-07
    19 OT DIIS     0.10E+00    2.5     0.00000163     -1225.9045859715 -1.26E-07
    20 OT DIIS     0.10E+00    2.5     0.00000158     -1225.9045860085 -3.69E-08
    21 OT DIIS     0.10E+00    2.5     0.00000145     -1225.9045861325 -1.24E-07
    22 OT DIIS     0.10E+00    2.5     0.00000125     -1225.9045863423 -2.10E-07
    23 OT DIIS     0.10E+00    2.5     0.00000104     -1225.9045863465 -4.19E-09
    24 OT SD       0.10E+00    2.5     0.00000082     -1225.9045864633 -1.17E-07

  *** SCF run converged in    24 steps ***


  Electronic density on regular grids:        -21.8737745462       11.1262254538
  Core density on regular grids:               33.0000000000        0.0000000000
  Hard and soft densities (Lebedev):          -46.3705296881      -35.2443073359
  Total Rho_soft + Rho1_hard - Rho1_soft      -32.9999968984
  Total charge density (r-space):               0.0000031016
  Total Rho_soft + Rho0_soft (g-space):        -0.0000004840

  Overlap energy of the core charge distribution:               0.00000000035335
  Self energy of the core charge distribution:               -555.94914723793397
  Core Hamiltonian energy:                                   -699.63024599441565
  Hartree energy:                                              89.22482033017671
  Exchange-correlation energy:                                -16.26031129522329

  GAPW| Exc from hard and soft atomic rho1:                   -43.95108920658613
  GAPW| local Eh = 1 center integrals:                          0.66138694036496

  Total energy:                                             -1225.90458646326397

  outer SCF iter =    1 RMS gradient =   0.82E-06 energy =      -1225.9045864633
  outer SCF loop converged in   1 iterations or   24 steps


  Integrated absolute spin density  :                               2.3773897872
  Ideal and single determinant S**2 :                    0.750000       2.349320

 ENERGY| Total FORCE_EVAL ( QS ) energy [a.u.]:            -1225.904586463263968

 -------------------------------------------------------------------------------
 -                                                                             -
 -                                DBCSR STATISTICS                             -
 -                                                                             -
 -------------------------------------------------------------------------------
 COUNTER                                    TOTAL       BLAS       SMM       ACC
 flops    17 x    17 x    17              1129990       0.0%    100.0%      0.0%
 flops    16 x    16 x    16              1236992       0.0%    100.0%      0.0%
 flops    57 x    57 x    16              2599200       0.0%    100.0%      0.0%
 flops    57 x    57 x    17              2761650       0.0%    100.0%      0.0%
 flops    16 x    16 x    57              2830848       0.0%    100.0%      0.0%
 flops    17 x    17 x    57              3195762       0.0%    100.0%      0.0%
 flops    57 x   100 x    16              4560000       0.0%    100.0%      0.0%
 flops    57 x   100 x    17              4845000       0.0%    100.0%      0.0%
 flops    16 x    16 x   100              4966400       0.0%    100.0%      0.0%
 flops    17 x    17 x   100              5606600       0.0%    100.0%      0.0%
 flops    57 x    16 x    57              5718240       0.0%    100.0%      0.0%
 flops    57 x    17 x    57              5965164       0.0%    100.0%      0.0%
 flops   100 x   100 x    16              8000000       0.0%    100.0%      0.0%
 flops   100 x   100 x    17              8500000       0.0%    100.0%      0.0%
 flops   157 x    16 x    16              9726464       0.0%    100.0%      0.0%
 flops    57 x    16 x   100             10032000       0.0%    100.0%      0.0%
 flops   100 x    16 x    57             10032000       0.0%    100.0%      0.0%
 flops    57 x    17 x   100             10465200       0.0%    100.0%      0.0%
 flops   100 x    17 x    57             10465200       0.0%    100.0%      0.0%
 flops   157 x    17 x    17             10980266       0.0%    100.0%      0.0%
 flops   157 x    16 x    57             14318400       0.0%    100.0%      0.0%
 flops   157 x    17 x    57             15213300       0.0%    100.0%      0.0%
 flops   100 x    16 x   100             17600000       0.0%    100.0%      0.0%
 flops   100 x    17 x   100             18360000       0.0%    100.0%      0.0%
 flops   157 x    16 x   100             25120000       0.0%    100.0%      0.0%
 flops   157 x    17 x   100             26690000       0.0%    100.0%      0.0%
 flops inhomo. stacks                           0       0.0%      0.0%      0.0%
 flops total                       240.918676E+06       0.0%    100.0%      0.0%
 flops max/rank                    235.557826E+06       0.0%    100.0%      0.0%
 matmuls inhomo. stacks                         0       0.0%      0.0%      0.0%
 matmuls total                               1682       0.0%    100.0%      0.0%
 number of processed stacks                  1682       0.0%    100.0%      0.0%
 average stack size                                     0.0       1.0       0.0
 marketing flops                   250.493920E+06
 -------------------------------------------------------------------------------
 # multiplications                            963
 max memory usage/rank             638.492672E+06
 # max total images/rank                        3
 # max 3D layers                                1
 # MPI messages exchanged                  924480
 MPI messages size (bytes):
  total size                       601.931392E+06
  min size                           0.000000E+00
  max size                         125.600000E+03
  average size                     651.102661E+00
 MPI breakdown and total messages size (bytes):
             size <=      128              905234                        0
       128 < size <=     8192                7943                 35915120
      8192 < size <=    32768                6705                112671888
     32768 < size <=   131072                4598                453344408
    131072 < size <=  4194304                   0                        0
   4194304 < size <= 16777216                   0                        0
  16777216 < size                               0                        0
 -------------------------------------------------------------------------------

 *** WARNING in dbcsr_mm.F:290 :: Using a non-square number of MPI ranks ***
 *** might lead to poor performance. Used ranks: 48 Suggested: 49 100    ***

 -------------------------------------------------------------------------------
 -                                                                             -
 -                      DBCSR MESSAGE PASSING PERFORMANCE                      -
 -                                                                             -
 -------------------------------------------------------------------------------
 ROUTINE             CALLS      AVE VOLUME [Bytes]
 MP_Bcast               27                     12.
 MP_Allreduce         5248                      8.
 MP_Alltoall          3093                   5051.
 MP_ISend            43170                   1705.
 MP_IRecv            42464                    500.
 -------------------------------------------------------------------------------

 -------------------------------------------------------------------------------
 -                                                                             -
 -                                GRID STATISTICS                              -
 -                                                                             -
 -------------------------------------------------------------------------------
 LP    KERNEL             BACKEND                              COUNT     PERCENT
 3     collocate ortho    REF                                  18650      10.99%
 3     integrate ortho    REF                                  17904      10.55%
 2     collocate ortho    REF                                  17500      10.32%
 2     integrate ortho    REF                                  16800       9.90%
 1     collocate ortho    REF                                  14850       8.75%
 1     integrate ortho    REF                                  14256       8.40%
 4     collocate ortho    REF                                  13850       8.16%
 4     integrate ortho    REF                                  13296       7.84%
 5     collocate ortho    REF                                   8250       4.86%
 5     integrate ortho    REF                                   7920       4.67%
 0     collocate ortho    REF                                   5850       3.45%
 0     integrate ortho    REF                                   5616       3.31%
 6     collocate ortho    REF                                   3500       2.06%
 6     integrate ortho    REF                                   3360       1.98%
 2     collocate general  REF                                   2304       1.36%
 2     integrate general  REF                                   2304       1.36%
 7     collocate ortho    REF                                   1400       0.83%
 7     integrate ortho    REF                                   1344       0.79%
 8     collocate ortho    REF                                    350       0.21%
 8     integrate ortho    REF                                    336       0.20%
 -------------------------------------------------------------------------------

 MEMORY| Estimated peak process memory [MiB]                                 609

 -------------------------------------------------------------------------------
 -                                                                             -
 -                         MESSAGE PASSING PERFORMANCE                         -
 -                                                                             -
 -------------------------------------------------------------------------------

 ROUTINE             CALLS      AVE VOLUME [Bytes]
 MP_Group                4
 MP_Bcast              460                 456794.
 MP_Allreduce         1243                 405078.
 MP_Sync                16
 MP_Alltoall          1037                6557186.
 MP_ISendRecv         9212                  53640.
 MP_Wait             15556
 MP_comm_split           6
 MP_ISend             5368                 515921.
 MP_IRecv             5368                 515993.
 MP_Recv                30                   2512.
 -------------------------------------------------------------------------------


 -------------------------------------------------------------------------------
 -                                                                             -
 -                           R E F E R E N C E S                               -
 -                                                                             -
 -------------------------------------------------------------------------------
 
 CP2K version 10.0 (Development Version), the CP2K developers group (2022).
 CP2K is freely available from https://www.cp2k.org/ .

 Kuehne,Thomas D.; Iannuzzi,Marcella; Del Ben,Mauro;
 Rybkin,Vladimir V.; Seewald,Patrick; Stein,Frederick; Laino,Teodoro;
 Khaliullin,Rustam Z.; Schuett,Ole; Schiffmann,Florian; Golze,Dorothea;
 Wilhelm,Jan; Chulkov,Sergey; Bani-Hashemian,Mohammad Hossein;
 Weber,Valery; Borstnik,Urban; Taillefumier,Mathieu;
 Jakobovits,Alice Shoshana; Lazzaro,Alfio; Pabst,Hans; Mueller,Tiziano;
 Schade,Robert; Guidon,Manuel; Andermatt,Samuel; Holmberg,Nico;
 Schenter,Gregory K.; Hehn,Anna; Bussy,Augustin; Belleflamme,Fabian;
 Tabacchi,Gloria; Gloess,Andreas; Lass,Michael; Bethune,Iain;
 Mundy,Christopher J.; Plessl,Christian; Watkins,Matt;
 VandeVondele,Joost; Krack,Matthias; Hutter,Juerg. 
 The Journal of Chemical Physics, 152 (19), (2020). 
 CP2K: An electronic structure and molecular dynamics software package -
 Quickstep: Efficient and accurate electronic structure calculations.
 https://doi.org/10.1063/5.0007045

 Schuett, Ole; Messmer, Peter; Hutter, Juerg; VandeVondele, Joost. 
 Electronic Structure Calculations on Graphics Processing Units, John
 Wiley & Sons, Ltd, 173-190 (2016). 
 GPU-Accelerated Sparse Matrix-Matrix Multiplication for
 Linear Scaling Density Functional Theory.
 https://doi.org/10.1002/9781118670712.ch8

 Heinecke, A; Henry, G; Hutchinson, M; Pabst, H. 
 Proceedings of Intl. Supercomputing Conference, 981-991 (2016). 
 LIBXSMM: Accelerating Small Matrix Multiplications
 by Runtime Code Generation.
 https://doi.org/10.1109/SC.2016.83

 Borstnik, U; VandeVondele, J; Weber, V; Hutter, J. 
 PARALLEL COMPUTING, 40 (5-6), 47-58 (2014). 
 Sparse matrix multiplication: The distributed block-compressed sparse
 row library.
 https://doi.org/10.1016/j.parco.2014.03.012

 Hutter, J; Iannuzzi, M; Schiffmann, F; VandeVondele, J. 
 WIREs Comput Mol Sci., 4 (1), 15-25 (2014). 
 CP2K: atomistic simulations of condensed matter systems.
 https://doi.org/10.1002/wcms.1159

 Frigo, M; Johnson, SG. 
 PROCEEDINGS OF THE IEEE, 93 (2), 216-231 (2005). 
 The design and implementation of FFTW3.
 https://doi.org/10.1109/JPROC.2004.840301

 VandeVondele, J; Hutter, J. 
 JOURNAL OF CHEMICAL PHYSICS, 118 (10), 4365-4369 (2003). 
 An efficient orbital transformation method for electronic structure
 calculations.
 https://doi.org/10.1063/1.1543154

 Lippert, G; Hutter, J; Parrinello, M. 
 THEORETICAL CHEMISTRY ACCOUNTS, 103 (2), 124-140 (1999). 
 The Gaussian and augmented-plane-wave density functional method for ab
 initio molecular dynamics simulations.
 https://doi.org/10.1007/s002140050523

 Krack, M; Parrinello, M. 
 PHYSICAL CHEMISTRY CHEMICAL PHYSICS, 2 (10), 2105-2112 (2000). 
 All-electron ab-initio molecular dynamics.
 https://doi.org/10.1039/b001167n

 Perdew, JP; Burke, K; Ernzerhof, M. 
 PHYSICAL REVIEW LETTERS, 77 (18), 3865-3868 (1996). 
 Generalized gradient approximation made simple.
 https://doi.org/10.1103/PhysRevLett.77.3865


 -------------------------------------------------------------------------------
 -                                                                             -
 -                                T I M I N G                                  -
 -                                                                             -
 -------------------------------------------------------------------------------
 SUBROUTINE                       CALLS  ASD         SELF TIME        TOTAL TIME
                                MAXIMUM       AVERAGE  MAXIMUM  AVERAGE  MAXIMUM
 CP2K                                 1  1.0    0.016    0.038   60.499   60.500
 qs_energies                          1  2.0    0.000    0.000   60.137   60.137
 scf_env_do_scf                       1  3.0    0.000    0.000   59.453   59.453
 scf_env_do_scf_inner_loop           24  4.0    0.000    0.002   57.342   57.342
 qs_ks_update_qs_env                 25  5.0    0.000    0.000   49.376   49.380
 rebuild_ks_matrix                   24  6.0    0.000    0.000   49.370   49.373
 qs_ks_build_kohn_sham_matrix        24  7.0    0.006    0.007   49.370   49.373
 pw_transfer                        898 10.2    0.118    0.132   19.417   21.303
 fft_wrap_pw1pw2                    826 11.3    0.014    0.015   19.177   21.056
 fft_wrap_pw1pw2_300                532 12.8    1.352    1.479   18.445   20.303
 fft3d_ps                           826 13.3    7.714   10.061   14.238   16.282
 qs_vxc_create                       24  8.0    0.001    0.001   16.276   16.276
 xc_vxc_pw_create                    24  9.0    0.191    0.249   16.275   16.276
 xc_pw_derive                       288 11.0    0.004    0.005   11.632   13.143
 prepare_gapw_den                    24  8.0    0.001    0.001   11.684   11.747
 rs_pw_transfer                     440  9.5    0.013    0.015    9.694   10.067
 mp_sum_d                          1438  7.5    8.860    9.459    8.860    9.459
 xc_pw_divergence                    48 10.0    0.003    0.003    7.935    9.393
 qs_rho_update_rho                   25  5.0    0.001    0.001    9.344    9.346
 calculate_rho_elec                  50  6.0    0.052    0.058    8.941    8.941
 xc_rho_set_and_dset_create          24 10.0    0.183    0.241    7.850    8.710
 density_rs2pw                       50  7.0    0.003    0.004    7.320    7.765
 sum_up_and_integrate                24  8.0    0.051    0.062    7.698    7.715
 integrate_v_rspace                  48  9.0    0.001    0.002    7.646    7.667
 calculate_rho0_atom                 48  9.0    7.049    7.428    7.049    7.428
 calculate_vxc_atom                  24  8.0    0.021    0.375    7.401    7.402
 mp_alltoall_z22v                   826 15.3    4.501    7.383    4.501    7.383
 gaVxcgb_GC                          48  9.0    0.144    6.889    0.144    6.889
 calculate_rho_atom                  48  9.0    1.213    6.855    1.213    6.855
 yz_to_x                            366 14.1    0.966    1.198    3.830    6.296
 potential_pw2rs                     48 10.0    0.005    0.005    5.877    5.887
 rs_pw_transfer_RS2PW_300            74  9.6    2.097    2.379    3.421    3.837
 integrate_vhg0_rspace               24  8.0    0.337    0.914    3.569    3.609
 rs_pw_transfer_PW2RS_300            72 11.3    2.264    2.319    3.448    3.515
 x_to_yz                            362 14.8    0.983    1.097    2.610    3.333
 mp_sum_dv                          150 11.9    1.295    3.155    1.295    3.155
 mp_waitany                        5368 11.5    2.626    3.098    2.626    3.098
 xc_functional_eval                 120 10.9    0.000    0.001    2.035    2.954
 pbe_lsd_eval                       120 11.9    2.035    2.953    2.035    2.953
 grid_collocate_task_list            50  7.0    1.253    2.515    1.253    2.515
 mp_sum_dm                          248  7.4    2.286    2.346    2.286    2.346
 put_rho0_on_grid                    24  9.0    0.028    0.033    2.127    2.189
 init_scf_loop                        1  4.0    0.000    0.000    2.109    2.109
 pw_gather_p                        416 12.8    1.765    1.956    1.765    1.956
 pw_scatter_p                       410 13.8    1.763    1.944    1.763    1.944
 mp_alltoall_d11v                   623 11.3    1.653    1.805    1.653    1.805
 rs_gather_matrices                  48 10.0    0.001    0.037    1.610    1.769
 grid_integrate_task_list            48 10.0    0.158    1.768    0.158    1.768
 Vh_1c_gg_integrals                  24  8.0    0.051    1.135    1.128    1.223
 -------------------------------------------------------------------------------

 The number of warnings for this run is : 1
 
 -------------------------------------------------------------------------------
  **** **** ******  **  PROGRAM ENDED AT                 2022-05-13 15:30:07.970
 ***** ** ***  *** **   PROGRAM RAN ON                                   tcopt10
 **    ****   ******    PROGRAM RAN BY                                    hutter
 ***** **    ** ** **   PROGRAM PROCESS ID                                  3959
  **** **  *******  **  PROGRAM STOPPED IN /data/hutter/GITHUB/BASIS/scMOLOPT/PB
                                           E/Mn
