 DBCSR| CPU Multiplication driver                                           XSMM
 DBCSR| Multrec recursion limit                                              512
 DBCSR| Multiplication stack size                                           1000
 DBCSR| Maximum elements for images                                    UNLIMITED
 DBCSR| Multiplicative factor virtual images                                   1
 DBCSR| Use multiplication densification                                       T
 DBCSR| Multiplication size stacks                                             3
 DBCSR| Use memory pool for CPU allocation                                     F
 DBCSR| Number of 3D layers                                               SINGLE
 DBCSR| Use MPI memory allocation                                              F
 DBCSR| Use RMA algorithm                                                      F
 DBCSR| Use Communication thread                                               T
 DBCSR| Communication thread load                                             87
 DBCSR| MPI: My node id                                                        0
 DBCSR| MPI: Number of nodes                                                  24
 DBCSR| OMP: Current number of threads                                         1
 DBCSR| OMP: Max number of threads                                             1
 DBCSR| Split modifier for TAS multiplication algorithm                  1.0E+00


  **** **** ******  **  PROGRAM STARTED AT               2021-05-18 14:31:53.034
 ***** ** ***  *** **   PROGRAM STARTED ON                               tcopt10
 **    ****   ******    PROGRAM STARTED BY                                hutter
 ***** **    ** ** **   PROGRAM PROCESS ID                                 18279
  **** **  *******  **  PROGRAM STARTED IN            /data/hutter/run/delta/new

 CP2K| version string:                    CP2K version 9.0 (Development Version)
 CP2K| source code revision number:                                  git:4b756b0
 CP2K| cp2kflags: omp libint fftw3 libxc elpa parallel mpi3 scalapack xsmm spgli
 CP2K|            b sirius libvori libbqb
 CP2K| is freely available from                            https://www.cp2k.org/
 CP2K| Program compiled at                         Wed May  5 15:51:41 CEST 2021
 CP2K| Program compiled on                                               tcopt10
 CP2K| Program compiled for                                                local
 CP2K| Data directory path                 /data/hutter/GITHUB/CURRENT/cp2k/data
 CP2K| Input file name                                              B2H6-ref.inp

 GLOBAL| Force Environment number                                              1
 GLOBAL| Basis set file name                                      ../PBE_UCBASIS
 GLOBAL| Potential file name                                        ../POTENTIAL
 GLOBAL| MM Potential file name                                     MM_POTENTIAL
 GLOBAL| Coordinate file name                                      __STD_INPUT__
 GLOBAL| Method name                                                        CP2K
 GLOBAL| Project name                                                    refB2H6
 GLOBAL| Preferred FFT library                                             FFTW3
 GLOBAL| Preferred diagonalization lib.                                       SL
 GLOBAL| Run type                                                         ENERGY
 GLOBAL| All-to-all communication in single precision                          F
 GLOBAL| FFTs using library dependent lengths                                  F
 GLOBAL| Grid backend                                                       AUTO
 GLOBAL| Global print level                                                  LOW
 GLOBAL| MPI I/O enabled                                                       T
 GLOBAL| Total number of message passing processes                            24
 GLOBAL| Number of threads for this process                                    1
 GLOBAL| This output is from process                                           0
 GLOBAL| CPU model name                          AMD EPYC 7401 24-Core Processor
 GLOBAL| CPUID                                                              1002

 MEMORY| system memory details [Kb]
 MEMORY|                        rank 0           min           max       average
 MEMORY| MemTotal            263969868     263969868     263969868     263969868
 MEMORY| MemFree             218562104     218562104     218562104     218562104
 MEMORY| Buffers                    36            36            36            36
 MEMORY| Cached               37776360      37776360      37776360      37776360
 MEMORY| Slab                  3025648       3025648       3025648       3025648
 MEMORY| SReclaimable          1717836       1717836       1717836       1717836
 MEMORY| MemLikelyFree       258056336     258056336     258056336     258056336


 GENERATE|  Preliminary Number of Bonds generated:                             6
 GENERATE|  Achieved consistency in connectivity generation.
 GENERATE|  Number of Bonds generated:                                         6
 GENERATE|  Preliminary Number of Bends generated:                             5
 GENERATE|  Number of Bends generated:                                         5
 GENERATE|  Number of UB generated:                                            5
 GENERATE|  Preliminary Number of Torsions generated:                          4
 GENERATE|  Number of Torsions generated:                                      4
 GENERATE|  Number of Impropers generated:                                     1
 GENERATE|  Number of 1-4 interactions generated:                              4

 *******************************************************************************
 *******************************************************************************
 **                                                                           **
 **     #####                         ##              ##                      **
 **    ##   ##            ##          ##              ##                      **
 **   ##     ##                       ##            ######                    **
 **   ##     ##  ##   ##  ##   #####  ##  ##   ####   ##    #####    #####    **
 **   ##     ##  ##   ##  ##  ##      ## ##   ##      ##   ##   ##  ##   ##   **
 **   ##  ## ##  ##   ##  ##  ##      ####     ###    ##   ######   ######    **
 **    ##  ###   ##   ##  ##  ##      ## ##      ##   ##   ##       ##        **
 **     #######   #####   ##   #####  ##  ##  ####    ##    #####   ##        **
 **           ##                                                    ##        **
 **                                                                           **
 **                                                ... make the atoms dance   **
 **                                                                           **
 **            Copyright (C) by CP2K developers group (2000-2021)             **
 **                      J. Chem. Phys. 152, 194103 (2020)                    **
 **                                                                           **
 *******************************************************************************


 TOTAL NUMBERS AND MAXIMUM NUMBERS

  Total number of            - Atomic kinds:                                   2
                             - Atoms:                                          8
                             - Shell sets:                                    16
                             - Shells:                                       176
                             - Primitive Cartesian functions:                 96
                             - Cartesian basis functions:                    816
                             - Spherical basis functions:                    640

  Maximum angular momentum of- Orbital basis functions:                        4
                             - Local part of the GTH pseudopotential:          2
                             - Non-local part of the GTH pseudopotential:      0


 SCF PARAMETERS         Density guess:                                    ATOMIC
                        --------------------------------------------------------
                        max_scf:                                              10
                        max_scf_history:                                       0
                        max_diis:                                              4
                        --------------------------------------------------------
                        eps_scf:                                        1.00E-07
                        eps_scf_history:                                0.00E+00
                        eps_diis:                                       1.00E-01
                        eps_eigval:                                     1.00E-05
                        --------------------------------------------------------
                        level_shift [a.u.]:                                 0.00
                        --------------------------------------------------------
                        Outer loop SCF in use 
                        No variables optimised in outer loop
                        eps_scf                                         1.00E-07
                        max_scf                                               10
                        No outer loop optimization
                        step_size                                       5.00E-01

 Number of electrons:                                                         12
 Number of occupied orbitals:                                                  6
 Number of molecular orbitals:                                                 6

 Number of orbital functions:                                                640
 Number of independent orbital functions:                                    640

 Extrapolation method: initial_guess


 SCF WAVEFUNCTION OPTIMIZATION

  ----------------------------------- OT ---------------------------------------
  Minimizer      : DIIS                : direct inversion
                                         in the iterative subspace
                                         using   7 DIIS vectors
                                         safer DIIS on
  Preconditioner : FULL_ALL            : diagonalization, state selective
  Precond_solver : DEFAULT
  stepsize       :    0.15000000                  energy_gap     :    0.08000000
  eps_taylor     :   0.10000E-15                  max_taylor     :             4
  ----------------------------------- OT ---------------------------------------

  Step     Update method      Time    Convergence         Total energy    Change
  ------------------------------------------------------------------------------
     1 OT DIIS     0.15E+00    0.8     0.07779025        -8.0243552453 -8.02E+00
     2 OT DIIS     0.15E+00    0.7     0.07380228        -8.0887971272 -6.44E-02
     3 OT DIIS     0.15E+00    0.7     0.03604508        -8.9843864356 -8.96E-01
     4 OT DIIS     0.15E+00    0.7     0.01482912        -9.1413814953 -1.57E-01
     5 OT DIIS     0.15E+00    0.7     0.00651026        -9.1694770414 -2.81E-02
     6 OT DIIS     0.15E+00    0.7     0.00393484        -9.1760838495 -6.61E-03
     7 OT DIIS     0.15E+00    0.7     0.00157820        -9.1782011038 -2.12E-03
     8 OT DIIS     0.15E+00    0.7     0.00073672        -9.1786034902 -4.02E-04
     9 OT DIIS     0.15E+00    0.7     0.00044475        -9.1786798090 -7.63E-05
    10 OT DIIS     0.15E+00    0.7     0.00016565        -9.1787064818 -2.67E-05

  Leaving inner SCF loop after reaching    10 steps.


  Electronic density on regular grids:        -11.9999999999        0.0000000001
  Core density on regular grids:               12.0000000000       -0.0000000000
  Total charge density on r-space grids:        0.0000000001
  Total charge density g-space grids:           0.0000000001

  Overlap energy of the core charge distribution:               0.00000485495413
  Self energy of the core charge distribution:                -20.54662393125999
  Core Hamiltonian energy:                                      6.91043440228139
  Hartree energy:                                               8.67116278928068
  Exchange-correlation energy:                                 -4.21368459701808

  Total energy:                                                -9.17870648176187

  outer SCF iter =    1 RMS gradient =   0.17E-03 energy =         -9.1787064818

  ----------------------------------- OT ---------------------------------------
  Minimizer      : DIIS                : direct inversion
                                         in the iterative subspace
                                         using   7 DIIS vectors
                                         safer DIIS on
  Preconditioner : FULL_ALL            : diagonalization, state selective
  Precond_solver : DEFAULT
  stepsize       :    0.15000000                  energy_gap     :    0.08000000
  eps_taylor     :   0.10000E-15                  max_taylor     :             4
  ----------------------------------- OT ---------------------------------------

  Step     Update method      Time    Convergence         Total energy    Change
  ------------------------------------------------------------------------------
     1 OT DIIS     0.15E+00    1.6     0.00005405        -9.1787111233 -4.64E-06
     2 OT DIIS     0.15E+00    0.7     0.00002008        -9.1787121598 -1.04E-06
     3 OT DIIS     0.15E+00    0.7     0.00000741        -9.1787123174 -1.58E-07
     4 OT DIIS     0.15E+00    0.7     0.00000122        -9.1787123380 -2.06E-08
     5 OT DIIS     0.15E+00    0.7     0.00000014        -9.1787123383 -3.43E-10
     6 OT DIIS     0.15E+00    0.7     0.00000004        -9.1787123383 -6.54E-12

  *** SCF run converged in     6 steps ***


  Electronic density on regular grids:        -11.9999999999        0.0000000001
  Core density on regular grids:               12.0000000000       -0.0000000000
  Total charge density on r-space grids:        0.0000000001
  Total charge density g-space grids:           0.0000000001

  Overlap energy of the core charge distribution:               0.00000485495413
  Self energy of the core charge distribution:                -20.54662393125999
  Core Hamiltonian energy:                                      6.91160910281165
  Hartree energy:                                               8.67023145846237
  Exchange-correlation energy:                                 -4.21393382330139

  Total energy:                                                -9.17871233833323

  outer SCF iter =    2 RMS gradient =   0.36E-07 energy =         -9.1787123383
  outer SCF loop converged in   2 iterations or   16 steps


 ENERGY| Total FORCE_EVAL ( QS ) energy [a.u.]:               -9.178712338333231

 -------------------------------------------------------------------------------
 -                                                                             -
 -                                DBCSR STATISTICS                             -
 -                                                                             -
 -------------------------------------------------------------------------------
 COUNTER                                    TOTAL       BLAS       SMM       ACC
 flops     6 x     6 x     6                50112       0.0%    100.0%      0.0%
 flops     6 x     6 x   116              1102464       0.0%    100.0%      0.0%
 flops   232 x     6 x     6              1369728       0.0%    100.0%      0.0%
 flops     6 x     6 x    68              1938816       0.0%    100.0%      0.0%
 flops   136 x     6 x     6              2408832       0.0%    100.0%      0.0%
 flops   116 x   116 x     6              8235072       0.0%    100.0%      0.0%
 flops    68 x   116 x     6              9654912       0.0%    100.0%      0.0%
 flops   116 x    68 x     6              9654912       0.0%    100.0%      0.0%
 flops    68 x    68 x     6             19809216       0.0%    100.0%      0.0%
 flops   232 x     6 x   116             23251968       0.0%    100.0%      0.0%
 flops   116 x     6 x   116             29710848       0.0%    100.0%      0.0%
 flops   232 x     6 x    68             40891392       0.0%    100.0%      0.0%
 flops   136 x     6 x   116             40891392       0.0%    100.0%      0.0%
 flops   116 x     6 x    68             52250112       0.0%    100.0%      0.0%
 flops    68 x     6 x   116             52250112       0.0%    100.0%      0.0%
 flops   136 x     6 x    68             71912448       0.0%    100.0%      0.0%
 flops    68 x     6 x    68             91888128       0.0%    100.0%      0.0%
 flops inhomo. stacks                           0       0.0%      0.0%      0.0%
 flops total                       457.270464E+06       0.0%    100.0%      0.0%
 flops max/rank                    158.800512E+06       0.0%    100.0%      0.0%
 matmuls inhomo. stacks                         0       0.0%      0.0%      0.0%
 matmuls total                               5680       0.0%    100.0%      0.0%
 number of processed stacks                  4004       0.0%    100.0%      0.0%
 average stack size                                     0.0       1.4       0.0
 marketing flops                   493.566912E+06
 -------------------------------------------------------------------------------
 # multiplications                            365
 max memory usage/rank             337.424384E+06
 # max total images/rank                        3
 # max 3D layers                                1
 # MPI messages exchanged                  166440
 MPI messages size (bytes):
  total size                         1.384377E+09
  min size                           0.000000E+00
  max size                         215.296000E+03
  average size                       8.317571E+03
 MPI breakdown and total messages size (bytes):
             size <=      128              143668                        0
       128 < size <=     8192                9106                 34808256
      8192 < size <=    32768                 546                  6080256
     32768 < size <=   131072               12300               1166945280
    131072 < size <=  4194304                 820                176542720
   4194304 < size <= 16777216                   0                        0
  16777216 < size                               0                        0
 -------------------------------------------------------------------------------

 *** WARNING in dbcsr_mm.F:294 :: Using a non-square number of MPI ranks ***
 *** might lead to poor performance. Used ranks: 24 Suggested: 25 49     ***

 -------------------------------------------------------------------------------
 -                                                                             -
 -                      DBCSR MESSAGE PASSING PERFORMANCE                      -
 -                                                                             -
 -------------------------------------------------------------------------------
 ROUTINE             CALLS      AVE VOLUME [Bytes]
 MP_Bcast               18                     12.
 MP_Allreduce         1951                      8.
 MP_Alltoall          1526                   9092.
 MP_ISend            15322                   6186.
 MP_IRecv            15322                   4386.
 -------------------------------------------------------------------------------

 -------------------------------------------------------------------------------
 -                                                                             -
 -                                GRID STATISTICS                              -
 -                                                                             -
 -------------------------------------------------------------------------------
 LP    KERNEL             BACKEND                              COUNT     PERCENT
 3     collocate ortho    REF                                  44472      11.43%
 3     integrate ortho    REF                                  41856      10.76%
 0     collocate ortho    REF                                  39049      10.04%
 0     integrate ortho    REF                                  36752       9.45%
 4     collocate ortho    REF                                  35972       9.25%
 4     integrate ortho    REF                                  33856       8.70%
 1     collocate ortho    REF                                  30736       7.90%
 1     integrate ortho    REF                                  28928       7.44%
 6     collocate ortho    REF                                  12699       3.26%
 5     collocate ortho    REF                                  12342       3.17%
 6     integrate ortho    REF                                  11952       3.07%
 5     integrate ortho    REF                                  11616       2.99%
 7     collocate ortho    REF                                  10880       2.80%
 7     integrate ortho    REF                                  10240       2.63%
 2     collocate ortho    REF                                  10183       2.62%
 2     integrate ortho    REF                                   9584       2.46%
 8     collocate ortho    REF                                   3995       1.03%
 8     integrate ortho    REF                                   3760       0.97%
 0     collocate general  REF                                    192       0.05%
 -------------------------------------------------------------------------------

 MEMORY| Estimated peak process memory [MiB]                                 323

 -------------------------------------------------------------------------------
 -                                                                             -
 -                         MESSAGE PASSING PERFORMANCE                         -
 -                                                                             -
 -------------------------------------------------------------------------------

 ROUTINE             CALLS      AVE VOLUME [Bytes]
 MP_Group                4
 MP_Bcast              214                1072194.
 MP_Allreduce          831                    730.
 MP_Sync                20
 MP_Alltoall           323                9525113.
 MP_ISendRecv         2277                 191232.
 MP_Wait              3331
 MP_comm_split          16
 MP_ISend              952                 448887.
 MP_IRecv              952                 449159.
 MP_Recv                 5                   5120.
 -------------------------------------------------------------------------------


 -------------------------------------------------------------------------------
 -                                                                             -
 -                           R E F E R E N C E S                               -
 -                                                                             -
 -------------------------------------------------------------------------------
 
 CP2K version 9.0 (Development Version), the CP2K developers group (2020).
 CP2K is freely available from https://www.cp2k.org/ .

 Kuehne,Thomas D.; Iannuzzi,Marcella; Del Ben,Mauro;
 Rybkin,Vladimir V.; Seewald,Patrick; Stein,Frederick; Laino,Teodoro;
 Khaliullin,Rustam Z.; Schuett,Ole; Schiffmann,Florian; Golze,Dorothea;
 Wilhelm,Jan; Chulkov,Sergey; Bani-Hashemian,Mohammad Hossein;
 Weber,Valery; Borstnik,Urban; Taillefumier,Mathieu;
 Jakobovits,Alice Shoshana; Lazzaro,Alfio; Pabst,Hans; Mueller,Tiziano;
 Schade,Robert; Guidon,Manuel; Andermatt,Samuel; Holmberg,Nico;
 Schenter,Gregory K.; Hehn,Anna; Bussy,Augustin; Belleflamme,Fabian;
 Tabacchi,Gloria; Gloess,Andreas; Lass,Michael; Bethune,Iain;
 Mundy,Christopher J.; Plessl,Christian; Watkins,Matt;
 VandeVondele,Joost; Krack,Matthias; Hutter,Juerg. 
 The Journal of Chemical Physics, 152 (19), (2020). 
 CP2K: An electronic structure and molecular dynamics software package -
 Quickstep: Efficient and accurate electronic structure calculations.
 https://doi.org/10.1063/5.0007045

 Schuett, Ole; Messmer, Peter; Hutter, Juerg; VandeVondele, Joost. 
 Electronic Structure Calculations on Graphics Processing Units, John
 Wiley & Sons, Ltd, 173-190 (2016). 
 GPU-Accelerated Sparse Matrix-Matrix Multiplication for
 Linear Scaling Density Functional Theory.
 https://doi.org/10.1002/9781118670712.ch8

 Heinecke, A; Henry, G; Hutchinson, M; Pabst, H. 
 Proceedings of Intl. Supercomputing Conference, 981-991 (2016). 
 LIBXSMM: Accelerating Small Matrix Multiplications
 by Runtime Code Generation.
 https://doi.org/10.1109/SC.2016.83

 Borstnik, U; VandeVondele, J; Weber, V; Hutter, J. 
 PARALLEL COMPUTING, 40 (5-6), 47-58 (2014). 
 Sparse matrix multiplication: The distributed block-compressed sparse
 row library.
 https://doi.org/10.1016/j.parco.2014.03.012

 Hutter, J; Iannuzzi, M; Schiffmann, F; VandeVondele, J. 
 WIREs Comput Mol Sci., 4 (1), 15-25 (2014). 
 CP2K: atomistic simulations of condensed matter systems.
 https://doi.org/10.1002/wcms.1159

 Krack, M. 
 THEORETICAL CHEMISTRY ACCOUNTS, 114 (1-3), 145-152 (2005). 
 Pseudopotentials for H to Kr optimized for gradient-corrected
 exchange-correlation functionals.
 https://doi.org/10.1007/s00214-005-0655-y

 VandeVondele, J; Krack, M; Mohamed, F; Parrinello, M; Chassaing, T;
 Hutter, J. COMPUTER PHYSICS COMMUNICATIONS, 167 (2), 103-128 (2005). 
 QUICKSTEP: Fast and accurate density functional calculations using a
 mixed Gaussian and plane waves approach.
 https://doi.org/10.1016/j.cpc.2004.12.014

 Frigo, M; Johnson, SG. 
 PROCEEDINGS OF THE IEEE, 93 (2), 216-231 (2005). 
 The design and implementation of FFTW3.
 https://doi.org/10.1109/JPROC.2004.840301

 VandeVondele, J; Hutter, J. 
 JOURNAL OF CHEMICAL PHYSICS, 118 (10), 4365-4369 (2003). 
 An efficient orbital transformation method for electronic structure
 calculations.
 https://doi.org/10.1063/1.1543154

 Hartwigsen, C; Goedecker, S; Hutter, J. 
 PHYSICAL REVIEW B, 58 (7), 3641-3662 (1998). 
 Relativistic separable dual-space Gaussian pseudopotentials from H to Rn.
 https://doi.org/10.1103/PhysRevB.58.3641

 Lippert, G; Hutter, J; Parrinello, M. 
 MOLECULAR PHYSICS, 92 (3), 477-487 (1997). 
 A hybrid Gaussian and plane wave density functional scheme.
 https://doi.org/10.1080/002689797170220

 Perdew, JP; Burke, K; Ernzerhof, M. 
 PHYSICAL REVIEW LETTERS, 77 (18), 3865-3868 (1996). 
 Generalized gradient approximation made simple.
 https://doi.org/10.1103/PhysRevLett.77.3865

 Goedecker, S; Teter, M; Hutter, J. 
 PHYSICAL REVIEW B, 54 (3), 1703-1710 (1996). 
 Separable dual-space Gaussian pseudopotentials.
 https://doi.org/10.1103/PhysRevB.54.1703


 -------------------------------------------------------------------------------
 -                                                                             -
 -                                T I M I N G                                  -
 -                                                                             -
 -------------------------------------------------------------------------------
 SUBROUTINE                       CALLS  ASD         SELF TIME        TOTAL TIME
                                MAXIMUM       AVERAGE  MAXIMUM  AVERAGE  MAXIMUM
 CP2K                                 1  1.0    0.005    0.027   12.071   12.072
 qs_energies                          1  2.0    0.000    0.000   11.852   11.852
 scf_env_do_scf                       1  3.0    0.000    0.000   11.358   11.358
 scf_env_do_scf_inner_loop           16  4.0    0.001    0.002    9.852    9.853
 qs_ks_update_qs_env                 18  5.0    0.000    0.000    8.061    8.066
 rebuild_ks_matrix                   16  6.0    0.000    0.000    8.057    8.063
 qs_ks_build_kohn_sham_matrix        16  7.0    0.003    0.004    8.057    8.063
 pw_transfer                        310  9.6    0.027    0.034    5.238    5.769
 fft_wrap_pw1pw2                    278 10.7    0.003    0.004    5.178    5.704
 fft_wrap_pw1pw2_300                179 11.8    0.218    0.239    4.960    5.510
 qs_vxc_create                       16  8.0    0.000    0.001    5.285    5.311
 xc_vxc_pw_create                    16  9.0    0.043    0.048    5.285    5.310
 fft3d_ps                           278 12.7    1.888    2.043    4.189    4.648
 xc_rho_set_and_dset_create          16 10.0    0.017    0.019    3.102    3.411
 qs_rho_update_rho                   17  5.0    0.000    0.000    2.510    2.510
 calculate_rho_elec                  17  6.0    0.018    0.021    2.510    2.510
 mp_alltoall_z22v                   278 14.7    1.889    2.416    1.889    2.416
 sum_up_and_integrate                16  8.0    0.009    0.010    2.169    2.171
 integrate_v_rspace                  16  9.0    0.000    0.001    2.160    2.164
 xc_functional_eval                  16 11.0    0.000    0.000    1.711    2.021
 pbe_lda_eval                        16 12.0    1.711    2.021    1.711    2.021
 density_rs2pw                       17  7.0    0.001    0.001    1.636    1.825
 yz_to_x                            133 13.1    0.168    0.228    1.244    1.794
 rs_pw_transfer                     133  9.4    0.003    0.003    1.535    1.612
 init_scf_loop                        2  4.0    0.000    0.000    1.505    1.505
 potential_pw2rs                     16 10.0    0.001    0.002    1.236    1.238
 x_to_yz                            145 14.2    0.234    0.276    1.047    1.203
 grid_integrate_task_list            16 10.0    0.738    0.907    0.738    0.907
 grid_collocate_task_list            17  7.0    0.767    0.907    0.767    0.907
 rs_pw_transfer_RS2PW_300            18  8.9    0.185    0.221    0.605    0.681
 mp_waitany                         952 11.4    0.489    0.598    0.489    0.598
 mp_waitall_1                     22819 13.9    0.464    0.524    0.464    0.524
 prepare_preconditioner               2  5.0    0.000    0.000    0.508    0.508
 make_preconditioner                  2  6.0    0.003    0.003    0.492    0.492
 make_full_all                        2  7.0    0.000    0.000    0.475    0.476
 dbcsr_multiply_generic             365 10.0    0.011    0.011    0.445    0.451
 pw_scatter_p                       145 13.2    0.405    0.442    0.405    0.442
 mp_alltoall_d11v                   405 11.4    0.221    0.426    0.221    0.426
 qs_scf_new_mos                      16  5.0    0.000    0.000    0.422    0.425
 qs_scf_loop_do_ot                   16  6.0    0.000    0.000    0.422    0.424
 pw_gather_p                        133 12.1    0.352    0.420    0.352    0.420
 ot_scf_mini                         16  7.0    0.000    0.000    0.404    0.407
 rs_gather_matrices                  16 10.0    0.001    0.004    0.186    0.395
 cp_fm_syevd                         16 10.0    0.000    0.000    0.370    0.370
 rs_pw_transfer_PW2RS_300            16 12.0    0.186    0.203    0.345    0.365
 cp_fm_redistribute_end              16 11.0    0.185    0.361    0.186    0.361
 cp_fm_syevd_base                    16 10.6    0.175    0.356    0.175    0.356
 rs_pw_transfer_PW2RS_100            16 12.0    0.052    0.060    0.281    0.313
 qs_energies_init_hamiltonians        1  3.0    0.000    0.000    0.308    0.308
 qs_env_update_s_mstruct              1  4.0    0.000    0.000    0.271    0.296
 calculate_rho_core                   1  5.0    0.001    0.002    0.266    0.293
 ot_mini                             16  8.0    0.000    0.000    0.268    0.271
 build_core_hamiltonian_matrix        1  4.0    0.000    0.000    0.036    0.248
 -------------------------------------------------------------------------------

 The number of warnings for this run is : 1
 
 -------------------------------------------------------------------------------
  **** **** ******  **  PROGRAM ENDED AT                 2021-05-18 14:32:05.743
 ***** ** ***  *** **   PROGRAM RAN ON                                   tcopt10
 **    ****   ******    PROGRAM RAN BY                                    hutter
 ***** **    ** ** **   PROGRAM PROCESS ID                                 18279
  **** **  *******  **  PROGRAM STOPPED IN            /data/hutter/run/delta/new
