 DBCSR| CPU Multiplication driver                                           XSMM
 DBCSR| Multrec recursion limit                                              512
 DBCSR| Multiplication stack size                                           1000
 DBCSR| Maximum elements for images                                    UNLIMITED
 DBCSR| Multiplicative factor virtual images                                   1
 DBCSR| Use multiplication densification                                       T
 DBCSR| Multiplication size stacks                                             3
 DBCSR| Use memory pool for CPU allocation                                     F
 DBCSR| Number of 3D layers                                               SINGLE
 DBCSR| Use MPI memory allocation                                              F
 DBCSR| Use RMA algorithm                                                      F
 DBCSR| Use Communication thread                                               T
 DBCSR| Communication thread load                                             87
 DBCSR| MPI: My node id                                                        0
 DBCSR| MPI: Number of nodes                                                  24
 DBCSR| OMP: Current number of threads                                         1
 DBCSR| OMP: Max number of threads                                             1
 DBCSR| Split modifier for TAS multiplication algorithm                  1.0E+00


  **** **** ******  **  PROGRAM STARTED AT               2021-05-18 14:35:24.074
 ***** ** ***  *** **   PROGRAM STARTED ON                               tcopt10
 **    ****   ******    PROGRAM STARTED BY                                hutter
 ***** **    ** ** **   PROGRAM PROCESS ID                                 19749
  **** **  *******  **  PROGRAM STARTED IN            /data/hutter/run/delta/new

 CP2K| version string:                    CP2K version 9.0 (Development Version)
 CP2K| source code revision number:                                  git:4b756b0
 CP2K| cp2kflags: omp libint fftw3 libxc elpa parallel mpi3 scalapack xsmm spgli
 CP2K|            b sirius libvori libbqb
 CP2K| is freely available from                            https://www.cp2k.org/
 CP2K| Program compiled at                         Wed May  5 15:51:41 CEST 2021
 CP2K| Program compiled on                                               tcopt10
 CP2K| Program compiled for                                                local
 CP2K| Data directory path                 /data/hutter/GITHUB/CURRENT/cp2k/data
 CP2K| Input file name                                            B3N3H6-ref.inp

 GLOBAL| Force Environment number                                              1
 GLOBAL| Basis set file name                                      ../PBE_UCBASIS
 GLOBAL| Potential file name                                        ../POTENTIAL
 GLOBAL| MM Potential file name                                     MM_POTENTIAL
 GLOBAL| Coordinate file name                                      __STD_INPUT__
 GLOBAL| Method name                                                        CP2K
 GLOBAL| Project name                                                  refB3N3H6
 GLOBAL| Preferred FFT library                                             FFTW3
 GLOBAL| Preferred diagonalization lib.                                       SL
 GLOBAL| Run type                                                         ENERGY
 GLOBAL| All-to-all communication in single precision                          F
 GLOBAL| FFTs using library dependent lengths                                  F
 GLOBAL| Grid backend                                                       AUTO
 GLOBAL| Global print level                                                  LOW
 GLOBAL| MPI I/O enabled                                                       T
 GLOBAL| Total number of message passing processes                            24
 GLOBAL| Number of threads for this process                                    1
 GLOBAL| This output is from process                                           0
 GLOBAL| CPU model name                          AMD EPYC 7401 24-Core Processor
 GLOBAL| CPUID                                                              1002

 MEMORY| system memory details [Kb]
 MEMORY|                        rank 0           min           max       average
 MEMORY| MemTotal            263969868     263969868     263969868     263969868
 MEMORY| MemFree             218556692     218556692     218556692     218556692
 MEMORY| Buffers                    36            36            36            36
 MEMORY| Cached               37779140      37779140      37779140      37779140
 MEMORY| Slab                  3027372       3027372       3027372       3027372
 MEMORY| SReclaimable          1718028       1718028       1718028       1718028
 MEMORY| MemLikelyFree       258053896     258053896     258053896     258053896


 GENERATE|  Preliminary Number of Bonds generated:                             5
 GENERATE|  Achieved consistency in connectivity generation.
 GENERATE|  Number of Bonds generated:                                         5
 GENERATE|  Preliminary Number of Bends generated:                             4
 GENERATE|  Number of Bends generated:                                         4
 GENERATE|  Number of UB generated:                                            4
 GENERATE|  Preliminary Number of Torsions generated:                          3
 GENERATE|  Number of Torsions generated:                                      3
 GENERATE|  Number of 1-4 interactions generated:                              3

 *******************************************************************************
 *******************************************************************************
 **                                                                           **
 **     #####                         ##              ##                      **
 **    ##   ##            ##          ##              ##                      **
 **   ##     ##                       ##            ######                    **
 **   ##     ##  ##   ##  ##   #####  ##  ##   ####   ##    #####    #####    **
 **   ##     ##  ##   ##  ##  ##      ## ##   ##      ##   ##   ##  ##   ##   **
 **   ##  ## ##  ##   ##  ##  ##      ####     ###    ##   ######   ######    **
 **    ##  ###   ##   ##  ##  ##      ## ##      ##   ##   ##       ##        **
 **     #######   #####   ##   #####  ##  ##  ####    ##    #####   ##        **
 **           ##                                                    ##        **
 **                                                                           **
 **                                                ... make the atoms dance   **
 **                                                                           **
 **            Copyright (C) by CP2K developers group (2000-2021)             **
 **                      J. Chem. Phys. 152, 194103 (2020)                    **
 **                                                                           **
 *******************************************************************************


 TOTAL NUMBERS AND MAXIMUM NUMBERS

  Total number of            - Atomic kinds:                                   3
                             - Atoms:                                         12
                             - Shell sets:                                    24
                             - Shells:                                       288
                             - Primitive Cartesian functions:                144
                             - Cartesian basis functions:                   1440
                             - Spherical basis functions:                   1104

  Maximum angular momentum of- Orbital basis functions:                        4
                             - Local part of the GTH pseudopotential:          2
                             - Non-local part of the GTH pseudopotential:      0


 SCF PARAMETERS         Density guess:                                    ATOMIC
                        --------------------------------------------------------
                        max_scf:                                              10
                        max_scf_history:                                       0
                        max_diis:                                              4
                        --------------------------------------------------------
                        eps_scf:                                        1.00E-07
                        eps_scf_history:                                0.00E+00
                        eps_diis:                                       1.00E-01
                        eps_eigval:                                     1.00E-05
                        --------------------------------------------------------
                        level_shift [a.u.]:                                 0.00
                        --------------------------------------------------------
                        Outer loop SCF in use 
                        No variables optimised in outer loop
                        eps_scf                                         1.00E-07
                        max_scf                                               10
                        No outer loop optimization
                        step_size                                       5.00E-01

 Number of electrons:                                                         30
 Number of occupied orbitals:                                                 15
 Number of molecular orbitals:                                                15

 Number of orbital functions:                                               1104
 Number of independent orbital functions:                                   1104

 Extrapolation method: initial_guess


 SCF WAVEFUNCTION OPTIMIZATION

  ----------------------------------- OT ---------------------------------------
  Minimizer      : DIIS                : direct inversion
                                         in the iterative subspace
                                         using   7 DIIS vectors
                                         safer DIIS on
  Preconditioner : FULL_ALL            : diagonalization, state selective
  Precond_solver : DEFAULT
  stepsize       :    0.15000000                  energy_gap     :    0.08000000
  eps_taylor     :   0.10000E-15                  max_taylor     :             4
  ----------------------------------- OT ---------------------------------------

  Step     Update method      Time    Convergence         Total energy    Change
  ------------------------------------------------------------------------------
     1 OT DIIS     0.15E+00    1.5     0.04414418       -38.5387860087 -3.85E+01
     2 OT DIIS     0.15E+00    0.8     0.04738147       -40.2711810510 -1.73E+00
     3 OT DIIS     0.15E+00    0.8     0.02179080       -41.2321101072 -9.61E-01
     4 OT DIIS     0.15E+00    0.8     0.01684248       -41.6252791122 -3.93E-01
     5 OT DIIS     0.15E+00    0.9     0.01065970       -41.8468778797 -2.22E-01
     6 OT DIIS     0.15E+00    0.8     0.00609993       -42.0002602828 -1.53E-01
     7 OT DIIS     0.15E+00    0.8     0.00454199       -42.0528607424 -5.26E-02
     8 OT DIIS     0.15E+00    0.8     0.00210714       -42.0771044101 -2.42E-02
     9 OT DIIS     0.15E+00    0.8     0.00153620       -42.0854846610 -8.38E-03
    10 OT DIIS     0.15E+00    0.8     0.00120807       -42.0903294094 -4.84E-03

  Leaving inner SCF loop after reaching    10 steps.


  Electronic density on regular grids:        -30.0000000020       -0.0000000020
  Core density on regular grids:               30.0000000000       -0.0000000000
  Total charge density on r-space grids:       -0.0000000021
  Total charge density g-space grids:          -0.0000000021

  Overlap energy of the core charge distribution:               0.00000594367087
  Self energy of the core charge distribution:               -101.14356104518075
  Core Hamiltonian energy:                                     31.22629991314716
  Hartree energy:                                              40.85401632478877
  Exchange-correlation energy:                                -13.02709054586699

  Total energy:                                               -42.09032940944094

  outer SCF iter =    1 RMS gradient =   0.12E-02 energy =        -42.0903294094

  ----------------------------------- OT ---------------------------------------
  Minimizer      : DIIS                : direct inversion
                                         in the iterative subspace
                                         using   7 DIIS vectors
                                         safer DIIS on
  Preconditioner : FULL_ALL            : diagonalization, state selective
  Precond_solver : DEFAULT
  stepsize       :    0.15000000                  energy_gap     :    0.08000000
  eps_taylor     :   0.10000E-15                  max_taylor     :             4
  ----------------------------------- OT ---------------------------------------

  Step     Update method      Time    Convergence         Total energy    Change
  ------------------------------------------------------------------------------
     1 OT DIIS     0.15E+00    2.5     0.00160909       -42.0921697750 -1.84E-03
     2 OT DIIS     0.15E+00    0.8     0.00067170       -42.0964075707 -4.24E-03
     3 OT DIIS     0.15E+00    0.8     0.00045894       -42.0970361249 -6.29E-04
     4 OT DIIS     0.15E+00    0.8     0.00003750       -42.0971962385 -1.60E-04
     5 OT DIIS     0.15E+00    0.8     0.00001074       -42.0971976419 -1.40E-06
     6 OT DIIS     0.15E+00    0.8     0.00000366       -42.0971977573 -1.15E-07
     7 OT DIIS     0.15E+00    0.8     0.00000139       -42.0971977710 -1.37E-08
     8 OT DIIS     0.15E+00    0.8     0.00000027       -42.0971977732 -2.24E-09
     9 OT DIIS     0.15E+00    0.8     0.00000010       -42.0971977733 -7.71E-11
    10 OT DIIS     0.15E+00    0.8     0.00000004       -42.0971977733  2.71E-11

  *** SCF run converged in    10 steps ***


  Electronic density on regular grids:        -30.0000000020       -0.0000000020
  Core density on regular grids:               30.0000000000       -0.0000000000
  Total charge density on r-space grids:       -0.0000000020
  Total charge density g-space grids:          -0.0000000020

  Overlap energy of the core charge distribution:               0.00000594367087
  Self energy of the core charge distribution:               -101.14356104518075
  Core Hamiltonian energy:                                     31.21157494175077
  Hartree energy:                                              40.86341806963850
  Exchange-correlation energy:                                -13.02863568313355

  Total energy:                                               -42.09719777325416

  outer SCF iter =    2 RMS gradient =   0.37E-07 energy =        -42.0971977733
  outer SCF loop converged in   2 iterations or   20 steps


 ENERGY| Total FORCE_EVAL ( QS ) energy [a.u.]:              -42.097197773254159

 -------------------------------------------------------------------------------
 -                                                                             -
 -                                DBCSR STATISTICS                             -
 -                                                                             -
 -------------------------------------------------------------------------------
 COUNTER                                    TOTAL       BLAS       SMM       ACC
 flops    15 x    15 x    15              1255500       0.0%    100.0%      0.0%
 flops   204 x    15 x    15              9363600       0.0%    100.0%      0.0%
 flops    15 x    15 x    68             15055200       0.0%    100.0%      0.0%
 flops    15 x    15 x   116             25682400       0.0%    100.0%      0.0%
 flops   300 x    15 x    15             41310000       0.0%    100.0%      0.0%
 flops    68 x    68 x    15             61175520       0.0%    100.0%      0.0%
 flops    68 x   116 x    15             89449920       0.0%    100.0%      0.0%
 flops   116 x    68 x    15             89449920       0.0%    100.0%      0.0%
 flops   204 x    15 x    68            109866240       0.0%    100.0%      0.0%
 flops   116 x   116 x    15            178022880       0.0%    100.0%      0.0%
 flops   204 x    15 x   116            187418880       0.0%    100.0%      0.0%
 flops    68 x    15 x    68            269671680       0.0%    100.0%      0.0%
 flops    68 x    15 x   116            460028160       0.0%    100.0%      0.0%
 flops   116 x    15 x    68            460028160       0.0%    100.0%      0.0%
 flops   300 x    15 x    68            484704000       0.0%    100.0%      0.0%
 flops   116 x    15 x   116            784753920       0.0%    100.0%      0.0%
 flops   300 x    15 x   116            826848000       0.0%    100.0%      0.0%
 flops inhomo. stacks                           0       0.0%      0.0%      0.0%
 flops total                         4.094084E+09       0.0%    100.0%      0.0%
 flops max/rank                      1.059892E+09       0.0%    100.0%      0.0%
 matmuls inhomo. stacks                         0       0.0%      0.0%      0.0%
 matmuls total                              13104       0.0%    100.0%      0.0%
 number of processed stacks                  9423       0.0%    100.0%      0.0%
 average stack size                                     0.0       1.4       0.0
 marketing flops                     4.444852E+09
 -------------------------------------------------------------------------------
 # multiplications                            491
 max memory usage/rank             347.918336E+06
 # max total images/rank                        3
 # max 3D layers                                1
 # MPI messages exchanged                  223896
 MPI messages size (bytes):
  total size                         4.996661E+09
  min size                           0.000000E+00
  max size                         278.400000E+03
  average size                      22.316885E+03
 MPI breakdown and total messages size (bytes):
             size <=      128              184344                        0
       128 < size <=     8192                7494                 49741200
      8192 < size <=    32768                6693                102745440
     32768 < size <=   131072                4785                392689440
    131072 < size <=  4194304               20580               4451489280
   4194304 < size <= 16777216                   0                        0
  16777216 < size                               0                        0
 -------------------------------------------------------------------------------

 *** WARNING in dbcsr_mm.F:294 :: Using a non-square number of MPI ranks ***
 *** might lead to poor performance. Used ranks: 24 Suggested: 25 49     ***

 -------------------------------------------------------------------------------
 -                                                                             -
 -                      DBCSR MESSAGE PASSING PERFORMANCE                      -
 -                                                                             -
 -------------------------------------------------------------------------------
 ROUTINE             CALLS      AVE VOLUME [Bytes]
 MP_Bcast               18                     12.
 MP_Allreduce         2617                      8.
 MP_Alltoall          1834                  11296.
 MP_ISend            20988                  12986.
 MP_IRecv            20798                  11549.
 -------------------------------------------------------------------------------

 -------------------------------------------------------------------------------
 -                                                                             -
 -                                GRID STATISTICS                              -
 -                                                                             -
 -------------------------------------------------------------------------------
 LP    KERNEL             BACKEND                              COUNT     PERCENT
 4     collocate ortho    REF                                 109137      11.31%
 4     integrate ortho    REF                                 103940      10.77%
 1     collocate ortho    REF                                  88725       9.19%
 1     integrate ortho    REF                                  84500       8.76%
 5     collocate ortho    REF                                  68922       7.14%
 5     integrate ortho    REF                                  65640       6.80%
 2     collocate ortho    REF                                  58842       6.10%
 2     integrate ortho    REF                                  56040       5.81%
 3     collocate ortho    REF                                  54306       5.63%
 3     integrate ortho    REF                                  51720       5.36%
 0     collocate ortho    REF                                  46788       4.85%
 0     integrate ortho    REF                                  44560       4.62%
 7     collocate ortho    REF                                  30681       3.18%
 7     integrate ortho    REF                                  29220       3.03%
 8     collocate ortho    REF                                  20538       2.13%
 8     integrate ortho    REF                                  19560       2.03%
 6     collocate ortho    REF                                  16191       1.68%
 6     integrate ortho    REF                                  15420       1.60%
 0     collocate general  REF                                    288       0.03%
 -------------------------------------------------------------------------------

 MEMORY| Estimated peak process memory [MiB]                                 332

 -------------------------------------------------------------------------------
 -                                                                             -
 -                         MESSAGE PASSING PERFORMANCE                         -
 -                                                                             -
 -------------------------------------------------------------------------------

 ROUTINE             CALLS      AVE VOLUME [Bytes]
 MP_Group                4
 MP_Bcast              424                 811673.
 MP_Allreduce         1321                    496.
 MP_Sync                20
 MP_Alltoall           399                9564044.
 MP_ISendRecv         2829                 191232.
 MP_Wait              4131
 MP_comm_split          16
 MP_ISend             1176                 448913.
 MP_IRecv             1176                 449133.
 MP_Recv                 4                  26496.
 -------------------------------------------------------------------------------


 -------------------------------------------------------------------------------
 -                                                                             -
 -                           R E F E R E N C E S                               -
 -                                                                             -
 -------------------------------------------------------------------------------
 
 CP2K version 9.0 (Development Version), the CP2K developers group (2020).
 CP2K is freely available from https://www.cp2k.org/ .

 Kuehne,Thomas D.; Iannuzzi,Marcella; Del Ben,Mauro;
 Rybkin,Vladimir V.; Seewald,Patrick; Stein,Frederick; Laino,Teodoro;
 Khaliullin,Rustam Z.; Schuett,Ole; Schiffmann,Florian; Golze,Dorothea;
 Wilhelm,Jan; Chulkov,Sergey; Bani-Hashemian,Mohammad Hossein;
 Weber,Valery; Borstnik,Urban; Taillefumier,Mathieu;
 Jakobovits,Alice Shoshana; Lazzaro,Alfio; Pabst,Hans; Mueller,Tiziano;
 Schade,Robert; Guidon,Manuel; Andermatt,Samuel; Holmberg,Nico;
 Schenter,Gregory K.; Hehn,Anna; Bussy,Augustin; Belleflamme,Fabian;
 Tabacchi,Gloria; Gloess,Andreas; Lass,Michael; Bethune,Iain;
 Mundy,Christopher J.; Plessl,Christian; Watkins,Matt;
 VandeVondele,Joost; Krack,Matthias; Hutter,Juerg. 
 The Journal of Chemical Physics, 152 (19), (2020). 
 CP2K: An electronic structure and molecular dynamics software package -
 Quickstep: Efficient and accurate electronic structure calculations.
 https://doi.org/10.1063/5.0007045

 Schuett, Ole; Messmer, Peter; Hutter, Juerg; VandeVondele, Joost. 
 Electronic Structure Calculations on Graphics Processing Units, John
 Wiley & Sons, Ltd, 173-190 (2016). 
 GPU-Accelerated Sparse Matrix-Matrix Multiplication for
 Linear Scaling Density Functional Theory.
 https://doi.org/10.1002/9781118670712.ch8

 Heinecke, A; Henry, G; Hutchinson, M; Pabst, H. 
 Proceedings of Intl. Supercomputing Conference, 981-991 (2016). 
 LIBXSMM: Accelerating Small Matrix Multiplications
 by Runtime Code Generation.
 https://doi.org/10.1109/SC.2016.83

 Borstnik, U; VandeVondele, J; Weber, V; Hutter, J. 
 PARALLEL COMPUTING, 40 (5-6), 47-58 (2014). 
 Sparse matrix multiplication: The distributed block-compressed sparse
 row library.
 https://doi.org/10.1016/j.parco.2014.03.012

 Hutter, J; Iannuzzi, M; Schiffmann, F; VandeVondele, J. 
 WIREs Comput Mol Sci., 4 (1), 15-25 (2014). 
 CP2K: atomistic simulations of condensed matter systems.
 https://doi.org/10.1002/wcms.1159

 Krack, M. 
 THEORETICAL CHEMISTRY ACCOUNTS, 114 (1-3), 145-152 (2005). 
 Pseudopotentials for H to Kr optimized for gradient-corrected
 exchange-correlation functionals.
 https://doi.org/10.1007/s00214-005-0655-y

 VandeVondele, J; Krack, M; Mohamed, F; Parrinello, M; Chassaing, T;
 Hutter, J. COMPUTER PHYSICS COMMUNICATIONS, 167 (2), 103-128 (2005). 
 QUICKSTEP: Fast and accurate density functional calculations using a
 mixed Gaussian and plane waves approach.
 https://doi.org/10.1016/j.cpc.2004.12.014

 Frigo, M; Johnson, SG. 
 PROCEEDINGS OF THE IEEE, 93 (2), 216-231 (2005). 
 The design and implementation of FFTW3.
 https://doi.org/10.1109/JPROC.2004.840301

 VandeVondele, J; Hutter, J. 
 JOURNAL OF CHEMICAL PHYSICS, 118 (10), 4365-4369 (2003). 
 An efficient orbital transformation method for electronic structure
 calculations.
 https://doi.org/10.1063/1.1543154

 Hartwigsen, C; Goedecker, S; Hutter, J. 
 PHYSICAL REVIEW B, 58 (7), 3641-3662 (1998). 
 Relativistic separable dual-space Gaussian pseudopotentials from H to Rn.
 https://doi.org/10.1103/PhysRevB.58.3641

 Lippert, G; Hutter, J; Parrinello, M. 
 MOLECULAR PHYSICS, 92 (3), 477-487 (1997). 
 A hybrid Gaussian and plane wave density functional scheme.
 https://doi.org/10.1080/002689797170220

 Perdew, JP; Burke, K; Ernzerhof, M. 
 PHYSICAL REVIEW LETTERS, 77 (18), 3865-3868 (1996). 
 Generalized gradient approximation made simple.
 https://doi.org/10.1103/PhysRevLett.77.3865

 Goedecker, S; Teter, M; Hutter, J. 
 PHYSICAL REVIEW B, 54 (3), 1703-1710 (1996). 
 Separable dual-space Gaussian pseudopotentials.
 https://doi.org/10.1103/PhysRevB.54.1703


 -------------------------------------------------------------------------------
 -                                                                             -
 -                                T I M I N G                                  -
 -                                                                             -
 -------------------------------------------------------------------------------
 SUBROUTINE                       CALLS  ASD         SELF TIME        TOTAL TIME
                                MAXIMUM       AVERAGE  MAXIMUM  AVERAGE  MAXIMUM
 CP2K                                 1  1.0    0.005    0.024   19.131   19.132
 qs_energies                          1  2.0    0.000    0.000   18.788   18.788
 scf_env_do_scf                       1  3.0    0.000    0.000   18.271   18.271
 scf_env_do_scf_inner_loop           20  4.0    0.001    0.002   15.403   15.403
 qs_ks_update_qs_env                 22  5.0    0.000    0.000   11.764   11.779
 rebuild_ks_matrix                   20  6.0    0.000    0.000   11.758   11.772
 qs_ks_build_kohn_sham_matrix        20  7.0    0.004    0.004   11.758   11.772
 qs_vxc_create                       20  8.0    0.000    0.001    6.795    6.825
 xc_vxc_pw_create                    20  9.0    0.053    0.061    6.795    6.825
 pw_transfer                        386  9.6    0.034    0.042    6.480    6.789
 fft_wrap_pw1pw2                    346 10.7    0.004    0.005    6.406    6.729
 fft_wrap_pw1pw2_300                223 11.8    0.274    0.302    6.082    6.336
 fft3d_ps                           346 12.7    2.356    2.620    5.171    5.719
 xc_rho_set_and_dset_create          20 10.0    0.020    0.022    4.199    4.426
 qs_rho_update_rho                   21  5.0    0.000    0.000    4.282    4.282
 calculate_rho_elec                  21  6.0    0.022    0.024    4.282    4.282
 sum_up_and_integrate                20  8.0    0.010    0.012    4.175    4.177
 integrate_v_rspace                  20  9.0    0.001    0.001    4.164    4.167
 mp_alltoall_z22v                   346 14.7    2.298    3.191    2.298    3.191
 init_scf_loop                        2  4.0    0.000    0.000    2.867    2.867
 xc_functional_eval                  20 11.0    0.000    0.000    2.411    2.636
 pbe_lda_eval                        20 12.0    2.411    2.635    2.411    2.635
 grid_integrate_task_list            20 10.0    2.021    2.591    2.021    2.591
 density_rs2pw                       21  7.0    0.001    0.001    2.291    2.561
 grid_collocate_task_list            21  7.0    1.849    2.316    1.849    2.316
 rs_pw_transfer                     165  9.4    0.003    0.004    1.961    2.185
 yz_to_x                            165 13.1    0.216    0.296    1.430    1.981
 prepare_preconditioner               2  5.0    0.000    0.000    1.682    1.683
 make_preconditioner                  2  6.0    0.000    0.000    1.659    1.659
 make_full_all                        2  7.0    0.000    0.000    1.639    1.639
 x_to_yz                            181 14.2    0.292    0.344    1.375    1.583
 potential_pw2rs                     20 10.0    0.002    0.006    1.532    1.534
 cp_fm_syevd                         16 10.0    0.000    0.000    1.227    1.228
 cp_fm_redistribute_end              16 11.0    0.215    1.217    0.216    1.218
 cp_fm_syevd_base                    16 10.3    1.001    1.210    1.001    1.210
 rs_pw_transfer_RS2PW_300            22  8.9    0.188    0.229    0.805    1.025
 mp_alltoall_d11v                   437 11.4    0.662    0.935    0.662    0.935
 mp_waitany                        1176 11.4    0.696    0.926    0.696    0.926
 rs_gather_matrices                  20 10.0    0.003    0.004    0.611    0.892
 mp_waitall_1                     30451 14.0    0.731    0.839    0.731    0.839
 dbcsr_multiply_generic             491 10.1    0.015    0.015    0.814    0.838
 qs_scf_new_mos                      20  5.0    0.000    0.000    0.745    0.758
 qs_scf_loop_do_ot                   20  6.0    0.000    0.000    0.745    0.758
 ot_scf_mini                         20  7.0    0.000    0.000    0.719    0.733
 pw_scatter_p                       181 13.2    0.507    0.546    0.507    0.546
 pw_gather_p                        165 12.1    0.438    0.523    0.438    0.523
 ot_mini                             20  8.0    0.000    0.000    0.488    0.503
 multiply_cannon                    491 11.1    0.032    0.034    0.429    0.501
 rs_pw_transfer_PW2RS_300            20 12.0    0.227    0.250    0.429    0.461
 multiply_cannon_loop               491 12.1    0.023    0.024    0.325    0.407
 rs_pw_transfer_PW2RS_100            20 12.0    0.061    0.071    0.351    0.393
 -------------------------------------------------------------------------------

 The number of warnings for this run is : 1
 
 -------------------------------------------------------------------------------
  **** **** ******  **  PROGRAM ENDED AT                 2021-05-18 14:35:43.826
 ***** ** ***  *** **   PROGRAM RAN ON                                   tcopt10
 **    ****   ******    PROGRAM RAN BY                                    hutter
 ***** **    ** ** **   PROGRAM PROCESS ID                                 19749
  **** **  *******  **  PROGRAM STOPPED IN            /data/hutter/run/delta/new
