 DBCSR| CPU Multiplication driver                                           XSMM
 DBCSR| Multrec recursion limit                                              512
 DBCSR| Multiplication stack size                                           1000
 DBCSR| Maximum elements for images                                    UNLIMITED
 DBCSR| Multiplicative factor virtual images                                   1
 DBCSR| Use multiplication densification                                       T
 DBCSR| Multiplication size stacks                                             3
 DBCSR| Use memory pool for CPU allocation                                     F
 DBCSR| Number of 3D layers                                               SINGLE
 DBCSR| Use MPI memory allocation                                              F
 DBCSR| Use RMA algorithm                                                      F
 DBCSR| Use Communication thread                                               T
 DBCSR| Communication thread load                                             87
 DBCSR| MPI: My node id                                                        0
 DBCSR| MPI: Number of nodes                                                  24
 DBCSR| OMP: Current number of threads                                         1
 DBCSR| OMP: Max number of threads                                             1
 DBCSR| Split modifier for TAS multiplication algorithm                  1.0E+00


  **** **** ******  **  PROGRAM STARTED AT               2021-05-18 14:41:12.431
 ***** ** ***  *** **   PROGRAM STARTED ON                               tcopt10
 **    ****   ******    PROGRAM STARTED BY                                hutter
 ***** **    ** ** **   PROGRAM PROCESS ID                                 22888
  **** **  *******  **  PROGRAM STARTED IN            /data/hutter/run/delta/new

 CP2K| version string:                    CP2K version 9.0 (Development Version)
 CP2K| source code revision number:                                  git:4b756b0
 CP2K| cp2kflags: omp libint fftw3 libxc elpa parallel mpi3 scalapack xsmm spgli
 CP2K|            b sirius libvori libbqb
 CP2K| is freely available from                            https://www.cp2k.org/
 CP2K| Program compiled at                         Wed May  5 15:51:41 CEST 2021
 CP2K| Program compiled on                                               tcopt10
 CP2K| Program compiled for                                                local
 CP2K| Data directory path                 /data/hutter/GITHUB/CURRENT/cp2k/data
 CP2K| Input file name                                             BH3CO-ref.inp

 GLOBAL| Force Environment number                                              1
 GLOBAL| Basis set file name                                      ../PBE_UCBASIS
 GLOBAL| Potential file name                                        ../POTENTIAL
 GLOBAL| MM Potential file name                                     MM_POTENTIAL
 GLOBAL| Coordinate file name                                      __STD_INPUT__
 GLOBAL| Method name                                                        CP2K
 GLOBAL| Project name                                                   refBH3CO
 GLOBAL| Preferred FFT library                                             FFTW3
 GLOBAL| Preferred diagonalization lib.                                       SL
 GLOBAL| Run type                                                         ENERGY
 GLOBAL| All-to-all communication in single precision                          F
 GLOBAL| FFTs using library dependent lengths                                  F
 GLOBAL| Grid backend                                                       AUTO
 GLOBAL| Global print level                                                  LOW
 GLOBAL| MPI I/O enabled                                                       T
 GLOBAL| Total number of message passing processes                            24
 GLOBAL| Number of threads for this process                                    1
 GLOBAL| This output is from process                                           0
 GLOBAL| CPU model name                          AMD EPYC 7401 24-Core Processor
 GLOBAL| CPUID                                                              1002

 MEMORY| system memory details [Kb]
 MEMORY|                        rank 0           min           max       average
 MEMORY| MemTotal            263969868     263969868     263969868     263969868
 MEMORY| MemFree             218545732     218545732     218545732     218545732
 MEMORY| Buffers                    36            36            36            36
 MEMORY| Cached               37783048      37783048      37783048      37783048
 MEMORY| Slab                  3024732       3024732       3024732       3024732
 MEMORY| SReclaimable          1716676       1716676       1716676       1716676
 MEMORY| MemLikelyFree       258045492     258045492     258045492     258045492


 GENERATE|  Preliminary Number of Bonds generated:                             2
 GENERATE|  Achieved consistency in connectivity generation.
 GENERATE|  Number of Bonds generated:                                         2
 GENERATE|  Preliminary Number of Bends generated:                             1
 GENERATE|  Number of Bends generated:                                         1
 GENERATE|  Number of UB generated:                                            1
 GENERATE|  Preliminary Number of Torsions generated:                          0

 *******************************************************************************
 *******************************************************************************
 **                                                                           **
 **     #####                         ##              ##                      **
 **    ##   ##            ##          ##              ##                      **
 **   ##     ##                       ##            ######                    **
 **   ##     ##  ##   ##  ##   #####  ##  ##   ####   ##    #####    #####    **
 **   ##     ##  ##   ##  ##  ##      ## ##   ##      ##   ##   ##  ##   ##   **
 **   ##  ## ##  ##   ##  ##  ##      ####     ###    ##   ######   ######    **
 **    ##  ###   ##   ##  ##  ##      ## ##      ##   ##   ##       ##        **
 **     #######   #####   ##   #####  ##  ##  ####    ##    #####   ##        **
 **           ##                                                    ##        **
 **                                                                           **
 **                                                ... make the atoms dance   **
 **                                                                           **
 **            Copyright (C) by CP2K developers group (2000-2021)             **
 **                      J. Chem. Phys. 152, 194103 (2020)                    **
 **                                                                           **
 *******************************************************************************


 TOTAL NUMBERS AND MAXIMUM NUMBERS

  Total number of            - Atomic kinds:                                   4
                             - Atoms:                                          6
                             - Shell sets:                                    12
                             - Shells:                                       144
                             - Primitive Cartesian functions:                 72
                             - Cartesian basis functions:                    720
                             - Spherical basis functions:                    552

  Maximum angular momentum of- Orbital basis functions:                        4
                             - Local part of the GTH pseudopotential:          2
                             - Non-local part of the GTH pseudopotential:      0


 SCF PARAMETERS         Density guess:                                    ATOMIC
                        --------------------------------------------------------
                        max_scf:                                              10
                        max_scf_history:                                       0
                        max_diis:                                              4
                        --------------------------------------------------------
                        eps_scf:                                        1.00E-07
                        eps_scf_history:                                0.00E+00
                        eps_diis:                                       1.00E-01
                        eps_eigval:                                     1.00E-05
                        --------------------------------------------------------
                        level_shift [a.u.]:                                 0.00
                        --------------------------------------------------------
                        Outer loop SCF in use 
                        No variables optimised in outer loop
                        eps_scf                                         1.00E-07
                        max_scf                                               10
                        No outer loop optimization
                        step_size                                       5.00E-01

 Number of electrons:                                                         16
 Number of occupied orbitals:                                                  8
 Number of molecular orbitals:                                                 8

 Number of orbital functions:                                                552
 Number of independent orbital functions:                                    552

 Extrapolation method: initial_guess


 SCF WAVEFUNCTION OPTIMIZATION

  ----------------------------------- OT ---------------------------------------
  Minimizer      : DIIS                : direct inversion
                                         in the iterative subspace
                                         using   7 DIIS vectors
                                         safer DIIS on
  Preconditioner : FULL_ALL            : diagonalization, state selective
  Precond_solver : DEFAULT
  stepsize       :    0.15000000                  energy_gap     :    0.08000000
  eps_taylor     :   0.10000E-15                  max_taylor     :             4
  ----------------------------------- OT ---------------------------------------

  Step     Update method      Time    Convergence         Total energy    Change
  ------------------------------------------------------------------------------
     1 OT DIIS     0.15E+00    0.7     0.09933817       -23.7965940342 -2.38E+01
     2 OT DIIS     0.15E+00    0.6     0.13007623       -23.0171173352  7.79E-01
     3 OT DIIS     0.15E+00    0.6     0.06152403       -25.1155811081 -2.10E+00
     4 OT DIIS     0.15E+00    0.6     0.03404637       -25.8858487598 -7.70E-01
     5 OT DIIS     0.15E+00    0.6     0.02502125       -26.0722042341 -1.86E-01
     6 OT DIIS     0.15E+00    0.6     0.01783118       -26.1884521982 -1.16E-01
     7 OT DIIS     0.15E+00    0.6     0.01364830       -26.2605505027 -7.21E-02
     8 OT DIIS     0.15E+00    0.6     0.01446368       -26.2639330933 -3.38E-03
     9 OT DIIS     0.15E+00    0.6     0.00713364       -26.2908953918 -2.70E-02
    10 OT DIIS     0.15E+00    0.6     0.00251291       -26.2985556941 -7.66E-03

  Leaving inner SCF loop after reaching    10 steps.


  Electronic density on regular grids:        -16.0000000000       -0.0000000000
  Core density on regular grids:               16.0000000000       -0.0000000000
  Total charge density on r-space grids:       -0.0000000000
  Total charge density g-space grids:          -0.0000000000

  Overlap energy of the core charge distribution:               0.00000491631839
  Self energy of the core charge distribution:                -65.14669631762727
  Core Hamiltonian energy:                                     19.22304116627242
  Hartree energy:                                              26.85507726287787
  Exchange-correlation energy:                                 -7.22998272197921

  Total energy:                                               -26.29855569413781

  outer SCF iter =    1 RMS gradient =   0.25E-02 energy =        -26.2985556941

  ----------------------------------- OT ---------------------------------------
  Minimizer      : DIIS                : direct inversion
                                         in the iterative subspace
                                         using   7 DIIS vectors
                                         safer DIIS on
  Preconditioner : FULL_ALL            : diagonalization, state selective
  Precond_solver : DEFAULT
  stepsize       :    0.15000000                  energy_gap     :    0.08000000
  eps_taylor     :   0.10000E-15                  max_taylor     :             4
  ----------------------------------- OT ---------------------------------------

  Step     Update method      Time    Convergence         Total energy    Change
  ------------------------------------------------------------------------------
     1 OT DIIS     0.15E+00    1.4     0.00140571       -26.3008839791 -2.33E-03
     2 OT DIIS     0.15E+00    0.6     0.00061210       -26.3017034438 -8.19E-04
     3 OT DIIS     0.15E+00    0.6     0.00050485       -26.3018156816 -1.12E-04
     4 OT DIIS     0.15E+00    0.6     0.00018620       -26.3018593173 -4.36E-05
     5 OT DIIS     0.15E+00    0.6     0.00003455       -26.3018646780 -5.36E-06
     6 OT DIIS     0.15E+00    0.6     0.00000510       -26.3018649189 -2.41E-07
     7 OT DIIS     0.15E+00    0.6     0.00000102       -26.3018649283 -9.35E-09
     8 OT DIIS     0.15E+00    0.6     0.00000017       -26.3018649288 -5.44E-10
     9 OT DIIS     0.15E+00    0.7     0.00000003       -26.3018649288 -1.45E-11

  *** SCF run converged in     9 steps ***


  Electronic density on regular grids:        -16.0000000000       -0.0000000000
  Core density on regular grids:               16.0000000000       -0.0000000000
  Total charge density on r-space grids:       -0.0000000001
  Total charge density g-space grids:          -0.0000000001

  Overlap energy of the core charge distribution:               0.00000491631839
  Self energy of the core charge distribution:                -65.14669631762727
  Core Hamiltonian energy:                                     19.21357825173508
  Hartree energy:                                              26.85908039628825
  Exchange-correlation energy:                                 -7.22783217555178

  Total energy:                                               -26.30186492883733

  outer SCF iter =    2 RMS gradient =   0.33E-07 energy =        -26.3018649288
  outer SCF loop converged in   2 iterations or   19 steps


 ENERGY| Total FORCE_EVAL ( QS ) energy [a.u.]:              -26.301864928837333

 -------------------------------------------------------------------------------
 -                                                                             -
 -                                DBCSR STATISTICS                             -
 -                                                                             -
 -------------------------------------------------------------------------------
 COUNTER                                    TOTAL       BLAS       SMM       ACC
 flops     8 x     8 x     8               137216       0.0%    100.0%      0.0%
 flops   136 x     8 x     8              1688576       0.0%    100.0%      0.0%
 flops     8 x     8 x    68              2036736       0.0%    100.0%      0.0%
 flops   184 x     8 x     8              2284544       0.0%    100.0%      0.0%
 flops   232 x     8 x     8              2880512       0.0%    100.0%      0.0%
 flops     8 x     8 x   116              3474432       0.0%    100.0%      0.0%
 flops    68 x    68 x     8              8878080       0.0%    100.0%      0.0%
 flops   116 x    68 x     8             10096640       0.0%    100.0%      0.0%
 flops    68 x   116 x     8             12620800       0.0%    100.0%      0.0%
 flops   136 x     8 x    68             18643968       0.0%    100.0%      0.0%
 flops   184 x     8 x    68             25224192       0.0%    100.0%      0.0%
 flops   116 x   116 x     8             25835520       0.0%    100.0%      0.0%
 flops   232 x     8 x    68             31804416       0.0%    100.0%      0.0%
 flops   136 x     8 x   116             31804416       0.0%    100.0%      0.0%
 flops    68 x     8 x    68             34624512       0.0%    100.0%      0.0%
 flops   184 x     8 x   116             43029504       0.0%    100.0%      0.0%
 flops   232 x     8 x   116             54254592       0.0%    100.0%      0.0%
 flops   116 x     8 x    68             59065344       0.0%    100.0%      0.0%
 flops    68 x     8 x   116             59065344       0.0%    100.0%      0.0%
 flops   116 x     8 x   116            100758528       0.0%    100.0%      0.0%
 flops inhomo. stacks                           0       0.0%      0.0%      0.0%
 flops total                       528.207872E+06       0.0%    100.0%      0.0%
 flops max/rank                    214.054912E+06       0.0%    100.0%      0.0%
 matmuls inhomo. stacks                         0       0.0%      0.0%      0.0%
 matmuls total                               3941       0.0%    100.0%      0.0%
 number of processed stacks                  3237       0.0%    100.0%      0.0%
 average stack size                                     0.0       1.2       0.0
 marketing flops                   568.423104E+06
 -------------------------------------------------------------------------------
 # multiplications                            425
 max memory usage/rank             336.121856E+06
 # max total images/rank                        3
 # max 3D layers                                1
 # MPI messages exchanged                  193800
 MPI messages size (bytes):
  total size                         1.201179E+09
  min size                           0.000000E+00
  max size                         215.296000E+03
  average size                       6.198032E+03
 MPI breakdown and total messages size (bytes):
             size <=      128              176486                        0
       128 < size <=     8192                7039                 33933824
      8192 < size <=    32768                1815                 21557760
     32768 < size <=   131072                5640                601359360
    131072 < size <=  4194304                2820                544327680
   4194304 < size <= 16777216                   0                        0
  16777216 < size                               0                        0
 -------------------------------------------------------------------------------

 *** WARNING in dbcsr_mm.F:294 :: Using a non-square number of MPI ranks ***
 *** might lead to poor performance. Used ranks: 24 Suggested: 25 49     ***

 -------------------------------------------------------------------------------
 -                                                                             -
 -                      DBCSR MESSAGE PASSING PERFORMANCE                      -
 -                                                                             -
 -------------------------------------------------------------------------------
 ROUTINE             CALLS      AVE VOLUME [Bytes]
 MP_Bcast               21                     12.
 MP_Allreduce         2284                      8.
 MP_Alltoall          1688                   8313.
 MP_ISend            17858                   6170.
 MP_IRecv            17874                   3563.
 -------------------------------------------------------------------------------

 -------------------------------------------------------------------------------
 -                                                                             -
 -                                GRID STATISTICS                              -
 -                                                                             -
 -------------------------------------------------------------------------------
 LP    KERNEL             BACKEND                              COUNT     PERCENT
 4     collocate ortho    REF                                  24160      10.22%
 4     integrate ortho    REF                                  22952       9.71%
 1     collocate ortho    REF                                  20540       8.69%
 1     integrate ortho    REF                                  19513       8.25%
 5     collocate ortho    REF                                  17620       7.45%
 5     integrate ortho    REF                                  16739       7.08%
 2     collocate ortho    REF                                  14960       6.33%
 3     collocate ortho    REF                                  14560       6.16%
 2     integrate ortho    REF                                  14212       6.01%
 3     integrate ortho    REF                                  13832       5.85%
 0     collocate ortho    REF                                  13340       5.64%
 0     integrate ortho    REF                                  12673       5.36%
 7     collocate ortho    REF                                   6980       2.95%
 7     integrate ortho    REF                                   6631       2.80%
 8     collocate ortho    REF                                   4820       2.04%
 8     integrate ortho    REF                                   4579       1.94%
 6     collocate ortho    REF                                   4220       1.78%
 6     integrate ortho    REF                                   4009       1.70%
 0     collocate general  REF                                    144       0.06%
 -------------------------------------------------------------------------------

 MEMORY| Estimated peak process memory [MiB]                                 321

 -------------------------------------------------------------------------------
 -                                                                             -
 -                         MESSAGE PASSING PERFORMANCE                         -
 -                                                                             -
 -------------------------------------------------------------------------------

 ROUTINE             CALLS      AVE VOLUME [Bytes]
 MP_Group                4
 MP_Bcast              294                1560403.
 MP_Allreduce          961                    639.
 MP_Sync                20
 MP_Alltoall           380                9542983.
 MP_ISendRecv         2691                 191232.
 MP_Wait              3931
 MP_comm_split          16
 MP_ISend             1120                 448907.
 MP_IRecv             1120                 449139.
 MP_Recv                 3                   8832.
 -------------------------------------------------------------------------------


 -------------------------------------------------------------------------------
 -                                                                             -
 -                           R E F E R E N C E S                               -
 -                                                                             -
 -------------------------------------------------------------------------------
 
 CP2K version 9.0 (Development Version), the CP2K developers group (2020).
 CP2K is freely available from https://www.cp2k.org/ .

 Kuehne,Thomas D.; Iannuzzi,Marcella; Del Ben,Mauro;
 Rybkin,Vladimir V.; Seewald,Patrick; Stein,Frederick; Laino,Teodoro;
 Khaliullin,Rustam Z.; Schuett,Ole; Schiffmann,Florian; Golze,Dorothea;
 Wilhelm,Jan; Chulkov,Sergey; Bani-Hashemian,Mohammad Hossein;
 Weber,Valery; Borstnik,Urban; Taillefumier,Mathieu;
 Jakobovits,Alice Shoshana; Lazzaro,Alfio; Pabst,Hans; Mueller,Tiziano;
 Schade,Robert; Guidon,Manuel; Andermatt,Samuel; Holmberg,Nico;
 Schenter,Gregory K.; Hehn,Anna; Bussy,Augustin; Belleflamme,Fabian;
 Tabacchi,Gloria; Gloess,Andreas; Lass,Michael; Bethune,Iain;
 Mundy,Christopher J.; Plessl,Christian; Watkins,Matt;
 VandeVondele,Joost; Krack,Matthias; Hutter,Juerg. 
 The Journal of Chemical Physics, 152 (19), (2020). 
 CP2K: An electronic structure and molecular dynamics software package -
 Quickstep: Efficient and accurate electronic structure calculations.
 https://doi.org/10.1063/5.0007045

 Schuett, Ole; Messmer, Peter; Hutter, Juerg; VandeVondele, Joost. 
 Electronic Structure Calculations on Graphics Processing Units, John
 Wiley & Sons, Ltd, 173-190 (2016). 
 GPU-Accelerated Sparse Matrix-Matrix Multiplication for
 Linear Scaling Density Functional Theory.
 https://doi.org/10.1002/9781118670712.ch8

 Heinecke, A; Henry, G; Hutchinson, M; Pabst, H. 
 Proceedings of Intl. Supercomputing Conference, 981-991 (2016). 
 LIBXSMM: Accelerating Small Matrix Multiplications
 by Runtime Code Generation.
 https://doi.org/10.1109/SC.2016.83

 Borstnik, U; VandeVondele, J; Weber, V; Hutter, J. 
 PARALLEL COMPUTING, 40 (5-6), 47-58 (2014). 
 Sparse matrix multiplication: The distributed block-compressed sparse
 row library.
 https://doi.org/10.1016/j.parco.2014.03.012

 Hutter, J; Iannuzzi, M; Schiffmann, F; VandeVondele, J. 
 WIREs Comput Mol Sci., 4 (1), 15-25 (2014). 
 CP2K: atomistic simulations of condensed matter systems.
 https://doi.org/10.1002/wcms.1159

 Krack, M. 
 THEORETICAL CHEMISTRY ACCOUNTS, 114 (1-3), 145-152 (2005). 
 Pseudopotentials for H to Kr optimized for gradient-corrected
 exchange-correlation functionals.
 https://doi.org/10.1007/s00214-005-0655-y

 VandeVondele, J; Krack, M; Mohamed, F; Parrinello, M; Chassaing, T;
 Hutter, J. COMPUTER PHYSICS COMMUNICATIONS, 167 (2), 103-128 (2005). 
 QUICKSTEP: Fast and accurate density functional calculations using a
 mixed Gaussian and plane waves approach.
 https://doi.org/10.1016/j.cpc.2004.12.014

 Frigo, M; Johnson, SG. 
 PROCEEDINGS OF THE IEEE, 93 (2), 216-231 (2005). 
 The design and implementation of FFTW3.
 https://doi.org/10.1109/JPROC.2004.840301

 VandeVondele, J; Hutter, J. 
 JOURNAL OF CHEMICAL PHYSICS, 118 (10), 4365-4369 (2003). 
 An efficient orbital transformation method for electronic structure
 calculations.
 https://doi.org/10.1063/1.1543154

 Hartwigsen, C; Goedecker, S; Hutter, J. 
 PHYSICAL REVIEW B, 58 (7), 3641-3662 (1998). 
 Relativistic separable dual-space Gaussian pseudopotentials from H to Rn.
 https://doi.org/10.1103/PhysRevB.58.3641

 Lippert, G; Hutter, J; Parrinello, M. 
 MOLECULAR PHYSICS, 92 (3), 477-487 (1997). 
 A hybrid Gaussian and plane wave density functional scheme.
 https://doi.org/10.1080/002689797170220

 Perdew, JP; Burke, K; Ernzerhof, M. 
 PHYSICAL REVIEW LETTERS, 77 (18), 3865-3868 (1996). 
 Generalized gradient approximation made simple.
 https://doi.org/10.1103/PhysRevLett.77.3865

 Goedecker, S; Teter, M; Hutter, J. 
 PHYSICAL REVIEW B, 54 (3), 1703-1710 (1996). 
 Separable dual-space Gaussian pseudopotentials.
 https://doi.org/10.1103/PhysRevB.54.1703


 -------------------------------------------------------------------------------
 -                                                                             -
 -                                T I M I N G                                  -
 -                                                                             -
 -------------------------------------------------------------------------------
 SUBROUTINE                       CALLS  ASD         SELF TIME        TOTAL TIME
                                MAXIMUM       AVERAGE  MAXIMUM  AVERAGE  MAXIMUM
 CP2K                                 1  1.0    0.005    0.029   13.124   13.125
 qs_energies                          1  2.0    0.000    0.000   12.605   12.605
 scf_env_do_scf                       1  3.0    0.000    0.000   12.252   12.253
 scf_env_do_scf_inner_loop           19  4.0    0.001    0.002   10.935   10.935
 qs_ks_update_qs_env                 21  5.0    0.000    0.000    8.985    8.989
 rebuild_ks_matrix                   19  6.0    0.000    0.000    8.980    8.985
 qs_ks_build_kohn_sham_matrix        19  7.0    0.003    0.004    8.980    8.985
 pw_transfer                        367  9.6    0.032    0.040    6.089    6.884
 fft_wrap_pw1pw2                    329 10.7    0.004    0.005    6.019    6.811
 fft_wrap_pw1pw2_300                212 11.8    0.255    0.280    5.758    6.574
 qs_vxc_create                       19  8.0    0.000    0.001    6.150    6.180
 xc_vxc_pw_create                    19  9.0    0.047    0.053    6.150    6.179
 fft3d_ps                           329 12.7    2.208    2.372    4.858    5.787
 xc_rho_set_and_dset_create          19 10.0    0.020    0.021    3.632    4.055
 mp_alltoall_z22v                   329 14.7    2.161    3.365    2.161    3.365
 qs_rho_update_rho                   20  5.0    0.000    0.000    2.517    2.518
 calculate_rho_elec                  20  6.0    0.021    0.023    2.517    2.518
 xc_functional_eval                  19 11.0    0.000    0.000    1.985    2.407
 pbe_lda_eval                        19 12.0    1.984    2.407    1.984    2.407
 yz_to_x                            157 13.1    0.200    0.276    1.444    2.364
 sum_up_and_integrate                19  8.0    0.009    0.011    2.128    2.131
 integrate_v_rspace                  19  9.0    0.001    0.001    2.119    2.123
 density_rs2pw                       20  7.0    0.001    0.001    1.837    1.920
 rs_pw_transfer                     157  9.4    0.003    0.004    1.625    1.739
 potential_pw2rs                     19 10.0    0.002    0.002    1.473    1.475
 x_to_yz                            172 14.2    0.279    0.327    1.196    1.369
 init_scf_loop                        2  4.0    0.000    0.000    1.314    1.314
 grid_collocate_task_list            20  7.0    0.600    0.704    0.600    0.704
 mp_waitall_1                     26611 14.0    0.557    0.666    0.557    0.666
 grid_integrate_task_list            19 10.0    0.506    0.630    0.506    0.630
 rs_pw_transfer_RS2PW_300            21  8.9    0.217    0.240    0.507    0.620
 dbcsr_multiply_generic             425 10.0    0.013    0.013    0.520    0.530
 pw_scatter_p                       172 13.2    0.476    0.516    0.476    0.516
 qs_scf_new_mos                      19  5.0    0.000    0.000    0.495    0.501
 qs_scf_loop_do_ot                   19  6.0    0.000    0.000    0.495    0.501
 pw_gather_p                        157 12.1    0.414    0.495    0.414    0.495
 mp_waitany                        1120 11.4    0.378    0.492    0.378    0.492
 ot_scf_mini                         19  7.0    0.000    0.000    0.474    0.480
 rs_pw_transfer_PW2RS_300            19 12.0    0.216    0.239    0.424    0.450
 qs_init_subsys                       1  2.0    0.001    0.001    0.450    0.450
 qs_env_setup                         1  3.0    0.000    0.000    0.448    0.448
 qs_env_rebuild_pw_env                2  3.5    0.000    0.000    0.447    0.448
 pw_env_rebuild                       1  5.0    0.000    0.000    0.447    0.447
 prepare_preconditioner               2  5.0    0.000    0.000    0.373    0.374
 rs_pw_transfer_PW2RS_100            19 12.0    0.059    0.067    0.336    0.363
 compute_max_radius                   1  6.0    0.358    0.363    0.358    0.363
 make_preconditioner                  2  6.0    0.000    0.000    0.358    0.358
 make_full_all                        2  7.0    0.000    0.000    0.344    0.345
 ot_mini                             19  8.0    0.000    0.000    0.320    0.326
 multiply_cannon                    425 11.0    0.027    0.029    0.252    0.304
 mp_alltoall_d11v                   429 11.4    0.173    0.277    0.173    0.277
 fft_wrap_pw1pw2_100                 39 11.5    0.009    0.010    0.201    0.266
 cp_fm_syevd                         16 10.0    0.000    0.000    0.262    0.263
 -------------------------------------------------------------------------------

 The number of warnings for this run is : 1
 
 -------------------------------------------------------------------------------
  **** **** ******  **  PROGRAM ENDED AT                 2021-05-18 14:41:26.174
 ***** ** ***  *** **   PROGRAM RAN ON                                   tcopt10
 **    ****   ******    PROGRAM RAN BY                                    hutter
 ***** **    ** ** **   PROGRAM PROCESS ID                                 22888
  **** **  *******  **  PROGRAM STOPPED IN            /data/hutter/run/delta/new
