 DBCSR| CPU Multiplication driver                                           XSMM
 DBCSR| Multrec recursion limit                                              512
 DBCSR| Multiplication stack size                                           1000
 DBCSR| Maximum elements for images                                    UNLIMITED
 DBCSR| Multiplicative factor virtual images                                   1
 DBCSR| Use multiplication densification                                       T
 DBCSR| Multiplication size stacks                                             3
 DBCSR| Use memory pool for CPU allocation                                     F
 DBCSR| Number of 3D layers                                               SINGLE
 DBCSR| Use MPI memory allocation                                              F
 DBCSR| Use RMA algorithm                                                      F
 DBCSR| Use Communication thread                                               T
 DBCSR| Communication thread load                                             87
 DBCSR| MPI: My node id                                                        0
 DBCSR| MPI: Number of nodes                                                  24
 DBCSR| OMP: Current number of threads                                         1
 DBCSR| OMP: Max number of threads                                             1
 DBCSR| Split modifier for TAS multiplication algorithm                  1.0E+00


  **** **** ******  **  PROGRAM STARTED AT               2021-05-18 14:32:05.998
 ***** ** ***  *** **   PROGRAM STARTED ON                               tcopt10
 **    ****   ******    PROGRAM STARTED BY                                hutter
 ***** **    ** ** **   PROGRAM PROCESS ID                                 18405
  **** **  *******  **  PROGRAM STARTED IN            /data/hutter/run/delta/new

 CP2K| version string:                    CP2K version 9.0 (Development Version)
 CP2K| source code revision number:                                  git:4b756b0
 CP2K| cp2kflags: omp libint fftw3 libxc elpa parallel mpi3 scalapack xsmm spgli
 CP2K|            b sirius libvori libbqb
 CP2K| is freely available from                            https://www.cp2k.org/
 CP2K| Program compiled at                         Wed May  5 15:51:41 CEST 2021
 CP2K| Program compiled on                                               tcopt10
 CP2K| Program compiled for                                                local
 CP2K| Data directory path                 /data/hutter/GITHUB/CURRENT/cp2k/data
 CP2K| Input file name                                            BH3NH3-ref.inp

 GLOBAL| Force Environment number                                              1
 GLOBAL| Basis set file name                                      ../PBE_UCBASIS
 GLOBAL| Potential file name                                        ../POTENTIAL
 GLOBAL| MM Potential file name                                     MM_POTENTIAL
 GLOBAL| Coordinate file name                                      __STD_INPUT__
 GLOBAL| Method name                                                        CP2K
 GLOBAL| Project name                                                  refBH3NH3
 GLOBAL| Preferred FFT library                                             FFTW3
 GLOBAL| Preferred diagonalization lib.                                       SL
 GLOBAL| Run type                                                         ENERGY
 GLOBAL| All-to-all communication in single precision                          F
 GLOBAL| FFTs using library dependent lengths                                  F
 GLOBAL| Grid backend                                                       AUTO
 GLOBAL| Global print level                                                  LOW
 GLOBAL| MPI I/O enabled                                                       T
 GLOBAL| Total number of message passing processes                            24
 GLOBAL| Number of threads for this process                                    1
 GLOBAL| This output is from process                                           0
 GLOBAL| CPU model name                          AMD EPYC 7401 24-Core Processor
 GLOBAL| CPUID                                                              1002

 MEMORY| system memory details [Kb]
 MEMORY|                        rank 0           min           max       average
 MEMORY| MemTotal            263969868     263969868     263969868     263969868
 MEMORY| MemFree             218567564     218567564     218567564     218567564
 MEMORY| Buffers                    36            36            36            36
 MEMORY| Cached               37776696      37776696      37776696      37776696
 MEMORY| Slab                  3026320       3026320       3026320       3026320
 MEMORY| SReclaimable          1717804       1717804       1717804       1717804
 MEMORY| MemLikelyFree       258062100     258062100     258062100     258062100


 GENERATE|  Preliminary Number of Bonds generated:                             5
 GENERATE|  Achieved consistency in connectivity generation.
 GENERATE|  Number of Bonds generated:                                         5
 GENERATE|  Preliminary Number of Bends generated:                             6
 GENERATE|  Number of Bends generated:                                         6
 GENERATE|  Number of UB generated:                                            6
 GENERATE|  Preliminary Number of Torsions generated:                          4
 GENERATE|  Number of Torsions generated:                                      4
 GENERATE|  Number of Impropers generated:                                     2
 GENERATE|  Number of 1-4 interactions generated:                              4

 *******************************************************************************
 *******************************************************************************
 **                                                                           **
 **     #####                         ##              ##                      **
 **    ##   ##            ##          ##              ##                      **
 **   ##     ##                       ##            ######                    **
 **   ##     ##  ##   ##  ##   #####  ##  ##   ####   ##    #####    #####    **
 **   ##     ##  ##   ##  ##  ##      ## ##   ##      ##   ##   ##  ##   ##   **
 **   ##  ## ##  ##   ##  ##  ##      ####     ###    ##   ######   ######    **
 **    ##  ###   ##   ##  ##  ##      ## ##      ##   ##   ##       ##        **
 **     #######   #####   ##   #####  ##  ##  ####    ##    #####   ##        **
 **           ##                                                    ##        **
 **                                                                           **
 **                                                ... make the atoms dance   **
 **                                                                           **
 **            Copyright (C) by CP2K developers group (2000-2021)             **
 **                      J. Chem. Phys. 152, 194103 (2020)                    **
 **                                                                           **
 *******************************************************************************


 TOTAL NUMBERS AND MAXIMUM NUMBERS

  Total number of            - Atomic kinds:                                   3
                             - Atoms:                                          8
                             - Shell sets:                                    16
                             - Shells:                                       176
                             - Primitive Cartesian functions:                 96
                             - Cartesian basis functions:                    816
                             - Spherical basis functions:                    640

  Maximum angular momentum of- Orbital basis functions:                        4
                             - Local part of the GTH pseudopotential:          2
                             - Non-local part of the GTH pseudopotential:      0


 SCF PARAMETERS         Density guess:                                    ATOMIC
                        --------------------------------------------------------
                        max_scf:                                              10
                        max_scf_history:                                       0
                        max_diis:                                              4
                        --------------------------------------------------------
                        eps_scf:                                        1.00E-07
                        eps_scf_history:                                0.00E+00
                        eps_diis:                                       1.00E-01
                        eps_eigval:                                     1.00E-05
                        --------------------------------------------------------
                        level_shift [a.u.]:                                 0.00
                        --------------------------------------------------------
                        Outer loop SCF in use 
                        No variables optimised in outer loop
                        eps_scf                                         1.00E-07
                        max_scf                                               10
                        No outer loop optimization
                        step_size                                       5.00E-01

 Number of electrons:                                                         14
 Number of occupied orbitals:                                                  7
 Number of molecular orbitals:                                                 7

 Number of orbital functions:                                                640
 Number of independent orbital functions:                                    640

 Extrapolation method: initial_guess


 SCF WAVEFUNCTION OPTIMIZATION

  ----------------------------------- OT ---------------------------------------
  Minimizer      : DIIS                : direct inversion
                                         in the iterative subspace
                                         using   7 DIIS vectors
                                         safer DIIS on
  Preconditioner : FULL_ALL            : diagonalization, state selective
  Precond_solver : DEFAULT
  stepsize       :    0.15000000                  energy_gap     :    0.08000000
  eps_taylor     :   0.10000E-15                  max_taylor     :             4
  ----------------------------------- OT ---------------------------------------

  Step     Update method      Time    Convergence         Total energy    Change
  ------------------------------------------------------------------------------
     1 OT DIIS     0.15E+00    0.8     0.05580142       -14.5961301564 -1.46E+01
     2 OT DIIS     0.15E+00    0.7     0.07661388       -14.9168733105 -3.21E-01
     3 OT DIIS     0.15E+00    0.7     0.02949042       -15.5151306272 -5.98E-01
     4 OT DIIS     0.15E+00    0.7     0.02715193       -15.7527229463 -2.38E-01
     5 OT SD       0.15E+00    0.7     0.02702717       -15.8768982436 -1.24E-01
     6 OT DIIS     0.15E+00    0.7     0.01945272       -16.1869777599 -3.10E-01
     7 OT DIIS     0.15E+00    0.7     0.03364417       -15.9431732993  2.44E-01
     8 OT DIIS     0.15E+00    0.6     0.02898787       -16.1410564244 -1.98E-01
     9 OT DIIS     0.15E+00    0.6     0.02229769       -16.2456002805 -1.05E-01
    10 OT DIIS     0.15E+00    0.7     0.01401249       -16.3106976604 -6.51E-02

  Leaving inner SCF loop after reaching    10 steps.


  Electronic density on regular grids:        -13.9999999999        0.0000000001
  Core density on regular grids:               14.0000000000       -0.0000000000
  Total charge density on r-space grids:        0.0000000001
  Total charge density g-space grids:           0.0000000001

  Overlap energy of the core charge distribution:               0.00000233655010
  Self energy of the core charge distribution:                -39.33973256334573
  Core Hamiltonian energy:                                     12.34281579512758
  Hartree energy:                                              16.40215189755847
  Exchange-correlation energy:                                 -5.71593512631110

  Total energy:                                               -16.31069766042067

  outer SCF iter =    1 RMS gradient =   0.14E-01 energy =        -16.3106976604

  ----------------------------------- OT ---------------------------------------
  Minimizer      : DIIS                : direct inversion
                                         in the iterative subspace
                                         using   7 DIIS vectors
                                         safer DIIS on
  Preconditioner : FULL_ALL            : diagonalization, state selective
  Precond_solver : DEFAULT
  stepsize       :    0.15000000                  energy_gap     :    0.08000000
  eps_taylor     :   0.10000E-15                  max_taylor     :             4
  ----------------------------------- OT ---------------------------------------

  Step     Update method      Time    Convergence         Total energy    Change
  ------------------------------------------------------------------------------
     1 OT DIIS     0.15E+00    1.6     0.00668658       -16.3242034801 -1.35E-02
     2 OT DIIS     0.15E+00    0.6     0.00224981       -16.3433803990 -1.92E-02
     3 OT DIIS     0.15E+00    0.7     0.00061845       -16.3458001936 -2.42E-03
     4 OT DIIS     0.15E+00    0.6     0.00023251       -16.3459217998 -1.22E-04
     5 OT DIIS     0.15E+00    0.7     0.00004390       -16.3459347532 -1.30E-05
     6 OT DIIS     0.15E+00    0.7     0.00001078       -16.3459355693 -8.16E-07
     7 OT DIIS     0.15E+00    0.7     0.00000259       -16.3459356197 -5.04E-08
     8 OT DIIS     0.15E+00    0.7     0.00000056       -16.3459356226 -2.91E-09
     9 OT DIIS     0.15E+00    0.7     0.00000012       -16.3459356227 -1.30E-10
    10 OT DIIS     0.15E+00    0.6     0.00000002       -16.3459356227 -7.39E-12

  *** SCF run converged in    10 steps ***


  Electronic density on regular grids:        -13.9999999999        0.0000000001
  Core density on regular grids:               14.0000000000       -0.0000000000
  Total charge density on r-space grids:        0.0000000000
  Total charge density g-space grids:           0.0000000000

  Overlap energy of the core charge distribution:               0.00000233655010
  Self energy of the core charge distribution:                -39.33973256334573
  Core Hamiltonian energy:                                     12.33307541110207
  Hartree energy:                                              16.39448310076551
  Exchange-correlation energy:                                 -5.73376390778952

  Total energy:                                               -16.34593562271758

  outer SCF iter =    2 RMS gradient =   0.22E-07 energy =        -16.3459356227
  outer SCF loop converged in   2 iterations or   20 steps


 ENERGY| Total FORCE_EVAL ( QS ) energy [a.u.]:              -16.345935622717576

 -------------------------------------------------------------------------------
 -                                                                             -
 -                                DBCSR STATISTICS                             -
 -                                                                             -
 -------------------------------------------------------------------------------
 COUNTER                                    TOTAL       BLAS       SMM       ACC
 flops     7 x     7 x     7               115248       0.0%    100.0%      0.0%
 flops     7 x     7 x   116              1864352       0.0%    100.0%      0.0%
 flops   232 x     7 x     7              2319072       0.0%    100.0%      0.0%
 flops     7 x     7 x    68              3278688       0.0%    100.0%      0.0%
 flops   136 x     7 x     7              4078368       0.0%    100.0%      0.0%
 flops   116 x   116 x     7             11868192       0.0%    100.0%      0.0%
 flops    68 x   116 x     7             13914432       0.0%    100.0%      0.0%
 flops   116 x    68 x     7             13914432       0.0%    100.0%      0.0%
 flops    68 x    68 x     7             28548576       0.0%    100.0%      0.0%
 flops   232 x     7 x   116             33155584       0.0%    100.0%      0.0%
 flops   116 x     7 x   116             40690944       0.0%    100.0%      0.0%
 flops   232 x     7 x    68             58308096       0.0%    100.0%      0.0%
 flops   136 x     7 x   116             58308096       0.0%    100.0%      0.0%
 flops   116 x     7 x    68             71559936       0.0%    100.0%      0.0%
 flops    68 x     7 x   116             71559936       0.0%    100.0%      0.0%
 flops   136 x     7 x    68            102541824       0.0%    100.0%      0.0%
 flops    68 x     7 x    68            125846784       0.0%    100.0%      0.0%
 flops inhomo. stacks                           0       0.0%      0.0%      0.0%
 flops total                       641.872560E+06       0.0%    100.0%      0.0%
 flops max/rank                    223.160112E+06       0.0%    100.0%      0.0%
 matmuls inhomo. stacks                         0       0.0%      0.0%      0.0%
 matmuls total                               6852       0.0%    100.0%      0.0%
 number of processed stacks                  4872       0.0%    100.0%      0.0%
 average stack size                                     0.0       1.4       0.0
 marketing flops                   694.175616E+06
 -------------------------------------------------------------------------------
 # multiplications                            473
 max memory usage/rank             340.869120E+06
 # max total images/rank                        3
 # max 3D layers                                1
 # MPI messages exchanged                  215688
 MPI messages size (bytes):
  total size                         1.664626E+09
  min size                           0.000000E+00
  max size                         215.296000E+03
  average size                       7.717751E+03
 MPI breakdown and total messages size (bytes):
             size <=      128              187920                        0
       128 < size <=     8192               11410                 50185744
      8192 < size <=    32768                 678                  8808576
     32768 < size <=   131072               14700               1394641920
    131072 < size <=  4194304                 980                210990080
   4194304 < size <= 16777216                   0                        0
  16777216 < size                               0                        0
 -------------------------------------------------------------------------------

 *** WARNING in dbcsr_mm.F:294 :: Using a non-square number of MPI ranks ***
 *** might lead to poor performance. Used ranks: 24 Suggested: 25 49     ***

 -------------------------------------------------------------------------------
 -                                                                             -
 -                      DBCSR MESSAGE PASSING PERFORMANCE                      -
 -                                                                             -
 -------------------------------------------------------------------------------
 ROUTINE             CALLS      AVE VOLUME [Bytes]
 MP_Bcast               18                     12.
 MP_Allreduce         2527                      8.
 MP_Alltoall          1925                   7578.
 MP_ISend            19858                   5792.
 MP_IRecv            19858                   4098.
 -------------------------------------------------------------------------------

 -------------------------------------------------------------------------------
 -                                                                             -
 -                                GRID STATISTICS                              -
 -                                                                             -
 -------------------------------------------------------------------------------
 LP    KERNEL             BACKEND                              COUNT     PERCENT
 3     collocate ortho    REF                                  54600      12.89%
 3     integrate ortho    REF                                  52000      12.28%
 0     collocate ortho    REF                                  48321      11.41%
 0     integrate ortho    REF                                  46020      10.86%
 4     collocate ortho    REF                                  35511       8.38%
 4     integrate ortho    REF                                  33820       7.98%
 1     collocate ortho    REF                                  30786       7.27%
 1     integrate ortho    REF                                  29320       6.92%
 6     collocate ortho    REF                                  15624       3.69%
 6     integrate ortho    REF                                  14880       3.51%
 7     collocate ortho    REF                                  10290       2.43%
 5     collocate ortho    REF                                  10017       2.36%
 7     integrate ortho    REF                                   9800       2.31%
 5     integrate ortho    REF                                   9540       2.25%
 2     collocate ortho    REF                                   8715       2.06%
 2     integrate ortho    REF                                   8300       1.96%
 8     collocate ortho    REF                                   3003       0.71%
 8     integrate ortho    REF                                   2860       0.68%
 0     collocate general  REF                                    192       0.05%
 -------------------------------------------------------------------------------

 MEMORY| Estimated peak process memory [MiB]                                 326

 -------------------------------------------------------------------------------
 -                                                                             -
 -                         MESSAGE PASSING PERFORMANCE                         -
 -                                                                             -
 -------------------------------------------------------------------------------

 ROUTINE             CALLS      AVE VOLUME [Bytes]
 MP_Group                4
 MP_Bcast              282                1220308.
 MP_Allreduce          991                    617.
 MP_Sync                30
 MP_Alltoall           399                9604172.
 MP_ISendRecv         2829                 191232.
 MP_Wait              4131
 MP_comm_split          26
 MP_ISend             1176                 448913.
 MP_IRecv             1176                 449133.
 MP_Recv                 3                  10240.
 -------------------------------------------------------------------------------


 -------------------------------------------------------------------------------
 -                                                                             -
 -                           R E F E R E N C E S                               -
 -                                                                             -
 -------------------------------------------------------------------------------
 
 CP2K version 9.0 (Development Version), the CP2K developers group (2020).
 CP2K is freely available from https://www.cp2k.org/ .

 Kuehne,Thomas D.; Iannuzzi,Marcella; Del Ben,Mauro;
 Rybkin,Vladimir V.; Seewald,Patrick; Stein,Frederick; Laino,Teodoro;
 Khaliullin,Rustam Z.; Schuett,Ole; Schiffmann,Florian; Golze,Dorothea;
 Wilhelm,Jan; Chulkov,Sergey; Bani-Hashemian,Mohammad Hossein;
 Weber,Valery; Borstnik,Urban; Taillefumier,Mathieu;
 Jakobovits,Alice Shoshana; Lazzaro,Alfio; Pabst,Hans; Mueller,Tiziano;
 Schade,Robert; Guidon,Manuel; Andermatt,Samuel; Holmberg,Nico;
 Schenter,Gregory K.; Hehn,Anna; Bussy,Augustin; Belleflamme,Fabian;
 Tabacchi,Gloria; Gloess,Andreas; Lass,Michael; Bethune,Iain;
 Mundy,Christopher J.; Plessl,Christian; Watkins,Matt;
 VandeVondele,Joost; Krack,Matthias; Hutter,Juerg. 
 The Journal of Chemical Physics, 152 (19), (2020). 
 CP2K: An electronic structure and molecular dynamics software package -
 Quickstep: Efficient and accurate electronic structure calculations.
 https://doi.org/10.1063/5.0007045

 Schuett, Ole; Messmer, Peter; Hutter, Juerg; VandeVondele, Joost. 
 Electronic Structure Calculations on Graphics Processing Units, John
 Wiley & Sons, Ltd, 173-190 (2016). 
 GPU-Accelerated Sparse Matrix-Matrix Multiplication for
 Linear Scaling Density Functional Theory.
 https://doi.org/10.1002/9781118670712.ch8

 Heinecke, A; Henry, G; Hutchinson, M; Pabst, H. 
 Proceedings of Intl. Supercomputing Conference, 981-991 (2016). 
 LIBXSMM: Accelerating Small Matrix Multiplications
 by Runtime Code Generation.
 https://doi.org/10.1109/SC.2016.83

 Borstnik, U; VandeVondele, J; Weber, V; Hutter, J. 
 PARALLEL COMPUTING, 40 (5-6), 47-58 (2014). 
 Sparse matrix multiplication: The distributed block-compressed sparse
 row library.
 https://doi.org/10.1016/j.parco.2014.03.012

 Hutter, J; Iannuzzi, M; Schiffmann, F; VandeVondele, J. 
 WIREs Comput Mol Sci., 4 (1), 15-25 (2014). 
 CP2K: atomistic simulations of condensed matter systems.
 https://doi.org/10.1002/wcms.1159

 Krack, M. 
 THEORETICAL CHEMISTRY ACCOUNTS, 114 (1-3), 145-152 (2005). 
 Pseudopotentials for H to Kr optimized for gradient-corrected
 exchange-correlation functionals.
 https://doi.org/10.1007/s00214-005-0655-y

 VandeVondele, J; Krack, M; Mohamed, F; Parrinello, M; Chassaing, T;
 Hutter, J. COMPUTER PHYSICS COMMUNICATIONS, 167 (2), 103-128 (2005). 
 QUICKSTEP: Fast and accurate density functional calculations using a
 mixed Gaussian and plane waves approach.
 https://doi.org/10.1016/j.cpc.2004.12.014

 Frigo, M; Johnson, SG. 
 PROCEEDINGS OF THE IEEE, 93 (2), 216-231 (2005). 
 The design and implementation of FFTW3.
 https://doi.org/10.1109/JPROC.2004.840301

 VandeVondele, J; Hutter, J. 
 JOURNAL OF CHEMICAL PHYSICS, 118 (10), 4365-4369 (2003). 
 An efficient orbital transformation method for electronic structure
 calculations.
 https://doi.org/10.1063/1.1543154

 Hartwigsen, C; Goedecker, S; Hutter, J. 
 PHYSICAL REVIEW B, 58 (7), 3641-3662 (1998). 
 Relativistic separable dual-space Gaussian pseudopotentials from H to Rn.
 https://doi.org/10.1103/PhysRevB.58.3641

 Lippert, G; Hutter, J; Parrinello, M. 
 MOLECULAR PHYSICS, 92 (3), 477-487 (1997). 
 A hybrid Gaussian and plane wave density functional scheme.
 https://doi.org/10.1080/002689797170220

 Perdew, JP; Burke, K; Ernzerhof, M. 
 PHYSICAL REVIEW LETTERS, 77 (18), 3865-3868 (1996). 
 Generalized gradient approximation made simple.
 https://doi.org/10.1103/PhysRevLett.77.3865

 Goedecker, S; Teter, M; Hutter, J. 
 PHYSICAL REVIEW B, 54 (3), 1703-1710 (1996). 
 Separable dual-space Gaussian pseudopotentials.
 https://doi.org/10.1103/PhysRevB.54.1703


 -------------------------------------------------------------------------------
 -                                                                             -
 -                                T I M I N G                                  -
 -                                                                             -
 -------------------------------------------------------------------------------
 SUBROUTINE                       CALLS  ASD         SELF TIME        TOTAL TIME
                                MAXIMUM       AVERAGE  MAXIMUM  AVERAGE  MAXIMUM
 CP2K                                 1  1.0    0.005    0.024   14.470   14.471
 qs_energies                          1  2.0    0.000    0.000   14.128   14.128
 scf_env_do_scf                       1  3.0    0.000    0.000   13.713   13.714
 scf_env_do_scf_inner_loop           20  4.0    0.001    0.002   12.245   12.246
 qs_ks_update_qs_env                 22  5.0    0.000    0.000    9.896    9.902
 rebuild_ks_matrix                   20  6.0    0.000    0.000    9.891    9.898
 qs_ks_build_kohn_sham_matrix        20  7.0    0.004    0.004    9.891    9.898
 pw_transfer                        386  9.6    0.034    0.042    6.452    7.117
 fft_wrap_pw1pw2                    346 10.7    0.004    0.005    6.377    7.034
 fft_wrap_pw1pw2_300                223 11.8    0.271    0.297    6.078    6.768
 qs_vxc_create                       20  8.0    0.000    0.001    6.627    6.661
 xc_vxc_pw_create                    20  9.0    0.053    0.058    6.627    6.660
 fft3d_ps                           346 12.7    2.339    2.551    5.149    5.773
 xc_rho_set_and_dset_create          20 10.0    0.021    0.023    3.995    4.354
 mp_alltoall_z22v                   346 14.7    2.296    3.138    2.296    3.138
 qs_rho_update_rho                   21  5.0    0.000    0.000    2.919    2.920
 calculate_rho_elec                  21  6.0    0.022    0.024    2.919    2.919
 xc_functional_eval                  20 11.0    0.000    0.000    2.263    2.623
 pbe_lda_eval                        20 12.0    2.263    2.623    2.263    2.623
 sum_up_and_integrate                20  8.0    0.011    0.012    2.495    2.497
 integrate_v_rspace                  20  9.0    0.001    0.001    2.484    2.487
 yz_to_x                            165 13.1    0.211    0.273    1.487    2.199
 density_rs2pw                       21  7.0    0.001    0.001    1.964    2.127
 rs_pw_transfer                     165  9.4    0.003    0.004    1.722    1.807
 potential_pw2rs                     20 10.0    0.002    0.002    1.545    1.547
 x_to_yz                            181 14.2    0.294    0.348    1.313    1.517
 init_scf_loop                        2  4.0    0.000    0.000    1.467    1.467
 grid_collocate_task_list            21  7.0    0.813    0.963    0.813    0.963
 grid_integrate_task_list            20 10.0    0.763    0.918    0.763    0.918
 mp_waitall_1                     29443 14.0    0.566    0.667    0.566    0.667
 rs_pw_transfer_RS2PW_300            22  8.9    0.217    0.252    0.579    0.661
 mp_waitany                        1176 11.4    0.449    0.567    0.449    0.567
 dbcsr_multiply_generic             473 10.1    0.014    0.015    0.553    0.560
 qs_scf_new_mos                      20  5.0    0.000    0.000    0.548    0.553
 qs_scf_loop_do_ot                   20  6.0    0.000    0.000    0.548    0.552
 pw_scatter_p                       181 13.2    0.502    0.548    0.502    0.548
 ot_scf_mini                         20  7.0    0.000    0.000    0.527    0.532
 pw_gather_p                        165 12.1    0.438    0.523    0.438    0.523
 prepare_preconditioner               2  5.0    0.000    0.000    0.493    0.494
 make_preconditioner                  2  6.0    0.000    0.000    0.478    0.478
 make_full_all                        2  7.0    0.000    0.000    0.464    0.465
 rs_pw_transfer_PW2RS_300            20 12.0    0.230    0.248    0.432    0.457
 rs_pw_transfer_PW2RS_100            20 12.0    0.063    0.075    0.347    0.389
 mp_alltoall_d11v                   500 11.7    0.213    0.387    0.213    0.387
 cp_fm_syevd                         26 10.4    0.000    0.000    0.371    0.372
 rs_gather_matrices                  20 10.0    0.001    0.005    0.176    0.359
 cp_fm_redistribute_end              26 11.4    0.187    0.358    0.187    0.359
 cp_fm_syevd_base                    26 11.1    0.171    0.351    0.171    0.351
 ot_mini                             20  8.0    0.000    0.000    0.338    0.343
 multiply_cannon                    473 11.1    0.032    0.033    0.269    0.294
 -------------------------------------------------------------------------------

 The number of warnings for this run is : 1
 
 -------------------------------------------------------------------------------
  **** **** ******  **  PROGRAM ENDED AT                 2021-05-18 14:32:21.084
 ***** ** ***  *** **   PROGRAM RAN ON                                   tcopt10
 **    ****   ******    PROGRAM RAN BY                                    hutter
 ***** **    ** ** **   PROGRAM PROCESS ID                                 18405
  **** **  *******  **  PROGRAM STOPPED IN            /data/hutter/run/delta/new
