 DBCSR| CPU Multiplication driver                                           XSMM
 DBCSR| Multrec recursion limit                                              512
 DBCSR| Multiplication stack size                                           1000
 DBCSR| Maximum elements for images                                    UNLIMITED
 DBCSR| Multiplicative factor virtual images                                   1
 DBCSR| Use multiplication densification                                       T
 DBCSR| Multiplication size stacks                                             3
 DBCSR| Use memory pool for CPU allocation                                     F
 DBCSR| Number of 3D layers                                               SINGLE
 DBCSR| Use MPI memory allocation                                              F
 DBCSR| Use RMA algorithm                                                      F
 DBCSR| Use Communication thread                                               T
 DBCSR| Communication thread load                                             87
 DBCSR| MPI: My node id                                                        0
 DBCSR| MPI: Number of nodes                                                  24
 DBCSR| OMP: Current number of threads                                         1
 DBCSR| OMP: Max number of threads                                             1
 DBCSR| Split modifier for TAS multiplication algorithm                  1.0E+00


  **** **** ******  **  PROGRAM STARTED AT               2021-05-18 14:38:26.524
 ***** ** ***  *** **   PROGRAM STARTED ON                               tcopt10
 **    ****   ******    PROGRAM STARTED BY                                hutter
 ***** **    ** ** **   PROGRAM PROCESS ID                                 21381
  **** **  *******  **  PROGRAM STARTED IN            /data/hutter/run/delta/new

 CP2K| version string:                    CP2K version 9.0 (Development Version)
 CP2K| source code revision number:                                  git:4b756b0
 CP2K| cp2kflags: omp libint fftw3 libxc elpa parallel mpi3 scalapack xsmm spgli
 CP2K|            b sirius libvori libbqb
 CP2K| is freely available from                            https://www.cp2k.org/
 CP2K| Program compiled at                         Wed May  5 15:51:41 CEST 2021
 CP2K| Program compiled on                                               tcopt10
 CP2K| Program compiled for                                                local
 CP2K| Data directory path                 /data/hutter/GITHUB/CURRENT/cp2k/data
 CP2K| Input file name                                            C4H4N2-ref.inp

 GLOBAL| Force Environment number                                              1
 GLOBAL| Basis set file name                                      ../PBE_UCBASIS
 GLOBAL| Potential file name                                        ../POTENTIAL
 GLOBAL| MM Potential file name                                     MM_POTENTIAL
 GLOBAL| Coordinate file name                                      __STD_INPUT__
 GLOBAL| Method name                                                        CP2K
 GLOBAL| Project name                                                  refC4H4N2
 GLOBAL| Preferred FFT library                                             FFTW3
 GLOBAL| Preferred diagonalization lib.                                       SL
 GLOBAL| Run type                                                         ENERGY
 GLOBAL| All-to-all communication in single precision                          F
 GLOBAL| FFTs using library dependent lengths                                  F
 GLOBAL| Grid backend                                                       AUTO
 GLOBAL| Global print level                                                  LOW
 GLOBAL| MPI I/O enabled                                                       T
 GLOBAL| Total number of message passing processes                            24
 GLOBAL| Number of threads for this process                                    1
 GLOBAL| This output is from process                                           0
 GLOBAL| CPU model name                          AMD EPYC 7401 24-Core Processor
 GLOBAL| CPUID                                                              1002

 MEMORY| system memory details [Kb]
 MEMORY|                        rank 0           min           max       average
 MEMORY| MemTotal            263969868     263969868     263969868     263969868
 MEMORY| MemFree             218556028     218556028     218556028     218556028
 MEMORY| Buffers                    36            36            36            36
 MEMORY| Cached               37780384      37780384      37780384      37780384
 MEMORY| Slab                  3028016       3028016       3028016       3028016
 MEMORY| SReclaimable          1719148       1719148       1719148       1719148
 MEMORY| MemLikelyFree       258055596     258055596     258055596     258055596


 GENERATE|  Preliminary Number of Bonds generated:                             0
 GENERATE|  Achieved consistency in connectivity generation.

 *******************************************************************************
 *******************************************************************************
 **                                                                           **
 **     #####                         ##              ##                      **
 **    ##   ##            ##          ##              ##                      **
 **   ##     ##                       ##            ######                    **
 **   ##     ##  ##   ##  ##   #####  ##  ##   ####   ##    #####    #####    **
 **   ##     ##  ##   ##  ##  ##      ## ##   ##      ##   ##   ##  ##   ##   **
 **   ##  ## ##  ##   ##  ##  ##      ####     ###    ##   ######   ######    **
 **    ##  ###   ##   ##  ##  ##      ## ##      ##   ##   ##       ##        **
 **     #######   #####   ##   #####  ##  ##  ####    ##    #####   ##        **
 **           ##                                                    ##        **
 **                                                                           **
 **                                                ... make the atoms dance   **
 **                                                                           **
 **            Copyright (C) by CP2K developers group (2000-2021)             **
 **                      J. Chem. Phys. 152, 194103 (2020)                    **
 **                                                                           **
 *******************************************************************************


 TOTAL NUMBERS AND MAXIMUM NUMBERS

  Total number of            - Atomic kinds:                                   3
                             - Atoms:                                         10
                             - Shell sets:                                    20
                             - Shells:                                       248
                             - Primitive Cartesian functions:                120
                             - Cartesian basis functions:                   1272
                             - Spherical basis functions:                    968

  Maximum angular momentum of- Orbital basis functions:                        4
                             - Local part of the GTH pseudopotential:          2
                             - Non-local part of the GTH pseudopotential:      0


 SCF PARAMETERS         Density guess:                                    ATOMIC
                        --------------------------------------------------------
                        max_scf:                                              10
                        max_scf_history:                                       0
                        max_diis:                                              4
                        --------------------------------------------------------
                        eps_scf:                                        1.00E-07
                        eps_scf_history:                                0.00E+00
                        eps_diis:                                       1.00E-01
                        eps_eigval:                                     1.00E-05
                        --------------------------------------------------------
                        level_shift [a.u.]:                                 0.00
                        --------------------------------------------------------
                        Outer loop SCF in use 
                        No variables optimised in outer loop
                        eps_scf                                         1.00E-07
                        max_scf                                               10
                        No outer loop optimization
                        step_size                                       5.00E-01

 Number of electrons:                                                         30
 Number of occupied orbitals:                                                 15
 Number of molecular orbitals:                                                15

 Number of orbital functions:                                                968
 Number of independent orbital functions:                                    968

 Extrapolation method: initial_guess


 SCF WAVEFUNCTION OPTIMIZATION

  ----------------------------------- OT ---------------------------------------
  Minimizer      : DIIS                : direct inversion
                                         in the iterative subspace
                                         using   7 DIIS vectors
                                         safer DIIS on
  Preconditioner : FULL_ALL            : diagonalization, state selective
  Precond_solver : DEFAULT
  stepsize       :    0.15000000                  energy_gap     :    0.08000000
  eps_taylor     :   0.10000E-15                  max_taylor     :             4
  ----------------------------------- OT ---------------------------------------

  Step     Update method      Time    Convergence         Total energy    Change
  ------------------------------------------------------------------------------
     1 OT DIIS     0.15E+00    1.2     0.05258733       -42.0402102170 -4.20E+01
     2 OT DIIS     0.15E+00    0.7     0.06185426       -43.0438477144 -1.00E+00
     3 OT DIIS     0.15E+00    0.7     0.02700151       -44.4562155488 -1.41E+00
     4 OT DIIS     0.15E+00    0.7     0.01154768       -44.8621035156 -4.06E-01
     5 OT DIIS     0.15E+00    0.7     0.00622975       -44.9590479117 -9.69E-02
     6 OT DIIS     0.15E+00    0.8     0.00455507       -44.9876425884 -2.86E-02
     7 OT DIIS     0.15E+00    0.7     0.00248432       -44.9993810571 -1.17E-02
     8 OT DIIS     0.15E+00    0.8     0.00129273       -45.0031242640 -3.74E-03
     9 OT DIIS     0.15E+00    0.7     0.00071460       -45.0047298594 -1.61E-03
    10 OT DIIS     0.15E+00    0.7     0.00043999       -45.0052452363 -5.15E-04

  Leaving inner SCF loop after reaching    10 steps.


  Electronic density on regular grids:        -29.9999999998        0.0000000002
  Core density on regular grids:               30.0000000000       -0.0000000000
  Total charge density on r-space grids:        0.0000000002
  Total charge density g-space grids:           0.0000000002

  Overlap energy of the core charge distribution:               0.00000192816023
  Self energy of the core charge distribution:               -108.64710232129669
  Core Hamiltonian energy:                                     33.15469508476987
  Hartree energy:                                              43.88279454507530
  Exchange-correlation energy:                                -13.39563447300997

  Total energy:                                               -45.00524523630126

  outer SCF iter =    1 RMS gradient =   0.44E-03 energy =        -45.0052452363

  ----------------------------------- OT ---------------------------------------
  Minimizer      : DIIS                : direct inversion
                                         in the iterative subspace
                                         using   7 DIIS vectors
                                         safer DIIS on
  Preconditioner : FULL_ALL            : diagonalization, state selective
  Precond_solver : DEFAULT
  stepsize       :    0.15000000                  energy_gap     :    0.08000000
  eps_taylor     :   0.10000E-15                  max_taylor     :             4
  ----------------------------------- OT ---------------------------------------

  Step     Update method      Time    Convergence         Total energy    Change
  ------------------------------------------------------------------------------
     1 OT DIIS     0.15E+00    2.1     0.00034348       -45.0054887493 -2.44E-04
     2 OT DIIS     0.15E+00    0.7     0.00024868       -45.0055931502 -1.04E-04
     3 OT DIIS     0.15E+00    0.7     0.00010353       -45.0056273759 -3.42E-05
     4 OT DIIS     0.15E+00    0.7     0.00003632       -45.0056367979 -9.42E-06
     5 OT DIIS     0.15E+00    0.7     0.00000687       -45.0056376679 -8.70E-07
     6 OT DIIS     0.15E+00    0.7     0.00000236       -45.0056376992 -3.13E-08
     7 OT DIIS     0.15E+00    0.7     0.00000064       -45.0056377031 -3.88E-09
     8 OT DIIS     0.15E+00    0.7     0.00000021       -45.0056377034 -3.15E-10
     9 OT DIIS     0.15E+00    0.7     0.00000011       -45.0056377034 -3.40E-11
    10 OT DIIS     0.15E+00    0.7     0.00000005       -45.0056377034 -5.83E-12

  *** SCF run converged in    10 steps ***


  Electronic density on regular grids:        -29.9999999998        0.0000000002
  Core density on regular grids:               30.0000000000       -0.0000000000
  Total charge density on r-space grids:        0.0000000002
  Total charge density g-space grids:           0.0000000002

  Overlap energy of the core charge distribution:               0.00000192816023
  Self energy of the core charge distribution:               -108.64710232129669
  Core Hamiltonian energy:                                     33.14667411238351
  Hartree energy:                                              43.88874173841495
  Exchange-correlation energy:                                -13.39395316109709

  Total energy:                                               -45.00563770343508

  outer SCF iter =    2 RMS gradient =   0.49E-07 energy =        -45.0056377034
  outer SCF loop converged in   2 iterations or   20 steps


 ENERGY| Total FORCE_EVAL ( QS ) energy [a.u.]:              -45.005637703435085

 -------------------------------------------------------------------------------
 -                                                                             -
 -                                DBCSR STATISTICS                             -
 -                                                                             -
 -------------------------------------------------------------------------------
 COUNTER                                    TOTAL       BLAS       SMM       ACC
 flops    15 x    15 x    15               945000       0.0%    100.0%      0.0%
 flops   136 x    15 x    15              6242400       0.0%    100.0%      0.0%
 flops    15 x    15 x    68             10036800       0.0%    100.0%      0.0%
 flops   232 x    15 x    15             10648800       0.0%    100.0%      0.0%
 flops    15 x    15 x   116             25682400       0.0%    100.0%      0.0%
 flops   300 x    15 x    15             27540000       0.0%    100.0%      0.0%
 flops    68 x    68 x    15             29131200       0.0%    100.0%      0.0%
 flops   136 x    15 x    68             48829440       0.0%    100.0%      0.0%
 flops    68 x   116 x    15             59633280       0.0%    100.0%      0.0%
 flops   116 x    68 x    15             59633280       0.0%    100.0%      0.0%
 flops   232 x    15 x    68             83297280       0.0%    100.0%      0.0%
 flops    68 x    15 x    68            119854080       0.0%    100.0%      0.0%
 flops   136 x    15 x   116            124945920       0.0%    100.0%      0.0%
 flops   116 x   116 x    15            178022880       0.0%    100.0%      0.0%
 flops   232 x    15 x   116            213143040       0.0%    100.0%      0.0%
 flops   300 x    15 x    68            215424000       0.0%    100.0%      0.0%
 flops    68 x    15 x   116            306685440       0.0%    100.0%      0.0%
 flops   116 x    15 x    68            306685440       0.0%    100.0%      0.0%
 flops   300 x    15 x   116            551232000       0.0%    100.0%      0.0%
 flops   116 x    15 x   116            784753920       0.0%    100.0%      0.0%
 flops inhomo. stacks                           0       0.0%      0.0%      0.0%
 flops total                         3.162367E+09       0.0%    100.0%      0.0%
 flops max/rank                    934.611480E+06       0.0%    100.0%      0.0%
 matmuls inhomo. stacks                         0       0.0%      0.0%      0.0%
 matmuls total                               9683       0.0%    100.0%      0.0%
 number of processed stacks                  7334       0.0%    100.0%      0.0%
 average stack size                                     0.0       1.3       0.0
 marketing flops                     3.427146E+09
 -------------------------------------------------------------------------------
 # multiplications                            445
 max memory usage/rank             346.341376E+06
 # max total images/rank                        3
 # max 3D layers                                1
 # MPI messages exchanged                  202920
 MPI messages size (bytes):
  total size                         3.864807E+09
  min size                           0.000000E+00
  max size                         278.400000E+03
  average size                      19.045967E+03
 MPI breakdown and total messages size (bytes):
             size <=      128              169556                        0
       128 < size <=     8192                5289                 34088880
      8192 < size <=    32768                7245                113306400
     32768 < size <=   131072                8090                807707840
    131072 < size <=  4194304               12740               2909706240
   4194304 < size <= 16777216                   0                        0
  16777216 < size                               0                        0
 -------------------------------------------------------------------------------

 *** WARNING in dbcsr_mm.F:294 :: Using a non-square number of MPI ranks ***
 *** might lead to poor performance. Used ranks: 24 Suggested: 25 49     ***

 -------------------------------------------------------------------------------
 -                                                                             -
 -                      DBCSR MESSAGE PASSING PERFORMANCE                      -
 -                                                                             -
 -------------------------------------------------------------------------------
 ROUTINE             CALLS      AVE VOLUME [Bytes]
 MP_Bcast               21                     12.
 MP_Allreduce         2393                      8.
 MP_Alltoall          1742                  11497.
 MP_ISend            19056                  13337.
 MP_IRecv            18866                  10803.
 -------------------------------------------------------------------------------

 -------------------------------------------------------------------------------
 -                                                                             -
 -                                GRID STATISTICS                              -
 -                                                                             -
 -------------------------------------------------------------------------------
 LP    KERNEL             BACKEND                              COUNT     PERCENT
 4     collocate ortho    REF                                  62916      10.62%
 4     integrate ortho    REF                                  59920      10.12%
 5     collocate ortho    REF                                  53466       9.03%
 1     collocate ortho    REF                                  53004       8.95%
 5     integrate ortho    REF                                  50920       8.60%
 1     integrate ortho    REF                                  50480       8.52%
 2     collocate ortho    REF                                  47082       7.95%
 2     integrate ortho    REF                                  44840       7.57%
 3     collocate ortho    REF                                  25200       4.26%
 3     integrate ortho    REF                                  24000       4.05%
 0     collocate ortho    REF                                  22470       3.79%
 0     integrate ortho    REF                                  21400       3.61%
 7     collocate ortho    REF                                  17304       2.92%
 7     integrate ortho    REF                                  16480       2.78%
 8     collocate ortho    REF                                  13839       2.34%
 8     integrate ortho    REF                                  13180       2.23%
 6     collocate ortho    REF                                   7938       1.34%
 6     integrate ortho    REF                                   7560       1.28%
 0     collocate general  REF                                    240       0.04%
 -------------------------------------------------------------------------------

 MEMORY| Estimated peak process memory [MiB]                                 331

 -------------------------------------------------------------------------------
 -                                                                             -
 -                         MESSAGE PASSING PERFORMANCE                         -
 -                                                                             -
 -------------------------------------------------------------------------------

 ROUTINE             CALLS      AVE VOLUME [Bytes]
 MP_Group                4
 MP_Bcast              418                 823318.
 MP_Allreduce         1306                    501.
 MP_Sync                20
 MP_Alltoall           399                9783329.
 MP_ISendRecv         2829                 191232.
 MP_Wait              4131
 MP_comm_split          16
 MP_ISend             1176                 429884.
 MP_IRecv             1176                 430104.
 MP_Recv                 4                  23232.
 -------------------------------------------------------------------------------


 -------------------------------------------------------------------------------
 -                                                                             -
 -                           R E F E R E N C E S                               -
 -                                                                             -
 -------------------------------------------------------------------------------
 
 CP2K version 9.0 (Development Version), the CP2K developers group (2020).
 CP2K is freely available from https://www.cp2k.org/ .

 Kuehne,Thomas D.; Iannuzzi,Marcella; Del Ben,Mauro;
 Rybkin,Vladimir V.; Seewald,Patrick; Stein,Frederick; Laino,Teodoro;
 Khaliullin,Rustam Z.; Schuett,Ole; Schiffmann,Florian; Golze,Dorothea;
 Wilhelm,Jan; Chulkov,Sergey; Bani-Hashemian,Mohammad Hossein;
 Weber,Valery; Borstnik,Urban; Taillefumier,Mathieu;
 Jakobovits,Alice Shoshana; Lazzaro,Alfio; Pabst,Hans; Mueller,Tiziano;
 Schade,Robert; Guidon,Manuel; Andermatt,Samuel; Holmberg,Nico;
 Schenter,Gregory K.; Hehn,Anna; Bussy,Augustin; Belleflamme,Fabian;
 Tabacchi,Gloria; Gloess,Andreas; Lass,Michael; Bethune,Iain;
 Mundy,Christopher J.; Plessl,Christian; Watkins,Matt;
 VandeVondele,Joost; Krack,Matthias; Hutter,Juerg. 
 The Journal of Chemical Physics, 152 (19), (2020). 
 CP2K: An electronic structure and molecular dynamics software package -
 Quickstep: Efficient and accurate electronic structure calculations.
 https://doi.org/10.1063/5.0007045

 Schuett, Ole; Messmer, Peter; Hutter, Juerg; VandeVondele, Joost. 
 Electronic Structure Calculations on Graphics Processing Units, John
 Wiley & Sons, Ltd, 173-190 (2016). 
 GPU-Accelerated Sparse Matrix-Matrix Multiplication for
 Linear Scaling Density Functional Theory.
 https://doi.org/10.1002/9781118670712.ch8

 Heinecke, A; Henry, G; Hutchinson, M; Pabst, H. 
 Proceedings of Intl. Supercomputing Conference, 981-991 (2016). 
 LIBXSMM: Accelerating Small Matrix Multiplications
 by Runtime Code Generation.
 https://doi.org/10.1109/SC.2016.83

 Borstnik, U; VandeVondele, J; Weber, V; Hutter, J. 
 PARALLEL COMPUTING, 40 (5-6), 47-58 (2014). 
 Sparse matrix multiplication: The distributed block-compressed sparse
 row library.
 https://doi.org/10.1016/j.parco.2014.03.012

 Hutter, J; Iannuzzi, M; Schiffmann, F; VandeVondele, J. 
 WIREs Comput Mol Sci., 4 (1), 15-25 (2014). 
 CP2K: atomistic simulations of condensed matter systems.
 https://doi.org/10.1002/wcms.1159

 Krack, M. 
 THEORETICAL CHEMISTRY ACCOUNTS, 114 (1-3), 145-152 (2005). 
 Pseudopotentials for H to Kr optimized for gradient-corrected
 exchange-correlation functionals.
 https://doi.org/10.1007/s00214-005-0655-y

 VandeVondele, J; Krack, M; Mohamed, F; Parrinello, M; Chassaing, T;
 Hutter, J. COMPUTER PHYSICS COMMUNICATIONS, 167 (2), 103-128 (2005). 
 QUICKSTEP: Fast and accurate density functional calculations using a
 mixed Gaussian and plane waves approach.
 https://doi.org/10.1016/j.cpc.2004.12.014

 Frigo, M; Johnson, SG. 
 PROCEEDINGS OF THE IEEE, 93 (2), 216-231 (2005). 
 The design and implementation of FFTW3.
 https://doi.org/10.1109/JPROC.2004.840301

 VandeVondele, J; Hutter, J. 
 JOURNAL OF CHEMICAL PHYSICS, 118 (10), 4365-4369 (2003). 
 An efficient orbital transformation method for electronic structure
 calculations.
 https://doi.org/10.1063/1.1543154

 Hartwigsen, C; Goedecker, S; Hutter, J. 
 PHYSICAL REVIEW B, 58 (7), 3641-3662 (1998). 
 Relativistic separable dual-space Gaussian pseudopotentials from H to Rn.
 https://doi.org/10.1103/PhysRevB.58.3641

 Lippert, G; Hutter, J; Parrinello, M. 
 MOLECULAR PHYSICS, 92 (3), 477-487 (1997). 
 A hybrid Gaussian and plane wave density functional scheme.
 https://doi.org/10.1080/002689797170220

 Perdew, JP; Burke, K; Ernzerhof, M. 
 PHYSICAL REVIEW LETTERS, 77 (18), 3865-3868 (1996). 
 Generalized gradient approximation made simple.
 https://doi.org/10.1103/PhysRevLett.77.3865

 Goedecker, S; Teter, M; Hutter, J. 
 PHYSICAL REVIEW B, 54 (3), 1703-1710 (1996). 
 Separable dual-space Gaussian pseudopotentials.
 https://doi.org/10.1103/PhysRevB.54.1703


 -------------------------------------------------------------------------------
 -                                                                             -
 -                                T I M I N G                                  -
 -                                                                             -
 -------------------------------------------------------------------------------
 SUBROUTINE                       CALLS  ASD         SELF TIME        TOTAL TIME
                                MAXIMUM       AVERAGE  MAXIMUM  AVERAGE  MAXIMUM
 CP2K                                 1  1.0    0.005    0.026   16.590   16.591
 qs_energies                          1  2.0    0.000    0.000   16.245   16.245
 scf_env_do_scf                       1  3.0    0.000    0.000   15.795   15.795
 scf_env_do_scf_inner_loop           20  4.0    0.001    0.002   13.471   13.471
 qs_ks_update_qs_env                 22  5.0    0.000    0.000   10.598   10.614
 rebuild_ks_matrix                   20  6.0    0.000    0.000   10.592   10.608
 qs_ks_build_kohn_sham_matrix        20  7.0    0.003    0.004   10.592   10.608
 pw_transfer                        386  9.6    0.034    0.043    6.474    7.352
 fft_wrap_pw1pw2                    346 10.7    0.004    0.005    6.400    7.271
 fft_wrap_pw1pw2_300                223 11.8    0.272    0.298    6.068    6.969
 qs_vxc_create                       20  8.0    0.001    0.001    6.645    6.677
 xc_vxc_pw_create                    20  9.0    0.051    0.058    6.644    6.676
 fft3d_ps                           346 12.7    2.334    2.583    5.172    6.143
 xc_rho_set_and_dset_create          20 10.0    0.021    0.022    3.959    4.379
 qs_rho_update_rho                   21  5.0    0.000    0.000    3.411    3.411
 calculate_rho_elec                  21  6.0    0.022    0.024    3.411    3.411
 mp_alltoall_z22v                   346 14.7    2.324    3.405    2.324    3.405
 sum_up_and_integrate                20  8.0    0.010    0.012    3.166    3.169
 integrate_v_rspace                  20  9.0    0.001    0.001    3.156    3.158
 xc_functional_eval                  20 11.0    0.000    0.000    2.238    2.656
 pbe_lda_eval                        20 12.0    2.238    2.656    2.238    2.656
 yz_to_x                            165 13.1    0.212    0.288    1.521    2.440
 init_scf_loop                        2  4.0    0.000    0.000    2.323    2.323
 density_rs2pw                       21  7.0    0.001    0.001    2.036    2.228
 rs_pw_transfer                     165  9.4    0.003    0.004    1.756    1.923
 grid_integrate_task_list            20 10.0    1.285    1.599    1.285    1.599
 potential_pw2rs                     20 10.0    0.002    0.002    1.522    1.525
 x_to_yz                            181 14.2    0.293    0.349    1.307    1.508
 grid_collocate_task_list            21  7.0    1.241    1.479    1.241    1.479
 prepare_preconditioner               2  5.0    0.000    0.000    1.265    1.266
 make_preconditioner                  2  6.0    0.000    0.000    1.244    1.244
 make_full_all                        2  7.0    0.000    0.000    1.225    1.226
 cp_fm_syevd                         16 10.0    0.000    0.000    0.916    0.916
 cp_fm_redistribute_end              16 11.0    0.163    0.906    0.164    0.907
 cp_fm_syevd_base                    16 10.3    0.743    0.899    0.743    0.899
 rs_pw_transfer_RS2PW_300            22  8.9    0.194    0.237    0.613    0.781
 mp_waitall_1                     27875 14.0    0.694    0.776    0.694    0.776
 dbcsr_multiply_generic             445 10.0    0.013    0.015    0.721    0.744
 mp_waitany                        1176 11.4    0.491    0.735    0.491    0.735
 qs_scf_new_mos                      20  5.0    0.000    0.000    0.677    0.691
 qs_scf_loop_do_ot                   20  6.0    0.000    0.000    0.677    0.691
 ot_scf_mini                         20  7.0    0.000    0.000    0.650    0.665
 mp_alltoall_d11v                   437 11.4    0.400    0.640    0.400    0.640
 rs_gather_matrices                  20 10.0    0.002    0.005    0.348    0.590
 pw_scatter_p                       181 13.2    0.503    0.545    0.503    0.545
 pw_gather_p                        165 12.1    0.437    0.510    0.437    0.510
 ot_mini                             20  8.0    0.000    0.000    0.439    0.454
 multiply_cannon                    445 11.0    0.029    0.030    0.368    0.439
 rs_pw_transfer_PW2RS_300            20 12.0    0.214    0.231    0.410    0.429
 rs_pw_transfer_PW2RS_100            20 12.0    0.061    0.065    0.352    0.382
 multiply_cannon_loop               445 12.0    0.021    0.022    0.262    0.351
 -------------------------------------------------------------------------------

 The number of warnings for this run is : 1
 
 -------------------------------------------------------------------------------
  **** **** ******  **  PROGRAM ENDED AT                 2021-05-18 14:38:43.755
 ***** ** ***  *** **   PROGRAM RAN ON                                   tcopt10
 **    ****   ******    PROGRAM RAN BY                                    hutter
 ***** **    ** ** **   PROGRAM PROCESS ID                                 21381
  **** **  *******  **  PROGRAM STOPPED IN            /data/hutter/run/delta/new
