 DBCSR| CPU Multiplication driver                                           XSMM
 DBCSR| Multrec recursion limit                                              512
 DBCSR| Multiplication stack size                                           1000
 DBCSR| Maximum elements for images                                    UNLIMITED
 DBCSR| Multiplicative factor virtual images                                   1
 DBCSR| Use multiplication densification                                       T
 DBCSR| Multiplication size stacks                                             3
 DBCSR| Use memory pool for CPU allocation                                     F
 DBCSR| Number of 3D layers                                               SINGLE
 DBCSR| Use MPI memory allocation                                              F
 DBCSR| Use RMA algorithm                                                      F
 DBCSR| Use Communication thread                                               T
 DBCSR| Communication thread load                                             87
 DBCSR| MPI: My node id                                                        0
 DBCSR| MPI: Number of nodes                                                  24
 DBCSR| OMP: Current number of threads                                         1
 DBCSR| OMP: Max number of threads                                             1
 DBCSR| Split modifier for TAS multiplication algorithm                  1.0E+00


  **** **** ******  **  PROGRAM STARTED AT               2021-05-18 14:40:22.144
 ***** ** ***  *** **   PROGRAM STARTED ON                               tcopt10
 **    ****   ******    PROGRAM STARTED BY                                hutter
 ***** **    ** ** **   PROGRAM PROCESS ID                                 22430
  **** **  *******  **  PROGRAM STARTED IN            /data/hutter/run/delta/new

 CP2K| version string:                    CP2K version 9.0 (Development Version)
 CP2K| source code revision number:                                  git:4b756b0
 CP2K| cp2kflags: omp libint fftw3 libxc elpa parallel mpi3 scalapack xsmm spgli
 CP2K|            b sirius libvori libbqb
 CP2K| is freely available from                            https://www.cp2k.org/
 CP2K| Program compiled at                         Wed May  5 15:51:41 CEST 2021
 CP2K| Program compiled on                                               tcopt10
 CP2K| Program compiled for                                                local
 CP2K| Data directory path                 /data/hutter/GITHUB/CURRENT/cp2k/data
 CP2K| Input file name                                             C5H5N-ref.inp

 GLOBAL| Force Environment number                                              1
 GLOBAL| Basis set file name                                      ../PBE_UCBASIS
 GLOBAL| Potential file name                                        ../POTENTIAL
 GLOBAL| MM Potential file name                                     MM_POTENTIAL
 GLOBAL| Coordinate file name                                      __STD_INPUT__
 GLOBAL| Method name                                                        CP2K
 GLOBAL| Project name                                                   refC5H5N
 GLOBAL| Preferred FFT library                                             FFTW3
 GLOBAL| Preferred diagonalization lib.                                       SL
 GLOBAL| Run type                                                         ENERGY
 GLOBAL| All-to-all communication in single precision                          F
 GLOBAL| FFTs using library dependent lengths                                  F
 GLOBAL| Grid backend                                                       AUTO
 GLOBAL| Global print level                                                  LOW
 GLOBAL| MPI I/O enabled                                                       T
 GLOBAL| Total number of message passing processes                            24
 GLOBAL| Number of threads for this process                                    1
 GLOBAL| This output is from process                                           0
 GLOBAL| CPU model name                          AMD EPYC 7401 24-Core Processor
 GLOBAL| CPUID                                                              1002

 MEMORY| system memory details [Kb]
 MEMORY|                        rank 0           min           max       average
 MEMORY| MemTotal            263969868     263969868     263969868     263969868
 MEMORY| MemFree             218562812     218562812     218562812     218562812
 MEMORY| Buffers                    36            36            36            36
 MEMORY| Cached               37782796      37782796      37782796      37782796
 MEMORY| Slab                  3025540       3025540       3025540       3025540
 MEMORY| SReclaimable          1717244       1717244       1717244       1717244
 MEMORY| MemLikelyFree       258062888     258062888     258062888     258062888


 GENERATE|  Preliminary Number of Bonds generated:                             0
 GENERATE|  Achieved consistency in connectivity generation.

 *******************************************************************************
 *******************************************************************************
 **                                                                           **
 **     #####                         ##              ##                      **
 **    ##   ##            ##          ##              ##                      **
 **   ##     ##                       ##            ######                    **
 **   ##     ##  ##   ##  ##   #####  ##  ##   ####   ##    #####    #####    **
 **   ##     ##  ##   ##  ##  ##      ## ##   ##      ##   ##   ##  ##   ##   **
 **   ##  ## ##  ##   ##  ##  ##      ####     ###    ##   ######   ######    **
 **    ##  ###   ##   ##  ##  ##      ## ##      ##   ##   ##       ##        **
 **     #######   #####   ##   #####  ##  ##  ####    ##    #####   ##        **
 **           ##                                                    ##        **
 **                                                                           **
 **                                                ... make the atoms dance   **
 **                                                                           **
 **            Copyright (C) by CP2K developers group (2000-2021)             **
 **                      J. Chem. Phys. 152, 194103 (2020)                    **
 **                                                                           **
 *******************************************************************************


 TOTAL NUMBERS AND MAXIMUM NUMBERS

  Total number of            - Atomic kinds:                                   3
                             - Atoms:                                         11
                             - Shell sets:                                    22
                             - Shells:                                       268
                             - Primitive Cartesian functions:                132
                             - Cartesian basis functions:                   1356
                             - Spherical basis functions:                   1036

  Maximum angular momentum of- Orbital basis functions:                        4
                             - Local part of the GTH pseudopotential:          2
                             - Non-local part of the GTH pseudopotential:      0


 SCF PARAMETERS         Density guess:                                    ATOMIC
                        --------------------------------------------------------
                        max_scf:                                              10
                        max_scf_history:                                       0
                        max_diis:                                              4
                        --------------------------------------------------------
                        eps_scf:                                        1.00E-07
                        eps_scf_history:                                0.00E+00
                        eps_diis:                                       1.00E-01
                        eps_eigval:                                     1.00E-05
                        --------------------------------------------------------
                        level_shift [a.u.]:                                 0.00
                        --------------------------------------------------------
                        Outer loop SCF in use 
                        No variables optimised in outer loop
                        eps_scf                                         1.00E-07
                        max_scf                                               10
                        No outer loop optimization
                        step_size                                       5.00E-01

 Number of electrons:                                                         30
 Number of occupied orbitals:                                                 15
 Number of molecular orbitals:                                                15

 Number of orbital functions:                                               1036
 Number of independent orbital functions:                                   1036

 Extrapolation method: initial_guess


 SCF WAVEFUNCTION OPTIMIZATION

  ----------------------------------- OT ---------------------------------------
  Minimizer      : DIIS                : direct inversion
                                         in the iterative subspace
                                         using   7 DIIS vectors
                                         safer DIIS on
  Preconditioner : FULL_ALL            : diagonalization, state selective
  Precond_solver : DEFAULT
  stepsize       :    0.15000000                  energy_gap     :    0.08000000
  eps_taylor     :   0.10000E-15                  max_taylor     :             4
  ----------------------------------- OT ---------------------------------------

  Step     Update method      Time    Convergence         Total energy    Change
  ------------------------------------------------------------------------------
     1 OT DIIS     0.15E+00    1.3     0.05097504       -37.7377551406 -3.77E+01
     2 OT DIIS     0.15E+00    0.8     0.07856100       -38.4762014423 -7.38E-01
     3 OT DIIS     0.15E+00    0.8     0.02426486       -40.4376268378 -1.96E+00
     4 OT DIIS     0.15E+00    0.8     0.01643882       -40.8653113330 -4.28E-01
     5 OT DIIS     0.15E+00    0.8     0.01004259       -41.0597225850 -1.94E-01
     6 OT DIIS     0.15E+00    0.8     0.00742548       -41.2004573897 -1.41E-01
     7 OT DIIS     0.15E+00    0.8     0.00561256       -41.2736822273 -7.32E-02
     8 OT DIIS     0.15E+00    0.8     0.00376321       -41.3086309667 -3.49E-02
     9 OT DIIS     0.15E+00    0.7     0.00254883       -41.3344775195 -2.58E-02
    10 OT DIIS     0.15E+00    0.7     0.00194403       -41.3429103287 -8.43E-03

  Leaving inner SCF loop after reaching    10 steps.


  Electronic density on regular grids:        -29.9999999896        0.0000000104
  Core density on regular grids:               30.0000000000       -0.0000000000
  Total charge density on r-space grids:        0.0000000103
  Total charge density g-space grids:           0.0000000103

  Overlap energy of the core charge distribution:               0.00000258658299
  Self energy of the core charge distribution:                -98.53761074686842
  Core Hamiltonian energy:                                     30.54328224495870
  Hartree energy:                                              39.62617931800382
  Exchange-correlation energy:                                -12.97476373135624

  Total energy:                                               -41.34291032867914

  outer SCF iter =    1 RMS gradient =   0.19E-02 energy =        -41.3429103287

  ----------------------------------- OT ---------------------------------------
  Minimizer      : DIIS                : direct inversion
                                         in the iterative subspace
                                         using   7 DIIS vectors
                                         safer DIIS on
  Preconditioner : FULL_ALL            : diagonalization, state selective
  Precond_solver : DEFAULT
  stepsize       :    0.15000000                  energy_gap     :    0.08000000
  eps_taylor     :   0.10000E-15                  max_taylor     :             4
  ----------------------------------- OT ---------------------------------------

  Step     Update method      Time    Convergence         Total energy    Change
  ------------------------------------------------------------------------------
     1 OT DIIS     0.15E+00    2.3     0.00200955       -41.3495378578 -6.63E-03
     2 OT DIIS     0.15E+00    0.8     0.00105119       -41.3550646968 -5.53E-03
     3 OT DIIS     0.15E+00    0.8     0.00084950       -41.3558198703 -7.55E-04
     4 OT DIIS     0.15E+00    0.8     0.00016648       -41.3563192650 -4.99E-04
     5 OT DIIS     0.15E+00    0.8     0.00005744       -41.3563385995 -1.93E-05
     6 OT DIIS     0.15E+00    0.8     0.00001200       -41.3563408658 -2.27E-06
     7 OT DIIS     0.15E+00    0.7     0.00000733       -41.3563409704 -1.05E-07
     8 OT DIIS     0.15E+00    0.8     0.00000183       -41.3563410076 -3.72E-08
     9 OT DIIS     0.15E+00    0.8     0.00000065       -41.3563410102 -2.54E-09
    10 OT DIIS     0.15E+00    0.8     0.00000015       -41.3563410104 -2.54E-10

  Leaving inner SCF loop after reaching    10 steps.


  Electronic density on regular grids:        -29.9999999899        0.0000000101
  Core density on regular grids:               30.0000000000       -0.0000000000
  Total charge density on r-space grids:        0.0000000100
  Total charge density g-space grids:           0.0000000100

  Overlap energy of the core charge distribution:               0.00000258658299
  Self energy of the core charge distribution:                -98.53761074686842
  Core Hamiltonian energy:                                     30.54843847608799
  Hartree energy:                                              39.61314246481913
  Exchange-correlation energy:                                -12.98031379106344

  Total energy:                                               -41.35634101044175

  outer SCF iter =    2 RMS gradient =   0.15E-06 energy =        -41.3563410104

  ----------------------------------- OT ---------------------------------------
  Minimizer      : DIIS                : direct inversion
                                         in the iterative subspace
                                         using   7 DIIS vectors
                                         safer DIIS on
  Preconditioner : FULL_ALL            : diagonalization, state selective
  Precond_solver : DEFAULT
  stepsize       :    0.15000000                  energy_gap     :    0.08000000
  eps_taylor     :   0.10000E-15                  max_taylor     :             4
  ----------------------------------- OT ---------------------------------------

  Step     Update method      Time    Convergence         Total energy    Change
  ------------------------------------------------------------------------------
     1 OT DIIS     0.15E+00    2.3     0.00000005       -41.3563410104  3.16E-11

  *** SCF run converged in     1 steps ***


  Electronic density on regular grids:        -29.9999999899        0.0000000101
  Core density on regular grids:               30.0000000000       -0.0000000000
  Total charge density on r-space grids:        0.0000000100
  Total charge density g-space grids:           0.0000000100

  Overlap energy of the core charge distribution:               0.00000258658299
  Self energy of the core charge distribution:                -98.53761074686842
  Core Hamiltonian energy:                                     30.54844379436793
  Hartree energy:                                              39.61313821144236
  Exchange-correlation energy:                                -12.98031485593500

  Total energy:                                               -41.35634101041014

  outer SCF iter =    3 RMS gradient =   0.46E-07 energy =        -41.3563410104
  outer SCF loop converged in   3 iterations or   21 steps


 ENERGY| Total FORCE_EVAL ( QS ) energy [a.u.]:              -41.356341010410141

 -------------------------------------------------------------------------------
 -                                                                             -
 -                                DBCSR STATISTICS                             -
 -                                                                             -
 -------------------------------------------------------------------------------
 COUNTER                                    TOTAL       BLAS       SMM       ACC
 flops    15 x    15 x    15              1235250       0.0%    100.0%      0.0%
 flops   204 x    15 x    15              9914400       0.0%    100.0%      0.0%
 flops   232 x    15 x    15             11275200       0.0%    100.0%      0.0%
 flops    15 x    15 x    68             13311000       0.0%    100.0%      0.0%
 flops    15 x    15 x   116             27248400       0.0%    100.0%      0.0%
 flops   300 x    15 x    15             29160000       0.0%    100.0%      0.0%
 flops    68 x    68 x    15             45777600       0.0%    100.0%      0.0%
 flops    68 x   116 x    15             78091200       0.0%    100.0%      0.0%
 flops   116 x    68 x    15             78091200       0.0%    100.0%      0.0%
 flops   204 x    15 x    68             99878400       0.0%    100.0%      0.0%
 flops   232 x    15 x    68            113587200       0.0%    100.0%      0.0%
 flops   116 x   116 x    15            186500160       0.0%    100.0%      0.0%
 flops   204 x    15 x   116            204456960       0.0%    100.0%      0.0%
 flops    68 x    15 x    68            215016000       0.0%    100.0%      0.0%
 flops   232 x    15 x   116            232519680       0.0%    100.0%      0.0%
 flops   300 x    15 x    68            293760000       0.0%    100.0%      0.0%
 flops    68 x    15 x   116            440150400       0.0%    100.0%      0.0%
 flops   116 x    15 x    68            440150400       0.0%    100.0%      0.0%
 flops   300 x    15 x   116            601344000       0.0%    100.0%      0.0%
 flops   116 x    15 x   116            901013760       0.0%    100.0%      0.0%
 flops inhomo. stacks                           0       0.0%      0.0%      0.0%
 flops total                         4.022481E+09       0.0%    100.0%      0.0%
 flops max/rank                      1.113864E+09       0.0%    100.0%      0.0%
 matmuls inhomo. stacks                         0       0.0%      0.0%      0.0%
 matmuls total                              12638       0.0%    100.0%      0.0%
 number of processed stacks                  8788       0.0%    100.0%      0.0%
 average stack size                                     0.0       1.4       0.0
 marketing flops                     4.343790E+09
 -------------------------------------------------------------------------------
 # multiplications                            513
 max memory usage/rank             352.452608E+06
 # max total images/rank                        3
 # max 3D layers                                1
 # MPI messages exchanged                  233928
 MPI messages size (bytes):
  total size                         4.942282E+09
  min size                           0.000000E+00
  max size                         278.400000E+03
  average size                      21.127365E+03
 MPI breakdown and total messages size (bytes):
             size <=      128              193658                        0
       128 < size <=     8192                6918                 45079200
      8192 < size <=    32768                7852                127904640
     32768 < size <=   131072                6800                699056000
    131072 < size <=  4194304               18700               4070246400
   4194304 < size <= 16777216                   0                        0
  16777216 < size                               0                        0
 -------------------------------------------------------------------------------

 *** WARNING in dbcsr_mm.F:294 :: Using a non-square number of MPI ranks ***
 *** might lead to poor performance. Used ranks: 24 Suggested: 25 49     ***

 -------------------------------------------------------------------------------
 -                                                                             -
 -                      DBCSR MESSAGE PASSING PERFORMANCE                      -
 -                                                                             -
 -------------------------------------------------------------------------------
 ROUTINE             CALLS      AVE VOLUME [Bytes]
 MP_Bcast               21                     12.
 MP_Allreduce         2723                      8.
 MP_Alltoall          2188                  13541.
 MP_ISend            21946                  12990.
 MP_IRecv            21728                  11476.
 -------------------------------------------------------------------------------

 -------------------------------------------------------------------------------
 -                                                                             -
 -                                GRID STATISTICS                              -
 -                                                                             -
 -------------------------------------------------------------------------------
 LP    KERNEL             BACKEND                              COUNT     PERCENT
 4     collocate ortho    REF                                  84744      10.93%
 4     integrate ortho    REF                                  80892      10.43%
 1     collocate ortho    REF                                  71742       9.25%
 1     integrate ortho    REF                                  68481       8.83%
 5     collocate ortho    REF                                  60060       7.74%
 5     integrate ortho    REF                                  57330       7.39%
 2     collocate ortho    REF                                  52800       6.81%
 2     integrate ortho    REF                                  50400       6.50%
 3     collocate ortho    REF                                  40260       5.19%
 3     integrate ortho    REF                                  38430       4.95%
 0     collocate ortho    REF                                  35244       4.54%
 0     integrate ortho    REF                                  33642       4.34%
 7     collocate ortho    REF                                  23826       3.07%
 7     integrate ortho    REF                                  22743       2.93%
 8     collocate ortho    REF                                  15510       2.00%
 8     integrate ortho    REF                                  14805       1.91%
 6     collocate ortho    REF                                  12496       1.61%
 6     integrate ortho    REF                                  11928       1.54%
 0     collocate general  REF                                    264       0.03%
 -------------------------------------------------------------------------------

 MEMORY| Estimated peak process memory [MiB]                                 337

 -------------------------------------------------------------------------------
 -                                                                             -
 -                         MESSAGE PASSING PERFORMANCE                         -
 -                                                                             -
 -------------------------------------------------------------------------------

 ROUTINE             CALLS      AVE VOLUME [Bytes]
 MP_Group                4
 MP_Bcast              450                 764834.
 MP_Allreduce         1423                    462.
 MP_Sync                31
 MP_Alltoall           418                9799990.
 MP_ISendRecv         2967                 191232.
 MP_Wait              4331
 MP_comm_split          27
 MP_ISend             1232                 429889.
 MP_IRecv             1232                 430099.
 MP_Recv                 8                  24864.
 -------------------------------------------------------------------------------


 -------------------------------------------------------------------------------
 -                                                                             -
 -                           R E F E R E N C E S                               -
 -                                                                             -
 -------------------------------------------------------------------------------
 
 CP2K version 9.0 (Development Version), the CP2K developers group (2020).
 CP2K is freely available from https://www.cp2k.org/ .

 Kuehne,Thomas D.; Iannuzzi,Marcella; Del Ben,Mauro;
 Rybkin,Vladimir V.; Seewald,Patrick; Stein,Frederick; Laino,Teodoro;
 Khaliullin,Rustam Z.; Schuett,Ole; Schiffmann,Florian; Golze,Dorothea;
 Wilhelm,Jan; Chulkov,Sergey; Bani-Hashemian,Mohammad Hossein;
 Weber,Valery; Borstnik,Urban; Taillefumier,Mathieu;
 Jakobovits,Alice Shoshana; Lazzaro,Alfio; Pabst,Hans; Mueller,Tiziano;
 Schade,Robert; Guidon,Manuel; Andermatt,Samuel; Holmberg,Nico;
 Schenter,Gregory K.; Hehn,Anna; Bussy,Augustin; Belleflamme,Fabian;
 Tabacchi,Gloria; Gloess,Andreas; Lass,Michael; Bethune,Iain;
 Mundy,Christopher J.; Plessl,Christian; Watkins,Matt;
 VandeVondele,Joost; Krack,Matthias; Hutter,Juerg. 
 The Journal of Chemical Physics, 152 (19), (2020). 
 CP2K: An electronic structure and molecular dynamics software package -
 Quickstep: Efficient and accurate electronic structure calculations.
 https://doi.org/10.1063/5.0007045

 Schuett, Ole; Messmer, Peter; Hutter, Juerg; VandeVondele, Joost. 
 Electronic Structure Calculations on Graphics Processing Units, John
 Wiley & Sons, Ltd, 173-190 (2016). 
 GPU-Accelerated Sparse Matrix-Matrix Multiplication for
 Linear Scaling Density Functional Theory.
 https://doi.org/10.1002/9781118670712.ch8

 Heinecke, A; Henry, G; Hutchinson, M; Pabst, H. 
 Proceedings of Intl. Supercomputing Conference, 981-991 (2016). 
 LIBXSMM: Accelerating Small Matrix Multiplications
 by Runtime Code Generation.
 https://doi.org/10.1109/SC.2016.83

 Borstnik, U; VandeVondele, J; Weber, V; Hutter, J. 
 PARALLEL COMPUTING, 40 (5-6), 47-58 (2014). 
 Sparse matrix multiplication: The distributed block-compressed sparse
 row library.
 https://doi.org/10.1016/j.parco.2014.03.012

 Hutter, J; Iannuzzi, M; Schiffmann, F; VandeVondele, J. 
 WIREs Comput Mol Sci., 4 (1), 15-25 (2014). 
 CP2K: atomistic simulations of condensed matter systems.
 https://doi.org/10.1002/wcms.1159

 Krack, M. 
 THEORETICAL CHEMISTRY ACCOUNTS, 114 (1-3), 145-152 (2005). 
 Pseudopotentials for H to Kr optimized for gradient-corrected
 exchange-correlation functionals.
 https://doi.org/10.1007/s00214-005-0655-y

 VandeVondele, J; Krack, M; Mohamed, F; Parrinello, M; Chassaing, T;
 Hutter, J. COMPUTER PHYSICS COMMUNICATIONS, 167 (2), 103-128 (2005). 
 QUICKSTEP: Fast and accurate density functional calculations using a
 mixed Gaussian and plane waves approach.
 https://doi.org/10.1016/j.cpc.2004.12.014

 Frigo, M; Johnson, SG. 
 PROCEEDINGS OF THE IEEE, 93 (2), 216-231 (2005). 
 The design and implementation of FFTW3.
 https://doi.org/10.1109/JPROC.2004.840301

 VandeVondele, J; Hutter, J. 
 JOURNAL OF CHEMICAL PHYSICS, 118 (10), 4365-4369 (2003). 
 An efficient orbital transformation method for electronic structure
 calculations.
 https://doi.org/10.1063/1.1543154

 Hartwigsen, C; Goedecker, S; Hutter, J. 
 PHYSICAL REVIEW B, 58 (7), 3641-3662 (1998). 
 Relativistic separable dual-space Gaussian pseudopotentials from H to Rn.
 https://doi.org/10.1103/PhysRevB.58.3641

 Lippert, G; Hutter, J; Parrinello, M. 
 MOLECULAR PHYSICS, 92 (3), 477-487 (1997). 
 A hybrid Gaussian and plane wave density functional scheme.
 https://doi.org/10.1080/002689797170220

 Perdew, JP; Burke, K; Ernzerhof, M. 
 PHYSICAL REVIEW LETTERS, 77 (18), 3865-3868 (1996). 
 Generalized gradient approximation made simple.
 https://doi.org/10.1103/PhysRevLett.77.3865

 Goedecker, S; Teter, M; Hutter, J. 
 PHYSICAL REVIEW B, 54 (3), 1703-1710 (1996). 
 Separable dual-space Gaussian pseudopotentials.
 https://doi.org/10.1103/PhysRevB.54.1703


 -------------------------------------------------------------------------------
 -                                                                             -
 -                                T I M I N G                                  -
 -                                                                             -
 -------------------------------------------------------------------------------
 SUBROUTINE                       CALLS  ASD         SELF TIME        TOTAL TIME
                                MAXIMUM       AVERAGE  MAXIMUM  AVERAGE  MAXIMUM
 CP2K                                 1  1.0    0.005    0.024   19.202   19.203
 qs_energies                          1  2.0    0.000    0.000   18.861   18.861
 scf_env_do_scf                       1  3.0    0.000    0.000   18.383   18.384
 scf_env_do_scf_inner_loop           21  4.0    0.001    0.003   14.500   14.500
 qs_ks_update_qs_env                 24  5.0    0.000    0.000   11.678   11.696
 rebuild_ks_matrix                   21  6.0    0.000    0.000   11.671   11.689
 qs_ks_build_kohn_sham_matrix        21  7.0    0.004    0.004   11.671   11.689
 pw_transfer                        405  9.6    0.035    0.044    6.896    7.674
 fft_wrap_pw1pw2                    363 10.7    0.004    0.006    6.819    7.587
 fft_wrap_pw1pw2_300                234 11.8    0.285    0.312    6.488    7.287
 qs_vxc_create                       21  8.0    0.001    0.001    7.101    7.133
 xc_vxc_pw_create                    21  9.0    0.053    0.061    7.101    7.133
 fft3d_ps                           363 12.7    2.465    2.705    5.527    6.215
 xc_rho_set_and_dset_create          21 10.0    0.022    0.023    4.258    4.626
 init_scf_loop                        3  4.0    0.000    0.000    3.883    3.883
 qs_rho_update_rho                   22  5.0    0.000    0.000    3.867    3.867
 calculate_rho_elec                  22  6.0    0.023    0.025    3.867    3.867
 sum_up_and_integrate                21  8.0    0.011    0.013    3.743    3.746
 integrate_v_rspace                  21  9.0    0.001    0.001    3.732    3.735
 mp_alltoall_z22v                   363 14.7    2.527    3.315    2.527    3.315
 xc_functional_eval                  21 11.0    0.000    0.000    2.416    2.786
 pbe_lda_eval                        21 12.0    2.416    2.786    2.416    2.786
 yz_to_x                            173 13.1    0.220    0.295    1.661    2.480
 density_rs2pw                       22  7.0    0.001    0.001    2.214    2.439
 prepare_preconditioner               3  5.0    0.000    0.000    2.220    2.222
 make_preconditioner                  3  6.0    0.000    0.000    2.186    2.187
 make_full_all                        3  7.0    0.000    0.000    2.154    2.155
 rs_pw_transfer                     173  9.4    0.003    0.005    1.869    2.075
 grid_integrate_task_list            21 10.0    1.646    2.050    1.646    2.050
 grid_collocate_task_list            22  7.0    1.535    1.834    1.535    1.834
 potential_pw2rs                     21 10.0    0.002    0.002    1.645    1.647
 cp_fm_syevd                         27 10.1    0.000    0.000    1.619    1.620
 cp_fm_redistribute_end              27 11.1    0.287    1.603    0.289    1.605
 x_to_yz                            190 14.2    0.305    0.361    1.390    1.604
 cp_fm_syevd_base                    27 10.5    1.315    1.592    1.315    1.592
 dbcsr_multiply_generic             513 10.0    0.015    0.016    0.856    0.878
 mp_waitall_1                     31827 14.0    0.769    0.876    0.769    0.876
 rs_pw_transfer_RS2PW_300            23  8.9    0.190    0.238    0.666    0.870
 qs_scf_new_mos                      21  5.0    0.000    0.000    0.782    0.794
 qs_scf_loop_do_ot                   21  6.0    0.000    0.000    0.782    0.794
 mp_waitany                        1232 11.4    0.550    0.785    0.550    0.785
 ot_scf_mini                         21  7.0    0.000    0.000    0.754    0.766
 mp_alltoall_d11v                   589 11.5    0.500    0.713    0.500    0.713
 rs_gather_matrices                  21 10.0    0.003    0.005    0.441    0.660
 pw_scatter_p                       190 13.2    0.529    0.574    0.529    0.574
 pw_gather_p                        173 12.1    0.460    0.546    0.460    0.546
 multiply_cannon                    513 11.0    0.034    0.037    0.447    0.521
 ot_mini                             21  8.0    0.000    0.000    0.499    0.512
 rs_pw_transfer_PW2RS_300            21 12.0    0.227    0.247    0.435    0.462
 multiply_cannon_loop               513 12.0    0.025    0.026    0.332    0.422
 rs_pw_transfer_PW2RS_100            21 12.0    0.065    0.072    0.371    0.397
 -------------------------------------------------------------------------------

 The number of warnings for this run is : 1
 
 -------------------------------------------------------------------------------
  **** **** ******  **  PROGRAM ENDED AT                 2021-05-18 14:40:41.968
 ***** ** ***  *** **   PROGRAM RAN ON                                   tcopt10
 **    ****   ******    PROGRAM RAN BY                                    hutter
 ***** **    ** ** **   PROGRAM PROCESS ID                                 22430
  **** **  *******  **  PROGRAM STOPPED IN            /data/hutter/run/delta/new
