 DBCSR| CPU Multiplication driver                                           XSMM
 DBCSR| Multrec recursion limit                                              512
 DBCSR| Multiplication stack size                                           1000
 DBCSR| Maximum elements for images                                    UNLIMITED
 DBCSR| Multiplicative factor virtual images                                   1
 DBCSR| Use multiplication densification                                       T
 DBCSR| Multiplication size stacks                                             3
 DBCSR| Use memory pool for CPU allocation                                     F
 DBCSR| Number of 3D layers                                               SINGLE
 DBCSR| Use MPI memory allocation                                              F
 DBCSR| Use RMA algorithm                                                      F
 DBCSR| Use Communication thread                                               T
 DBCSR| Communication thread load                                             87
 DBCSR| MPI: My node id                                                        0
 DBCSR| MPI: Number of nodes                                                  24
 DBCSR| OMP: Current number of threads                                         1
 DBCSR| OMP: Max number of threads                                             1
 DBCSR| Split modifier for TAS multiplication algorithm                  1.0E+00


  **** **** ******  **  PROGRAM STARTED AT               2021-05-18 14:37:09.498
 ***** ** ***  *** **   PROGRAM STARTED ON                               tcopt10
 **    ****   ******    PROGRAM STARTED BY                                hutter
 ***** **    ** ** **   PROGRAM PROCESS ID                                 20681
  **** **  *******  **  PROGRAM STARTED IN            /data/hutter/run/delta/new

 CP2K| version string:                    CP2K version 9.0 (Development Version)
 CP2K| source code revision number:                                  git:4b756b0
 CP2K| cp2kflags: omp libint fftw3 libxc elpa parallel mpi3 scalapack xsmm spgli
 CP2K|            b sirius libvori libbqb
 CP2K| is freely available from                            https://www.cp2k.org/
 CP2K| Program compiled at                         Wed May  5 15:51:41 CEST 2021
 CP2K| Program compiled on                                               tcopt10
 CP2K| Program compiled for                                                local
 CP2K| Data directory path                 /data/hutter/GITHUB/CURRENT/cp2k/data
 CP2K| Input file name                                             CH2O2-ref.inp

 GLOBAL| Force Environment number                                              1
 GLOBAL| Basis set file name                                      ../PBE_UCBASIS
 GLOBAL| Potential file name                                        ../POTENTIAL
 GLOBAL| MM Potential file name                                     MM_POTENTIAL
 GLOBAL| Coordinate file name                                      __STD_INPUT__
 GLOBAL| Method name                                                        CP2K
 GLOBAL| Project name                                                   refCH2O2
 GLOBAL| Preferred FFT library                                             FFTW3
 GLOBAL| Preferred diagonalization lib.                                       SL
 GLOBAL| Run type                                                         ENERGY
 GLOBAL| All-to-all communication in single precision                          F
 GLOBAL| FFTs using library dependent lengths                                  F
 GLOBAL| Grid backend                                                       AUTO
 GLOBAL| Global print level                                                  LOW
 GLOBAL| MPI I/O enabled                                                       T
 GLOBAL| Total number of message passing processes                            24
 GLOBAL| Number of threads for this process                                    1
 GLOBAL| This output is from process                                           0
 GLOBAL| CPU model name                          AMD EPYC 7401 24-Core Processor
 GLOBAL| CPUID                                                              1002

 MEMORY| system memory details [Kb]
 MEMORY|                        rank 0           min           max       average
 MEMORY| MemTotal            263969868     263969868     263969868     263969868
 MEMORY| MemFree             218548928     218548928     218548928     218548928
 MEMORY| Buffers                    36            36            36            36
 MEMORY| Cached               37779768      37779768      37779768      37779768
 MEMORY| Slab                  3027064       3027064       3027064       3027064
 MEMORY| SReclaimable          1718508       1718508       1718508       1718508
 MEMORY| MemLikelyFree       258047240     258047240     258047240     258047240


 GENERATE|  Preliminary Number of Bonds generated:                             2
 GENERATE|  Achieved consistency in connectivity generation.
 GENERATE|  Number of Bonds generated:                                         2
 GENERATE|  Preliminary Number of Bends generated:                             0
 GENERATE|  Preliminary Number of Torsions generated:                          0

 *******************************************************************************
 *******************************************************************************
 **                                                                           **
 **     #####                         ##              ##                      **
 **    ##   ##            ##          ##              ##                      **
 **   ##     ##                       ##            ######                    **
 **   ##     ##  ##   ##  ##   #####  ##  ##   ####   ##    #####    #####    **
 **   ##     ##  ##   ##  ##  ##      ## ##   ##      ##   ##   ##  ##   ##   **
 **   ##  ## ##  ##   ##  ##  ##      ####     ###    ##   ######   ######    **
 **    ##  ###   ##   ##  ##  ##      ## ##      ##   ##   ##       ##        **
 **     #######   #####   ##   #####  ##  ##  ####    ##    #####   ##        **
 **           ##                                                    ##        **
 **                                                                           **
 **                                                ... make the atoms dance   **
 **                                                                           **
 **            Copyright (C) by CP2K developers group (2000-2021)             **
 **                      J. Chem. Phys. 152, 194103 (2020)                    **
 **                                                                           **
 *******************************************************************************


 TOTAL NUMBERS AND MAXIMUM NUMBERS

  Total number of            - Atomic kinds:                                   3
                             - Atoms:                                          5
                             - Shell sets:                                    10
                             - Shells:                                       124
                             - Primitive Cartesian functions:                 60
                             - Cartesian basis functions:                    636
                             - Spherical basis functions:                    484

  Maximum angular momentum of- Orbital basis functions:                        4
                             - Local part of the GTH pseudopotential:          2
                             - Non-local part of the GTH pseudopotential:      0


 SCF PARAMETERS         Density guess:                                    ATOMIC
                        --------------------------------------------------------
                        max_scf:                                              10
                        max_scf_history:                                       0
                        max_diis:                                              4
                        --------------------------------------------------------
                        eps_scf:                                        1.00E-07
                        eps_scf_history:                                0.00E+00
                        eps_diis:                                       1.00E-01
                        eps_eigval:                                     1.00E-05
                        --------------------------------------------------------
                        level_shift [a.u.]:                                 0.00
                        --------------------------------------------------------
                        Outer loop SCF in use 
                        No variables optimised in outer loop
                        eps_scf                                         1.00E-07
                        max_scf                                               10
                        No outer loop optimization
                        step_size                                       5.00E-01

 Number of electrons:                                                         18
 Number of occupied orbitals:                                                  9
 Number of molecular orbitals:                                                 9

 Number of orbital functions:                                                484
 Number of independent orbital functions:                                    484

 Extrapolation method: initial_guess


 SCF WAVEFUNCTION OPTIMIZATION

  ----------------------------------- OT ---------------------------------------
  Minimizer      : DIIS                : direct inversion
                                         in the iterative subspace
                                         using   7 DIIS vectors
                                         safer DIIS on
  Preconditioner : FULL_ALL            : diagonalization, state selective
  Precond_solver : DEFAULT
  stepsize       :    0.15000000                  energy_gap     :    0.08000000
  eps_taylor     :   0.10000E-15                  max_taylor     :             4
  ----------------------------------- OT ---------------------------------------

  Step     Update method      Time    Convergence         Total energy    Change
  ------------------------------------------------------------------------------
     1 OT DIIS     0.15E+00    0.7     0.09532092       -36.7949295284 -3.68E+01
     2 OT DIIS     0.15E+00    0.6     0.08207028       -36.3506063404  4.44E-01
     3 OT DIIS     0.15E+00    0.6     0.06636248       -36.9518080117 -6.01E-01
     4 OT DIIS     0.15E+00    0.6     0.07143416       -37.8969978403 -9.45E-01
     5 OT DIIS     0.15E+00    0.6     0.06035945       -38.2878381349 -3.91E-01
     6 OT DIIS     0.15E+00    0.6     0.04323384       -38.6158903974 -3.28E-01
     7 OT DIIS     0.15E+00    0.6     0.03207810       -38.7079589351 -9.21E-02
     8 OT DIIS     0.15E+00    0.6     0.03454288       -38.6819483807  2.60E-02
     9 OT DIIS     0.15E+00    0.6     0.02748725       -38.7318063298 -4.99E-02
    10 OT DIIS     0.15E+00    0.6     0.00763007       -38.7952757526 -6.35E-02

  Leaving inner SCF loop after reaching    10 steps.


  Electronic density on regular grids:        -17.9999999999        0.0000000001
  Core density on regular grids:               18.0000000000       -0.0000000000
  Total charge density on r-space grids:        0.0000000000
  Total charge density g-space grids:           0.0000000000

  Overlap energy of the core charge distribution:               0.00000036581766
  Self energy of the core charge distribution:                -99.22765800313530
  Core Hamiltonian energy:                                     28.61569189378252
  Hartree energy:                                              41.16910694265038
  Exchange-correlation energy:                                 -9.35241695171888

  Total energy:                                               -38.79527575260364

  outer SCF iter =    1 RMS gradient =   0.76E-02 energy =        -38.7952757526

  ----------------------------------- OT ---------------------------------------
  Minimizer      : DIIS                : direct inversion
                                         in the iterative subspace
                                         using   7 DIIS vectors
                                         safer DIIS on
  Preconditioner : FULL_ALL            : diagonalization, state selective
  Precond_solver : DEFAULT
  stepsize       :    0.15000000                  energy_gap     :    0.08000000
  eps_taylor     :   0.10000E-15                  max_taylor     :             4
  ----------------------------------- OT ---------------------------------------

  Step     Update method      Time    Convergence         Total energy    Change
  ------------------------------------------------------------------------------
     1 OT DIIS     0.15E+00    1.4     0.00251178       -38.8017653649 -6.49E-03
     2 OT DIIS     0.15E+00    0.6     0.00181992       -38.8035023066 -1.74E-03
     3 OT DIIS     0.15E+00    0.6     0.00103965       -38.8039773172 -4.75E-04
     4 OT DIIS     0.15E+00    0.6     0.00055365       -38.8041432354 -1.66E-04
     5 OT DIIS     0.15E+00    0.6     0.00004388       -38.8041946715 -5.14E-05
     6 OT DIIS     0.15E+00    0.6     0.00001037       -38.8041952618 -5.90E-07
     7 OT DIIS     0.15E+00    0.6     0.00000241       -38.8041952971 -3.53E-08
     8 OT DIIS     0.15E+00    0.6     0.00000045       -38.8041952997 -2.67E-09
     9 OT DIIS     0.15E+00    0.6     0.00000008       -38.8041952998 -1.05E-10

  *** SCF run converged in     9 steps ***


  Electronic density on regular grids:        -17.9999999999        0.0000000001
  Core density on regular grids:               18.0000000000       -0.0000000000
  Total charge density on r-space grids:        0.0000000001
  Total charge density g-space grids:           0.0000000001

  Overlap energy of the core charge distribution:               0.00000036581766
  Self energy of the core charge distribution:                -99.22765800313530
  Core Hamiltonian energy:                                     28.51611844496455
  Hartree energy:                                              41.24102114316177
  Exchange-correlation energy:                                 -9.33367725064797

  Total energy:                                               -38.80419529983928

  outer SCF iter =    2 RMS gradient =   0.83E-07 energy =        -38.8041952998
  outer SCF loop converged in   2 iterations or   19 steps


 ENERGY| Total FORCE_EVAL ( QS ) energy [a.u.]:              -38.804195299839279

 -------------------------------------------------------------------------------
 -                                                                             -
 -                                DBCSR STATISTICS                             -
 -                                                                             -
 -------------------------------------------------------------------------------
 COUNTER                                    TOTAL       BLAS       SMM       ACC
 flops     9 x     9 x     9               255150       0.0%    100.0%      0.0%
 flops     9 x     9 x    68              1718496       0.0%    100.0%      0.0%
 flops   116 x     9 x     9              1822824       0.0%    100.0%      0.0%
 flops   136 x     9 x     9              2137104       0.0%    100.0%      0.0%
 flops   232 x     9 x     9              3645648       0.0%    100.0%      0.0%
 flops     9 x     9 x   116              4397328       0.0%    100.0%      0.0%
 flops    68 x    68 x     9              4993920       0.0%    100.0%      0.0%
 flops    68 x   116 x     9              8519040       0.0%    100.0%      0.0%
 flops   116 x    68 x     9              8519040       0.0%    100.0%      0.0%
 flops   136 x     9 x    68             13982976       0.0%    100.0%      0.0%
 flops    68 x     9 x    68             17312256       0.0%    100.0%      0.0%
 flops   232 x     9 x    68             23853312       0.0%    100.0%      0.0%
 flops   116 x   116 x     9             29064960       0.0%    100.0%      0.0%
 flops   136 x     9 x   116             35779968       0.0%    100.0%      0.0%
 flops    68 x     9 x   116             44299008       0.0%    100.0%      0.0%
 flops   116 x     9 x    68             56225664       0.0%    100.0%      0.0%
 flops   232 x     9 x   116             61036416       0.0%    100.0%      0.0%
 flops   116 x     9 x   116            143871552       0.0%    100.0%      0.0%
 flops inhomo. stacks                           0       0.0%      0.0%      0.0%
 flops total                       461.434662E+06       0.0%    100.0%      0.0%
 flops max/rank                    214.540398E+06       0.0%    100.0%      0.0%
 matmuls inhomo. stacks                         0       0.0%      0.0%      0.0%
 matmuls total                               3086       0.0%    100.0%      0.0%
 number of processed stacks                  2486       0.0%    100.0%      0.0%
 average stack size                                     0.0       1.2       0.0
 marketing flops                   494.827392E+06
 -------------------------------------------------------------------------------
 # multiplications                            466
 max memory usage/rank             339.472384E+06
 # max total images/rank                        3
 # max 3D layers                                1
 # MPI messages exchanged                  212496
 MPI messages size (bytes):
  total size                       935.947520E+06
  min size                           0.000000E+00
  max size                         215.296000E+03
  average size                       4.404542E+03
 MPI breakdown and total messages size (bytes):
             size <=      128              197230                        0
       128 < size <=     8192                3623                 10554840
      8192 < size <=    32768                4593                 44590176
     32768 < size <=   131072                5640                577235200
    131072 < size <=  4194304                1410                303567360
   4194304 < size <= 16777216                   0                        0
  16777216 < size                               0                        0
 -------------------------------------------------------------------------------

 *** WARNING in dbcsr_mm.F:294 :: Using a non-square number of MPI ranks ***
 *** might lead to poor performance. Used ranks: 24 Suggested: 25 49     ***

 -------------------------------------------------------------------------------
 -                                                                             -
 -                      DBCSR MESSAGE PASSING PERFORMANCE                      -
 -                                                                             -
 -------------------------------------------------------------------------------
 ROUTINE             CALLS      AVE VOLUME [Bytes]
 MP_Bcast               19                     12.
 MP_Allreduce         2485                      8.
 MP_Alltoall          1770                   7999.
 MP_ISend            19580                   5038.
 MP_IRecv            19596                   2620.
 -------------------------------------------------------------------------------

 -------------------------------------------------------------------------------
 -                                                                             -
 -                                GRID STATISTICS                              -
 -                                                                             -
 -------------------------------------------------------------------------------
 LP    KERNEL             BACKEND                              COUNT     PERCENT
 4     collocate ortho    REF                                  12820       9.77%
 4     integrate ortho    REF                                  12179       9.28%
 5     collocate ortho    REF                                  11240       8.57%
 1     collocate ortho    REF                                  11220       8.55%
 5     integrate ortho    REF                                  10678       8.14%
 1     integrate ortho    REF                                  10659       8.12%
 2     collocate ortho    REF                                  10140       7.73%
 2     integrate ortho    REF                                   9633       7.34%
 3     collocate ortho    REF                                   7080       5.40%
 3     integrate ortho    REF                                   6726       5.13%
 0     collocate ortho    REF                                   6660       5.08%
 0     integrate ortho    REF                                   6327       4.82%
 7     collocate ortho    REF                                   3280       2.50%
 7     integrate ortho    REF                                   3116       2.38%
 8     collocate ortho    REF                                   2720       2.07%
 8     integrate ortho    REF                                   2584       1.97%
 6     collocate ortho    REF                                   2060       1.57%
 6     integrate ortho    REF                                   1957       1.49%
 0     collocate general  REF                                    120       0.09%
 -------------------------------------------------------------------------------

 MEMORY| Estimated peak process memory [MiB]                                 324

 -------------------------------------------------------------------------------
 -                                                                             -
 -                         MESSAGE PASSING PERFORMANCE                         -
 -                                                                             -
 -------------------------------------------------------------------------------

 ROUTINE             CALLS      AVE VOLUME [Bytes]
 MP_Group                4
 MP_Bcast              296                1162560.
 MP_Allreduce         1001                    618.
 MP_Sync                20
 MP_Alltoall           380                9520785.
 MP_ISendRecv         2691                 191232.
 MP_Wait              3931
 MP_comm_split          16
 MP_ISend             1120                 448907.
 MP_IRecv             1120                 449139.
 MP_Recv                 4                   7744.
 -------------------------------------------------------------------------------


 -------------------------------------------------------------------------------
 -                                                                             -
 -                           R E F E R E N C E S                               -
 -                                                                             -
 -------------------------------------------------------------------------------
 
 CP2K version 9.0 (Development Version), the CP2K developers group (2020).
 CP2K is freely available from https://www.cp2k.org/ .

 Kuehne,Thomas D.; Iannuzzi,Marcella; Del Ben,Mauro;
 Rybkin,Vladimir V.; Seewald,Patrick; Stein,Frederick; Laino,Teodoro;
 Khaliullin,Rustam Z.; Schuett,Ole; Schiffmann,Florian; Golze,Dorothea;
 Wilhelm,Jan; Chulkov,Sergey; Bani-Hashemian,Mohammad Hossein;
 Weber,Valery; Borstnik,Urban; Taillefumier,Mathieu;
 Jakobovits,Alice Shoshana; Lazzaro,Alfio; Pabst,Hans; Mueller,Tiziano;
 Schade,Robert; Guidon,Manuel; Andermatt,Samuel; Holmberg,Nico;
 Schenter,Gregory K.; Hehn,Anna; Bussy,Augustin; Belleflamme,Fabian;
 Tabacchi,Gloria; Gloess,Andreas; Lass,Michael; Bethune,Iain;
 Mundy,Christopher J.; Plessl,Christian; Watkins,Matt;
 VandeVondele,Joost; Krack,Matthias; Hutter,Juerg. 
 The Journal of Chemical Physics, 152 (19), (2020). 
 CP2K: An electronic structure and molecular dynamics software package -
 Quickstep: Efficient and accurate electronic structure calculations.
 https://doi.org/10.1063/5.0007045

 Schuett, Ole; Messmer, Peter; Hutter, Juerg; VandeVondele, Joost. 
 Electronic Structure Calculations on Graphics Processing Units, John
 Wiley & Sons, Ltd, 173-190 (2016). 
 GPU-Accelerated Sparse Matrix-Matrix Multiplication for
 Linear Scaling Density Functional Theory.
 https://doi.org/10.1002/9781118670712.ch8

 Heinecke, A; Henry, G; Hutchinson, M; Pabst, H. 
 Proceedings of Intl. Supercomputing Conference, 981-991 (2016). 
 LIBXSMM: Accelerating Small Matrix Multiplications
 by Runtime Code Generation.
 https://doi.org/10.1109/SC.2016.83

 Borstnik, U; VandeVondele, J; Weber, V; Hutter, J. 
 PARALLEL COMPUTING, 40 (5-6), 47-58 (2014). 
 Sparse matrix multiplication: The distributed block-compressed sparse
 row library.
 https://doi.org/10.1016/j.parco.2014.03.012

 Hutter, J; Iannuzzi, M; Schiffmann, F; VandeVondele, J. 
 WIREs Comput Mol Sci., 4 (1), 15-25 (2014). 
 CP2K: atomistic simulations of condensed matter systems.
 https://doi.org/10.1002/wcms.1159

 Krack, M. 
 THEORETICAL CHEMISTRY ACCOUNTS, 114 (1-3), 145-152 (2005). 
 Pseudopotentials for H to Kr optimized for gradient-corrected
 exchange-correlation functionals.
 https://doi.org/10.1007/s00214-005-0655-y

 VandeVondele, J; Krack, M; Mohamed, F; Parrinello, M; Chassaing, T;
 Hutter, J. COMPUTER PHYSICS COMMUNICATIONS, 167 (2), 103-128 (2005). 
 QUICKSTEP: Fast and accurate density functional calculations using a
 mixed Gaussian and plane waves approach.
 https://doi.org/10.1016/j.cpc.2004.12.014

 Frigo, M; Johnson, SG. 
 PROCEEDINGS OF THE IEEE, 93 (2), 216-231 (2005). 
 The design and implementation of FFTW3.
 https://doi.org/10.1109/JPROC.2004.840301

 VandeVondele, J; Hutter, J. 
 JOURNAL OF CHEMICAL PHYSICS, 118 (10), 4365-4369 (2003). 
 An efficient orbital transformation method for electronic structure
 calculations.
 https://doi.org/10.1063/1.1543154

 Hartwigsen, C; Goedecker, S; Hutter, J. 
 PHYSICAL REVIEW B, 58 (7), 3641-3662 (1998). 
 Relativistic separable dual-space Gaussian pseudopotentials from H to Rn.
 https://doi.org/10.1103/PhysRevB.58.3641

 Lippert, G; Hutter, J; Parrinello, M. 
 MOLECULAR PHYSICS, 92 (3), 477-487 (1997). 
 A hybrid Gaussian and plane wave density functional scheme.
 https://doi.org/10.1080/002689797170220

 Perdew, JP; Burke, K; Ernzerhof, M. 
 PHYSICAL REVIEW LETTERS, 77 (18), 3865-3868 (1996). 
 Generalized gradient approximation made simple.
 https://doi.org/10.1103/PhysRevLett.77.3865

 Goedecker, S; Teter, M; Hutter, J. 
 PHYSICAL REVIEW B, 54 (3), 1703-1710 (1996). 
 Separable dual-space Gaussian pseudopotentials.
 https://doi.org/10.1103/PhysRevB.54.1703


 -------------------------------------------------------------------------------
 -                                                                             -
 -                                T I M I N G                                  -
 -                                                                             -
 -------------------------------------------------------------------------------
 SUBROUTINE                       CALLS  ASD         SELF TIME        TOTAL TIME
                                MAXIMUM       AVERAGE  MAXIMUM  AVERAGE  MAXIMUM
 CP2K                                 1  1.0    0.006    0.028   12.589   12.590
 qs_energies                          1  2.0    0.000    0.000   12.235   12.235
 scf_env_do_scf                       1  3.0    0.000    0.000   11.965   11.965
 scf_env_do_scf_inner_loop           19  4.0    0.001    0.002   10.710   10.710
 qs_ks_update_qs_env                 21  5.0    0.000    0.000    8.768    8.774
 rebuild_ks_matrix                   19  6.0    0.000    0.000    8.763    8.769
 qs_ks_build_kohn_sham_matrix        19  7.0    0.003    0.004    8.763    8.769
 pw_transfer                        367  9.6    0.032    0.039    6.263    7.199
 fft_wrap_pw1pw2                    329 10.7    0.004    0.005    6.193    7.123
 fft_wrap_pw1pw2_300                212 11.8    0.258    0.286    5.930    6.890
 qs_vxc_create                       19  8.0    0.000    0.001    6.000    6.030
 xc_vxc_pw_create                    19  9.0    0.047    0.052    5.999    6.029
 fft3d_ps                           329 12.7    2.213    2.386    5.018    5.880
 xc_rho_set_and_dset_create          19 10.0    0.020    0.022    3.324    3.928
 mp_alltoall_z22v                   329 14.7    2.322    3.265    2.322    3.265
 yz_to_x                            157 13.1    0.195    0.253    1.585    2.560
 qs_rho_update_rho                   20  5.0    0.000    0.000    2.482    2.482
 calculate_rho_elec                  20  6.0    0.021    0.023    2.481    2.482
 xc_functional_eval                  19 11.0    0.000    0.000    1.668    2.269
 pbe_lda_eval                        19 12.0    1.667    2.269    1.667    2.269
 density_rs2pw                       20  7.0    0.001    0.001    1.954    2.092
 sum_up_and_integrate                19  8.0    0.010    0.011    2.053    2.057
 integrate_v_rspace                  19  9.0    0.001    0.001    2.043    2.048
 rs_pw_transfer                     157  9.4    0.003    0.004    1.665    1.839
 potential_pw2rs                     19 10.0    0.002    0.002    1.450    1.452
 x_to_yz                            172 14.2    0.278    0.327    1.210    1.408
 init_scf_loop                        2  4.0    0.000    0.000    1.254    1.254
 rs_pw_transfer_RS2PW_300            21  8.9    0.219    0.264    0.556    0.727
 grid_collocate_task_list            20  7.0    0.426    0.701    0.426    0.701
 mp_waitany                        1120 11.4    0.416    0.674    0.416    0.674
 mp_waitall_1                     28907 14.0    0.540    0.598    0.540    0.598
 grid_integrate_task_list            19 10.0    0.282    0.578    0.282    0.578
 dbcsr_multiply_generic             466 10.1    0.014    0.014    0.544    0.554
 qs_scf_new_mos                      19  5.0    0.000    0.000    0.529    0.533
 qs_scf_loop_do_ot                   19  6.0    0.000    0.000    0.528    0.533
 pw_scatter_p                       172 13.2    0.483    0.523    0.483    0.523
 mp_alltoall_d11v                   429 11.4    0.340    0.521    0.340    0.521
 ot_scf_mini                         19  7.0    0.000    0.000    0.505    0.511
 pw_gather_p                        157 12.1    0.417    0.497    0.417    0.497
 rs_gather_matrices                  19 10.0    0.001    0.003    0.310    0.489
 rs_pw_transfer_PW2RS_300            19 12.0    0.217    0.237    0.412    0.436
 rs_pw_transfer_PW2RS_100            19 12.0    0.060    0.066    0.335    0.368
 ot_mini                             19  8.0    0.000    0.000    0.342    0.348
 multiply_cannon                    466 11.1    0.030    0.032    0.261    0.304
 prepare_preconditioner               2  5.0    0.000    0.000    0.299    0.300
 qs_init_subsys                       1  2.0    0.001    0.001    0.293    0.293
 qs_env_setup                         1  3.0    0.000    0.000    0.291    0.291
 qs_env_rebuild_pw_env                2  3.5    0.000    0.000    0.290    0.291
 pw_env_rebuild                       1  5.0    0.000    0.000    0.290    0.291
 make_preconditioner                  2  6.0    0.000    0.000    0.284    0.284
 make_full_all                        2  7.0    0.000    0.000    0.271    0.271
 qs_ot_get_derivative                19  9.0    0.000    0.000    0.251    0.257
 -------------------------------------------------------------------------------

 The number of warnings for this run is : 1
 
 -------------------------------------------------------------------------------
  **** **** ******  **  PROGRAM ENDED AT                 2021-05-18 14:37:22.703
 ***** ** ***  *** **   PROGRAM RAN ON                                   tcopt10
 **    ****   ******    PROGRAM RAN BY                                    hutter
 ***** **    ** ** **   PROGRAM PROCESS ID                                 20681
  **** **  *******  **  PROGRAM STOPPED IN            /data/hutter/run/delta/new
