 DBCSR| CPU Multiplication driver                                           XSMM
 DBCSR| Multrec recursion limit                                              512
 DBCSR| Multiplication stack size                                           1000
 DBCSR| Maximum elements for images                                    UNLIMITED
 DBCSR| Multiplicative factor virtual images                                   1
 DBCSR| Use multiplication densification                                       T
 DBCSR| Multiplication size stacks                                             3
 DBCSR| Use memory pool for CPU allocation                                     F
 DBCSR| Number of 3D layers                                               SINGLE
 DBCSR| Use MPI memory allocation                                              F
 DBCSR| Use RMA algorithm                                                      F
 DBCSR| Use Communication thread                                               T
 DBCSR| Communication thread load                                             87
 DBCSR| MPI: My node id                                                        0
 DBCSR| MPI: Number of nodes                                                  24
 DBCSR| OMP: Current number of threads                                         1
 DBCSR| OMP: Max number of threads                                             1
 DBCSR| Split modifier for TAS multiplication algorithm                  1.0E+00


  **** **** ******  **  PROGRAM STARTED AT               2021-05-18 14:39:31.231
 ***** ** ***  *** **   PROGRAM STARTED ON                               tcopt10
 **    ****   ******    PROGRAM STARTED BY                                hutter
 ***** **    ** ** **   PROGRAM PROCESS ID                                 21957
  **** **  *******  **  PROGRAM STARTED IN            /data/hutter/run/delta/new

 CP2K| version string:                    CP2K version 9.0 (Development Version)
 CP2K| source code revision number:                                  git:4b756b0
 CP2K| cp2kflags: omp libint fftw3 libxc elpa parallel mpi3 scalapack xsmm spgli
 CP2K|            b sirius libvori libbqb
 CP2K| is freely available from                            https://www.cp2k.org/
 CP2K| Program compiled at                         Wed May  5 15:51:41 CEST 2021
 CP2K| Program compiled on                                               tcopt10
 CP2K| Program compiled for                                                local
 CP2K| Data directory path                 /data/hutter/GITHUB/CURRENT/cp2k/data
 CP2K| Input file name                                             CH3OH-ref.inp

 GLOBAL| Force Environment number                                              1
 GLOBAL| Basis set file name                                      ../PBE_UCBASIS
 GLOBAL| Potential file name                                        ../POTENTIAL
 GLOBAL| MM Potential file name                                     MM_POTENTIAL
 GLOBAL| Coordinate file name                                      __STD_INPUT__
 GLOBAL| Method name                                                        CP2K
 GLOBAL| Project name                                                   refCH3OH
 GLOBAL| Preferred FFT library                                             FFTW3
 GLOBAL| Preferred diagonalization lib.                                       SL
 GLOBAL| Run type                                                         ENERGY
 GLOBAL| All-to-all communication in single precision                          F
 GLOBAL| FFTs using library dependent lengths                                  F
 GLOBAL| Grid backend                                                       AUTO
 GLOBAL| Global print level                                                  LOW
 GLOBAL| MPI I/O enabled                                                       T
 GLOBAL| Total number of message passing processes                            24
 GLOBAL| Number of threads for this process                                    1
 GLOBAL| This output is from process                                           0
 GLOBAL| CPU model name                          AMD EPYC 7401 24-Core Processor
 GLOBAL| CPUID                                                              1002

 MEMORY| system memory details [Kb]
 MEMORY|                        rank 0           min           max       average
 MEMORY| MemTotal            263969868     263969868     263969868     263969868
 MEMORY| MemFree             218557432     218557432     218557432     218557432
 MEMORY| Buffers                    36            36            36            36
 MEMORY| Cached               37781544      37781544      37781544      37781544
 MEMORY| Slab                  3024540       3024540       3024540       3024540
 MEMORY| SReclaimable          1717628       1717628       1717628       1717628
 MEMORY| MemLikelyFree       258056640     258056640     258056640     258056640


 GENERATE|  Preliminary Number of Bonds generated:                             0
 GENERATE|  Achieved consistency in connectivity generation.

 *******************************************************************************
 *******************************************************************************
 **                                                                           **
 **     #####                         ##              ##                      **
 **    ##   ##            ##          ##              ##                      **
 **   ##     ##                       ##            ######                    **
 **   ##     ##  ##   ##  ##   #####  ##  ##   ####   ##    #####    #####    **
 **   ##     ##  ##   ##  ##  ##      ## ##   ##      ##   ##   ##  ##   ##   **
 **   ##  ## ##  ##   ##  ##  ##      ####     ###    ##   ######   ######    **
 **    ##  ###   ##   ##  ##  ##      ## ##      ##   ##   ##       ##        **
 **     #######   #####   ##   #####  ##  ##  ####    ##    #####   ##        **
 **           ##                                                    ##        **
 **                                                                           **
 **                                                ... make the atoms dance   **
 **                                                                           **
 **            Copyright (C) by CP2K developers group (2000-2021)             **
 **                      J. Chem. Phys. 152, 194103 (2020)                    **
 **                                                                           **
 *******************************************************************************


 TOTAL NUMBERS AND MAXIMUM NUMBERS

  Total number of            - Atomic kinds:                                   3
                             - Atoms:                                          6
                             - Shell sets:                                    12
                             - Shells:                                       136
                             - Primitive Cartesian functions:                 72
                             - Cartesian basis functions:                    648
                             - Spherical basis functions:                    504

  Maximum angular momentum of- Orbital basis functions:                        4
                             - Local part of the GTH pseudopotential:          2
                             - Non-local part of the GTH pseudopotential:      0


 SCF PARAMETERS         Density guess:                                    ATOMIC
                        --------------------------------------------------------
                        max_scf:                                              10
                        max_scf_history:                                       0
                        max_diis:                                              4
                        --------------------------------------------------------
                        eps_scf:                                        1.00E-07
                        eps_scf_history:                                0.00E+00
                        eps_diis:                                       1.00E-01
                        eps_eigval:                                     1.00E-05
                        --------------------------------------------------------
                        level_shift [a.u.]:                                 0.00
                        --------------------------------------------------------
                        Outer loop SCF in use 
                        No variables optimised in outer loop
                        eps_scf                                         1.00E-07
                        max_scf                                               10
                        No outer loop optimization
                        step_size                                       5.00E-01

 Number of electrons:                                                         14
 Number of occupied orbitals:                                                  7
 Number of molecular orbitals:                                                 7

 Number of orbital functions:                                                504
 Number of independent orbital functions:                                    504

 Extrapolation method: initial_guess


 SCF WAVEFUNCTION OPTIMIZATION

  ----------------------------------- OT ---------------------------------------
  Minimizer      : DIIS                : direct inversion
                                         in the iterative subspace
                                         using   7 DIIS vectors
                                         safer DIIS on
  Preconditioner : FULL_ALL            : diagonalization, state selective
  Precond_solver : DEFAULT
  stepsize       :    0.15000000                  energy_gap     :    0.08000000
  eps_taylor     :   0.10000E-15                  max_taylor     :             4
  ----------------------------------- OT ---------------------------------------

  Step     Update method      Time    Convergence         Total energy    Change
  ------------------------------------------------------------------------------
     1 OT DIIS     0.15E+00    0.7     0.05958869       -22.3310919064 -2.23E+01
     2 OT DIIS     0.15E+00    0.6     0.08271125       -22.8796884783 -5.49E-01
     3 OT DIIS     0.15E+00    0.6     0.04062741       -23.4117656194 -5.32E-01
     4 OT DIIS     0.15E+00    0.7     0.02708112       -23.7678537715 -3.56E-01
     5 OT DIIS     0.15E+00    0.6     0.01803833       -23.9649877546 -1.97E-01
     6 OT DIIS     0.15E+00    0.6     0.01796399       -24.0321929812 -6.72E-02
     7 OT DIIS     0.15E+00    0.6     0.00994762       -24.0733768762 -4.12E-02
     8 OT DIIS     0.15E+00    0.6     0.01064272       -24.0669182068  6.46E-03
     9 OT DIIS     0.15E+00    0.6     0.00199630       -24.0868026943 -1.99E-02
    10 OT DIIS     0.15E+00    0.6     0.00146582       -24.0876615643 -8.59E-04

  Leaving inner SCF loop after reaching    10 steps.


  Electronic density on regular grids:        -14.0000000000       -0.0000000000
  Core density on regular grids:               14.0000000000       -0.0000000000
  Total charge density on r-space grids:       -0.0000000000
  Total charge density g-space grids:          -0.0000000000

  Overlap energy of the core charge distribution:               0.00000051594873
  Self energy of the core charge distribution:                -60.49859656694942
  Core Hamiltonian energy:                                     18.02887039590054
  Hartree energy:                                              25.05600431956967
  Exchange-correlation energy:                                 -6.67394022872912

  Total energy:                                               -24.08766156425960

  outer SCF iter =    1 RMS gradient =   0.15E-02 energy =        -24.0876615643

  ----------------------------------- OT ---------------------------------------
  Minimizer      : DIIS                : direct inversion
                                         in the iterative subspace
                                         using   7 DIIS vectors
                                         safer DIIS on
  Preconditioner : FULL_ALL            : diagonalization, state selective
  Precond_solver : DEFAULT
  stepsize       :    0.15000000                  energy_gap     :    0.08000000
  eps_taylor     :   0.10000E-15                  max_taylor     :             4
  ----------------------------------- OT ---------------------------------------

  Step     Update method      Time    Convergence         Total energy    Change
  ------------------------------------------------------------------------------
     1 OT DIIS     0.15E+00    1.4     0.00063779       -24.0882992037 -6.38E-04
     2 OT DIIS     0.15E+00    0.6     0.00033174       -24.0884196604 -1.20E-04
     3 OT DIIS     0.15E+00    0.6     0.00018123       -24.0884417195 -2.21E-05
     4 OT DIIS     0.15E+00    0.6     0.00001461       -24.0884498253 -8.11E-06
     5 OT DIIS     0.15E+00    0.6     0.00000435       -24.0884498700 -4.47E-08
     6 OT DIIS     0.15E+00    0.6     0.00000061       -24.0884498738 -3.84E-09
     7 OT DIIS     0.15E+00    0.6     0.00000012       -24.0884498740 -1.47E-10
     8 OT DIIS     0.15E+00    0.6     0.00000002       -24.0884498740 -5.97E-12

  *** SCF run converged in     8 steps ***


  Electronic density on regular grids:        -14.0000000000       -0.0000000000
  Core density on regular grids:               14.0000000000       -0.0000000000
  Total charge density on r-space grids:       -0.0000000000
  Total charge density g-space grids:          -0.0000000000

  Overlap energy of the core charge distribution:               0.00000051594873
  Self energy of the core charge distribution:                -60.49859656694942
  Core Hamiltonian energy:                                     18.03325578524192
  Hartree energy:                                              25.05187402118024
  Exchange-correlation energy:                                 -6.67498362937792

  Total energy:                                               -24.08844987395645

  outer SCF iter =    2 RMS gradient =   0.20E-07 energy =        -24.0884498740
  outer SCF loop converged in   2 iterations or   18 steps


 ENERGY| Total FORCE_EVAL ( QS ) energy [a.u.]:              -24.088449873956449

 -------------------------------------------------------------------------------
 -                                                                             -
 -                                DBCSR STATISTICS                             -
 -                                                                             -
 -------------------------------------------------------------------------------
 COUNTER                                    TOTAL       BLAS       SMM       ACC
 flops     7 x     7 x     7                87808       0.0%    100.0%      0.0%
 flops     7 x     7 x   116              1682464       0.0%    100.0%      0.0%
 flops     7 x     7 x    68              1972544       0.0%    100.0%      0.0%
 flops   232 x     7 x     7              2091712       0.0%    100.0%      0.0%
 flops   136 x     7 x     7              2452352       0.0%    100.0%      0.0%
 flops   116 x    68 x     7              6294624       0.0%    100.0%      0.0%
 flops    68 x   116 x     7             10491040       0.0%    100.0%      0.0%
 flops   116 x   116 x     7             10737888       0.0%    100.0%      0.0%
 flops    68 x    68 x     7             12299840       0.0%    100.0%      0.0%
 flops   232 x     7 x   116             30141440       0.0%    100.0%      0.0%
 flops   232 x     7 x    68             35338240       0.0%    100.0%      0.0%
 flops   136 x     7 x   116             35338240       0.0%    100.0%      0.0%
 flops   116 x     7 x   116             37676800       0.0%    100.0%      0.0%
 flops   136 x     7 x    68             41431040       0.0%    100.0%      0.0%
 flops   116 x     7 x    68             44172800       0.0%    100.0%      0.0%
 flops    68 x     7 x   116             44172800       0.0%    100.0%      0.0%
 flops    68 x     7 x    68             51788800       0.0%    100.0%      0.0%
 flops inhomo. stacks                           0       0.0%      0.0%      0.0%
 flops total                       368.170432E+06       0.0%    100.0%      0.0%
 flops max/rank                    163.901696E+06       0.0%    100.0%      0.0%
 matmuls inhomo. stacks                         0       0.0%      0.0%      0.0%
 matmuls total                               3767       0.0%    100.0%      0.0%
 number of processed stacks                  2734       0.0%    100.0%      0.0%
 average stack size                                     0.0       1.4       0.0
 marketing flops                   396.014464E+06
 -------------------------------------------------------------------------------
 # multiplications                            405
 max memory usage/rank             339.099648E+06
 # max total images/rank                        3
 # max 3D layers                                1
 # MPI messages exchanged                  184680
 MPI messages size (bytes):
  total size                       956.569344E+06
  min size                           0.000000E+00
  max size                         215.296000E+03
  average size                       5.179604E+03
 MPI breakdown and total messages size (bytes):
             size <=      128              168158                        0
       128 < size <=     8192                7810                 34160672
      8192 < size <=    32768                 612                  7951104
     32768 < size <=   131072                7200                720691200
    131072 < size <=  4194304                 900                193766400
   4194304 < size <= 16777216                   0                        0
  16777216 < size                               0                        0
 -------------------------------------------------------------------------------

 *** WARNING in dbcsr_mm.F:294 :: Using a non-square number of MPI ranks ***
 *** might lead to poor performance. Used ranks: 24 Suggested: 25 49     ***

 -------------------------------------------------------------------------------
 -                                                                             -
 -                      DBCSR MESSAGE PASSING PERFORMANCE                      -
 -                                                                             -
 -------------------------------------------------------------------------------
 ROUTINE             CALLS      AVE VOLUME [Bytes]
 MP_Bcast               18                     12.
 MP_Allreduce         2169                      8.
 MP_Alltoall          1634                   8435.
 MP_ISend            17002                   5516.
 MP_IRecv            17002                   2944.
 -------------------------------------------------------------------------------

 -------------------------------------------------------------------------------
 -                                                                             -
 -                                GRID STATISTICS                              -
 -                                                                             -
 -------------------------------------------------------------------------------
 LP    KERNEL             BACKEND                              COUNT     PERCENT
 3     collocate ortho    REF                                  23332      11.89%
 3     integrate ortho    REF                                  22104      11.27%
 0     collocate ortho    REF                                  20919      10.66%
 0     integrate ortho    REF                                  19818      10.10%
 4     collocate ortho    REF                                  17214       8.77%
 4     integrate ortho    REF                                  16308       8.31%
 1     collocate ortho    REF                                  15200       7.75%
 1     integrate ortho    REF                                  14400       7.34%
 6     collocate ortho    REF                                   6593       3.36%
 6     integrate ortho    REF                                   6246       3.18%
 5     collocate ortho    REF                                   6118       3.12%
 5     integrate ortho    REF                                   5796       2.95%
 2     collocate ortho    REF                                   5415       2.76%
 2     integrate ortho    REF                                   5130       2.61%
 7     collocate ortho    REF                                   4484       2.29%
 7     integrate ortho    REF                                   4248       2.17%
 8     collocate ortho    REF                                   1406       0.72%
 8     integrate ortho    REF                                   1332       0.68%
 0     collocate general  REF                                    144       0.07%
 -------------------------------------------------------------------------------

 MEMORY| Estimated peak process memory [MiB]                                 324

 -------------------------------------------------------------------------------
 -                                                                             -
 -                         MESSAGE PASSING PERFORMANCE                         -
 -                                                                             -
 -------------------------------------------------------------------------------

 ROUTINE             CALLS      AVE VOLUME [Bytes]
 MP_Group                4
 MP_Bcast              258                1333747.
 MP_Allreduce          906                    674.
 MP_Sync                20
 MP_Alltoall           361                9524401.
 MP_ISendRecv         2553                 191232.
 MP_Wait              3731
 MP_comm_split          16
 MP_ISend             1064                 448901.
 MP_IRecv             1064                 449145.
 MP_Recv                 3                   8064.
 -------------------------------------------------------------------------------


 -------------------------------------------------------------------------------
 -                                                                             -
 -                           R E F E R E N C E S                               -
 -                                                                             -
 -------------------------------------------------------------------------------
 
 CP2K version 9.0 (Development Version), the CP2K developers group (2020).
 CP2K is freely available from https://www.cp2k.org/ .

 Kuehne,Thomas D.; Iannuzzi,Marcella; Del Ben,Mauro;
 Rybkin,Vladimir V.; Seewald,Patrick; Stein,Frederick; Laino,Teodoro;
 Khaliullin,Rustam Z.; Schuett,Ole; Schiffmann,Florian; Golze,Dorothea;
 Wilhelm,Jan; Chulkov,Sergey; Bani-Hashemian,Mohammad Hossein;
 Weber,Valery; Borstnik,Urban; Taillefumier,Mathieu;
 Jakobovits,Alice Shoshana; Lazzaro,Alfio; Pabst,Hans; Mueller,Tiziano;
 Schade,Robert; Guidon,Manuel; Andermatt,Samuel; Holmberg,Nico;
 Schenter,Gregory K.; Hehn,Anna; Bussy,Augustin; Belleflamme,Fabian;
 Tabacchi,Gloria; Gloess,Andreas; Lass,Michael; Bethune,Iain;
 Mundy,Christopher J.; Plessl,Christian; Watkins,Matt;
 VandeVondele,Joost; Krack,Matthias; Hutter,Juerg. 
 The Journal of Chemical Physics, 152 (19), (2020). 
 CP2K: An electronic structure and molecular dynamics software package -
 Quickstep: Efficient and accurate electronic structure calculations.
 https://doi.org/10.1063/5.0007045

 Schuett, Ole; Messmer, Peter; Hutter, Juerg; VandeVondele, Joost. 
 Electronic Structure Calculations on Graphics Processing Units, John
 Wiley & Sons, Ltd, 173-190 (2016). 
 GPU-Accelerated Sparse Matrix-Matrix Multiplication for
 Linear Scaling Density Functional Theory.
 https://doi.org/10.1002/9781118670712.ch8

 Heinecke, A; Henry, G; Hutchinson, M; Pabst, H. 
 Proceedings of Intl. Supercomputing Conference, 981-991 (2016). 
 LIBXSMM: Accelerating Small Matrix Multiplications
 by Runtime Code Generation.
 https://doi.org/10.1109/SC.2016.83

 Borstnik, U; VandeVondele, J; Weber, V; Hutter, J. 
 PARALLEL COMPUTING, 40 (5-6), 47-58 (2014). 
 Sparse matrix multiplication: The distributed block-compressed sparse
 row library.
 https://doi.org/10.1016/j.parco.2014.03.012

 Hutter, J; Iannuzzi, M; Schiffmann, F; VandeVondele, J. 
 WIREs Comput Mol Sci., 4 (1), 15-25 (2014). 
 CP2K: atomistic simulations of condensed matter systems.
 https://doi.org/10.1002/wcms.1159

 Krack, M. 
 THEORETICAL CHEMISTRY ACCOUNTS, 114 (1-3), 145-152 (2005). 
 Pseudopotentials for H to Kr optimized for gradient-corrected
 exchange-correlation functionals.
 https://doi.org/10.1007/s00214-005-0655-y

 VandeVondele, J; Krack, M; Mohamed, F; Parrinello, M; Chassaing, T;
 Hutter, J. COMPUTER PHYSICS COMMUNICATIONS, 167 (2), 103-128 (2005). 
 QUICKSTEP: Fast and accurate density functional calculations using a
 mixed Gaussian and plane waves approach.
 https://doi.org/10.1016/j.cpc.2004.12.014

 Frigo, M; Johnson, SG. 
 PROCEEDINGS OF THE IEEE, 93 (2), 216-231 (2005). 
 The design and implementation of FFTW3.
 https://doi.org/10.1109/JPROC.2004.840301

 VandeVondele, J; Hutter, J. 
 JOURNAL OF CHEMICAL PHYSICS, 118 (10), 4365-4369 (2003). 
 An efficient orbital transformation method for electronic structure
 calculations.
 https://doi.org/10.1063/1.1543154

 Hartwigsen, C; Goedecker, S; Hutter, J. 
 PHYSICAL REVIEW B, 58 (7), 3641-3662 (1998). 
 Relativistic separable dual-space Gaussian pseudopotentials from H to Rn.
 https://doi.org/10.1103/PhysRevB.58.3641

 Lippert, G; Hutter, J; Parrinello, M. 
 MOLECULAR PHYSICS, 92 (3), 477-487 (1997). 
 A hybrid Gaussian and plane wave density functional scheme.
 https://doi.org/10.1080/002689797170220

 Perdew, JP; Burke, K; Ernzerhof, M. 
 PHYSICAL REVIEW LETTERS, 77 (18), 3865-3868 (1996). 
 Generalized gradient approximation made simple.
 https://doi.org/10.1103/PhysRevLett.77.3865

 Goedecker, S; Teter, M; Hutter, J. 
 PHYSICAL REVIEW B, 54 (3), 1703-1710 (1996). 
 Separable dual-space Gaussian pseudopotentials.
 https://doi.org/10.1103/PhysRevB.54.1703


 -------------------------------------------------------------------------------
 -                                                                             -
 -                                T I M I N G                                  -
 -                                                                             -
 -------------------------------------------------------------------------------
 SUBROUTINE                       CALLS  ASD         SELF TIME        TOTAL TIME
                                MAXIMUM       AVERAGE  MAXIMUM  AVERAGE  MAXIMUM
 CP2K                                 1  1.0    0.006    0.028   12.497   12.498
 qs_energies                          1  2.0    0.000    0.000   12.146   12.146
 scf_env_do_scf                       1  3.0    0.000    0.000   11.822   11.823
 scf_env_do_scf_inner_loop           18  4.0    0.001    0.002   10.539   10.540
 qs_ks_update_qs_env                 20  5.0    0.000    0.000    8.625    8.630
 rebuild_ks_matrix                   18  6.0    0.000    0.000    8.621    8.625
 qs_ks_build_kohn_sham_matrix        18  7.0    0.003    0.004    8.620    8.625
 pw_transfer                        348  9.6    0.030    0.036    5.952    6.694
 fft_wrap_pw1pw2                    312 10.7    0.004    0.005    5.884    6.629
 fft_wrap_pw1pw2_300                201 11.8    0.246    0.268    5.613    6.342
 qs_vxc_create                       18  8.0    0.000    0.001    5.833    5.861
 xc_vxc_pw_create                    18  9.0    0.044    0.051    5.833    5.861
 fft3d_ps                           312 12.7    2.102    2.293    4.772    5.670
 xc_rho_set_and_dset_create          18 10.0    0.019    0.021    3.325    3.778
 mp_alltoall_z22v                   312 14.7    2.209    3.366    2.209    3.366
 qs_rho_update_rho                   19  5.0    0.000    0.000    2.545    2.545
 calculate_rho_elec                  19  6.0    0.020    0.022    2.545    2.545
 yz_to_x                            149 13.1    0.188    0.255    1.475    2.388
 xc_functional_eval                  18 11.0    0.000    0.000    1.755    2.211
 pbe_lda_eval                        18 12.0    1.754    2.211    1.754    2.211
 sum_up_and_integrate                18  8.0    0.009    0.011    2.108    2.110
 integrate_v_rspace                  18  9.0    0.001    0.001    2.099    2.101
 density_rs2pw                       19  7.0    0.001    0.003    1.929    2.009
 rs_pw_transfer                     149  9.4    0.003    0.004    1.678    1.777
 potential_pw2rs                     18 10.0    0.002    0.002    1.408    1.410
 x_to_yz                            163 14.2    0.263    0.312    1.185    1.369
 init_scf_loop                        2  4.0    0.000    0.000    1.282    1.282
 grid_collocate_task_list            19  7.0    0.479    0.793    0.479    0.793
 rs_pw_transfer_RS2PW_300            20  8.9    0.206    0.245    0.623    0.719
 grid_integrate_task_list            18 10.0    0.357    0.681    0.357    0.681
 mp_waitany                        1064 11.4    0.496    0.630    0.496    0.630
 mp_waitall_1                     25347 13.9    0.507    0.598    0.507    0.598
 pw_scatter_p                       163 13.2    0.455    0.493    0.455    0.493
 dbcsr_multiply_generic             405 10.0    0.012    0.014    0.470    0.480
 pw_gather_p                        149 12.1    0.396    0.471    0.396    0.471
 qs_scf_new_mos                      18  5.0    0.000    0.000    0.451    0.456
 qs_scf_loop_do_ot                   18  6.0    0.000    0.000    0.451    0.456
 mp_alltoall_d11v                   421 11.4    0.361    0.455    0.361    0.455
 ot_scf_mini                         18  7.0    0.000    0.000    0.430    0.437
 rs_gather_matrices                  18 10.0    0.001    0.003    0.334    0.427
 rs_pw_transfer_PW2RS_300            18 12.0    0.208    0.231    0.394    0.417
 rs_pw_transfer_PW2RS_100            18 12.0    0.056    0.065    0.323    0.352
 prepare_preconditioner               2  5.0    0.000    0.000    0.319    0.320
 make_preconditioner                  2  6.0    0.000    0.000    0.305    0.305
 qs_init_subsys                       1  2.0    0.001    0.001    0.292    0.292
 make_full_all                        2  7.0    0.000    0.000    0.292    0.292
 qs_env_setup                         1  3.0    0.000    0.000    0.290    0.290
 qs_env_rebuild_pw_env                2  3.5    0.000    0.000    0.290    0.290
 pw_env_rebuild                       1  5.0    0.000    0.000    0.290    0.290
 ot_mini                             18  8.0    0.000    0.000    0.284    0.289
 multiply_cannon                    405 11.0    0.027    0.028    0.224    0.268
 fft_wrap_pw1pw2_100                 37 11.5    0.009    0.010    0.204    0.263
 mp_sum_d                           799  5.9    0.191    0.262    0.191    0.262
 -------------------------------------------------------------------------------

 The number of warnings for this run is : 1
 
 -------------------------------------------------------------------------------
  **** **** ******  **  PROGRAM ENDED AT                 2021-05-18 14:39:44.344
 ***** ** ***  *** **   PROGRAM RAN ON                                   tcopt10
 **    ****   ******    PROGRAM RAN BY                                    hutter
 ***** **    ** ** **   PROGRAM PROCESS ID                                 21957
  **** **  *******  **  PROGRAM STOPPED IN            /data/hutter/run/delta/new
