 DBCSR| CPU Multiplication driver                                           XSMM
 DBCSR| Multrec recursion limit                                              512
 DBCSR| Multiplication stack size                                           1000
 DBCSR| Maximum elements for images                                    UNLIMITED
 DBCSR| Multiplicative factor virtual images                                   1
 DBCSR| Use multiplication densification                                       T
 DBCSR| Multiplication size stacks                                             3
 DBCSR| Use memory pool for CPU allocation                                     F
 DBCSR| Number of 3D layers                                               SINGLE
 DBCSR| Use MPI memory allocation                                              F
 DBCSR| Use RMA algorithm                                                      F
 DBCSR| Use Communication thread                                               T
 DBCSR| Communication thread load                                             87
 DBCSR| MPI: My node id                                                        0
 DBCSR| MPI: Number of nodes                                                  24
 DBCSR| OMP: Current number of threads                                         1
 DBCSR| OMP: Max number of threads                                             1
 DBCSR| Split modifier for TAS multiplication algorithm                  1.0E+00


  **** **** ******  **  PROGRAM STARTED AT               2021-05-18 14:42:08.712
 ***** ** ***  *** **   PROGRAM STARTED ON                               tcopt10
 **    ****   ******    PROGRAM STARTED BY                                hutter
 ***** **    ** ** **   PROGRAM PROCESS ID                                 23165
  **** **  *******  **  PROGRAM STARTED IN            /data/hutter/run/delta/new

 CP2K| version string:                    CP2K version 9.0 (Development Version)
 CP2K| source code revision number:                                  git:4b756b0
 CP2K| cp2kflags: omp libint fftw3 libxc elpa parallel mpi3 scalapack xsmm spgli
 CP2K|            b sirius libvori libbqb
 CP2K| is freely available from                            https://www.cp2k.org/
 CP2K| Program compiled at                         Wed May  5 15:51:41 CEST 2021
 CP2K| Program compiled on                                               tcopt10
 CP2K| Program compiled for                                                local
 CP2K| Data directory path                 /data/hutter/GITHUB/CURRENT/cp2k/data
 CP2K| Input file name                                                CO-ref.inp

 GLOBAL| Force Environment number                                              1
 GLOBAL| Basis set file name                                      ../PBE_UCBASIS
 GLOBAL| Potential file name                                        ../POTENTIAL
 GLOBAL| MM Potential file name                                     MM_POTENTIAL
 GLOBAL| Coordinate file name                                      __STD_INPUT__
 GLOBAL| Method name                                                        CP2K
 GLOBAL| Project name                                                      refCO
 GLOBAL| Preferred FFT library                                             FFTW3
 GLOBAL| Preferred diagonalization lib.                                       SL
 GLOBAL| Run type                                                         ENERGY
 GLOBAL| All-to-all communication in single precision                          F
 GLOBAL| FFTs using library dependent lengths                                  F
 GLOBAL| Grid backend                                                       AUTO
 GLOBAL| Global print level                                                  LOW
 GLOBAL| MPI I/O enabled                                                       T
 GLOBAL| Total number of message passing processes                            24
 GLOBAL| Number of threads for this process                                    1
 GLOBAL| This output is from process                                           0
 GLOBAL| CPU model name                          AMD EPYC 7401 24-Core Processor
 GLOBAL| CPUID                                                              1002

 MEMORY| system memory details [Kb]
 MEMORY|                        rank 0           min           max       average
 MEMORY| MemTotal            263969868     263969868     263969868     263969868
 MEMORY| MemFree             218559776     218559776     218559776     218559776
 MEMORY| Buffers                    36            36            36            36
 MEMORY| Cached               37783092      37783092      37783092      37783092
 MEMORY| Slab                  3023912       3023912       3023912       3023912
 MEMORY| SReclaimable          1716292       1716292       1716292       1716292
 MEMORY| MemLikelyFree       258059196     258059196     258059196     258059196


 GENERATE|  Preliminary Number of Bonds generated:                             0
 GENERATE|  Achieved consistency in connectivity generation.

 *******************************************************************************
 *******************************************************************************
 **                                                                           **
 **     #####                         ##              ##                      **
 **    ##   ##            ##          ##              ##                      **
 **   ##     ##                       ##            ######                    **
 **   ##     ##  ##   ##  ##   #####  ##  ##   ####   ##    #####    #####    **
 **   ##     ##  ##   ##  ##  ##      ## ##   ##      ##   ##   ##  ##   ##   **
 **   ##  ## ##  ##   ##  ##  ##      ####     ###    ##   ######   ######    **
 **    ##  ###   ##   ##  ##  ##      ## ##      ##   ##   ##       ##        **
 **     #######   #####   ##   #####  ##  ##  ####    ##    #####   ##        **
 **           ##                                                    ##        **
 **                                                                           **
 **                                                ... make the atoms dance   **
 **                                                                           **
 **            Copyright (C) by CP2K developers group (2000-2021)             **
 **                      J. Chem. Phys. 152, 194103 (2020)                    **
 **                                                                           **
 *******************************************************************************


 TOTAL NUMBERS AND MAXIMUM NUMBERS

  Total number of            - Atomic kinds:                                   2
                             - Atoms:                                          2
                             - Shell sets:                                     4
                             - Shells:                                        56
                             - Primitive Cartesian functions:                 24
                             - Cartesian basis functions:                    312
                             - Spherical basis functions:                    232

  Maximum angular momentum of- Orbital basis functions:                        4
                             - Local part of the GTH pseudopotential:          2
                             - Non-local part of the GTH pseudopotential:      0


 SCF PARAMETERS         Density guess:                                    ATOMIC
                        --------------------------------------------------------
                        max_scf:                                              10
                        max_scf_history:                                       0
                        max_diis:                                              4
                        --------------------------------------------------------
                        eps_scf:                                        1.00E-07
                        eps_scf_history:                                0.00E+00
                        eps_diis:                                       1.00E-01
                        eps_eigval:                                     1.00E-05
                        --------------------------------------------------------
                        level_shift [a.u.]:                                 0.00
                        --------------------------------------------------------
                        Outer loop SCF in use 
                        No variables optimised in outer loop
                        eps_scf                                         1.00E-07
                        max_scf                                               10
                        No outer loop optimization
                        step_size                                       5.00E-01

 Number of electrons:                                                         10
 Number of occupied orbitals:                                                  5
 Number of molecular orbitals:                                                 5

 Number of orbital functions:                                                232
 Number of independent orbital functions:                                    232

 Extrapolation method: initial_guess


 SCF WAVEFUNCTION OPTIMIZATION

  ----------------------------------- OT ---------------------------------------
  Minimizer      : DIIS                : direct inversion
                                         in the iterative subspace
                                         using   7 DIIS vectors
                                         safer DIIS on
  Preconditioner : FULL_ALL            : diagonalization, state selective
  Precond_solver : DEFAULT
  stepsize       :    0.15000000                  energy_gap     :    0.08000000
  eps_taylor     :   0.10000E-15                  max_taylor     :             4
  ----------------------------------- OT ---------------------------------------

  Step     Update method      Time    Convergence         Total energy    Change
  ------------------------------------------------------------------------------
     1 OT DIIS     0.15E+00    0.5     0.11439416       -20.6184519283 -2.06E+01
     2 OT DIIS     0.15E+00    0.6     0.35923482       -19.5261383538  1.09E+00
     3 OT DIIS     0.15E+00    0.6     0.06239610       -21.5206852659 -1.99E+00
     4 OT DIIS     0.15E+00    0.6     0.05770025       -21.6147859502 -9.41E-02
     5 OT DIIS     0.15E+00    0.6     0.04830833       -21.6282241571 -1.34E-02
     6 OT DIIS     0.15E+00    0.6     0.01362137       -21.6826625151 -5.44E-02
     7 OT DIIS     0.15E+00    0.6     0.00298543       -21.6883789293 -5.72E-03
     8 OT DIIS     0.15E+00    0.6     0.00242810       -21.6886268948 -2.48E-04
     9 OT DIIS     0.15E+00    0.6     0.00055500       -21.6888478406 -2.21E-04
    10 OT DIIS     0.15E+00    0.6     0.00028604       -21.6888657649 -1.79E-05

  Leaving inner SCF loop after reaching    10 steps.


  Electronic density on regular grids:         -9.9999999999        0.0000000001
  Core density on regular grids:               10.0000000000       -0.0000000000
  Total charge density on r-space grids:        0.0000000001
  Total charge density g-space grids:           0.0000000001

  Overlap energy of the core charge distribution:               0.00000263410086
  Self energy of the core charge distribution:                -54.87338435199727
  Core Hamiltonian energy:                                     15.62759059360505
  Hartree energy:                                              22.62858960829931
  Exchange-correlation energy:                                 -5.07166424889227

  Total energy:                                               -21.68886576488431

  outer SCF iter =    1 RMS gradient =   0.29E-03 energy =        -21.6888657649

  ----------------------------------- OT ---------------------------------------
  Minimizer      : DIIS                : direct inversion
                                         in the iterative subspace
                                         using   7 DIIS vectors
                                         safer DIIS on
  Preconditioner : FULL_ALL            : diagonalization, state selective
  Precond_solver : DEFAULT
  stepsize       :    0.15000000                  energy_gap     :    0.08000000
  eps_taylor     :   0.10000E-15                  max_taylor     :             4
  ----------------------------------- OT ---------------------------------------

  Step     Update method      Time    Convergence         Total energy    Change
  ------------------------------------------------------------------------------
     1 OT DIIS     0.15E+00    1.2     0.00006926       -21.6888695540 -3.79E-06
     2 OT DIIS     0.15E+00    0.6     0.00002759       -21.6888701309 -5.77E-07
     3 OT DIIS     0.15E+00    0.6     0.00001252       -21.6888702343 -1.03E-07
     4 OT DIIS     0.15E+00    0.6     0.00000321       -21.6888702398 -5.48E-09
     5 OT DIIS     0.15E+00    0.6     0.00000026       -21.6888702402 -4.39E-10
     6 OT DIIS     0.15E+00    0.6     0.00000008       -21.6888702402 -7.34E-12

  *** SCF run converged in     6 steps ***


  Electronic density on regular grids:         -9.9999999999        0.0000000001
  Core density on regular grids:               10.0000000000       -0.0000000000
  Total charge density on r-space grids:        0.0000000001
  Total charge density g-space grids:           0.0000000001

  Overlap energy of the core charge distribution:               0.00000263410086
  Self energy of the core charge distribution:                -54.87338435199727
  Core Hamiltonian energy:                                     15.62831645145713
  Hartree energy:                                              22.62800689654950
  Exchange-correlation energy:                                 -5.07181187034582

  Total energy:                                               -21.68887024023561

  outer SCF iter =    2 RMS gradient =   0.77E-07 energy =        -21.6888702402
  outer SCF loop converged in   2 iterations or   16 steps


 ENERGY| Total FORCE_EVAL ( QS ) energy [a.u.]:              -21.688870240235609

 -------------------------------------------------------------------------------
 -                                                                             -
 -                                DBCSR STATISTICS                             -
 -                                                                             -
 -------------------------------------------------------------------------------
 COUNTER                                    TOTAL       BLAS       SMM       ACC
 flops     5 x     5 x     5                29000       0.0%    100.0%      0.0%
 flops     5 x     5 x   116               765600       0.0%    100.0%      0.0%
 flops   232 x     5 x     5               951200       0.0%    100.0%      0.0%
 flops   116 x   116 x     5              6862560       0.0%    100.0%      0.0%
 flops   232 x     5 x   116             19376640       0.0%    100.0%      0.0%
 flops   116 x     5 x   116             24759040       0.0%    100.0%      0.0%
 flops inhomo. stacks                           0       0.0%      0.0%      0.0%
 flops total                        52.744040E+06       0.0%    100.0%      0.0%
 flops max/rank                     52.744040E+06       0.0%    100.0%      0.0%
 matmuls inhomo. stacks                         0       0.0%      0.0%      0.0%
 matmuls total                                637       0.0%    100.0%      0.0%
 number of processed stacks                   511       0.0%    100.0%      0.0%
 average stack size                                     0.0       1.2       0.0
 marketing flops                    55.054752E+06
 -------------------------------------------------------------------------------
 # multiplications                            365
 max memory usage/rank             334.426112E+06
 # max total images/rank                        3
 # max 3D layers                                1
 # MPI messages exchanged                  166440
 MPI messages size (bytes):
  total size                       189.027120E+06
  min size                           0.000000E+00
  max size                         215.296000E+03
  average size                       1.135707E+03
 MPI breakdown and total messages size (bytes):
             size <=      128              162352                        0
       128 < size <=     8192                2722                  7417520
      8192 < size <=    32768                 546                  5066880
     32768 < size <=   131072                   0                        0
    131072 < size <=  4194304                 820                176542720
   4194304 < size <= 16777216                   0                        0
  16777216 < size                               0                        0
 -------------------------------------------------------------------------------

 *** WARNING in dbcsr_mm.F:294 :: Using a non-square number of MPI ranks ***
 *** might lead to poor performance. Used ranks: 24 Suggested: 25 49     ***

 -------------------------------------------------------------------------------
 -                                                                             -
 -                      DBCSR MESSAGE PASSING PERFORMANCE                      -
 -                                                                             -
 -------------------------------------------------------------------------------
 ROUTINE             CALLS      AVE VOLUME [Bytes]
 MP_Bcast                7                     12.
 MP_Allreduce         1929                      8.
 MP_Alltoall          1526                   8417.
 MP_ISend            15322                   2569.
 MP_IRecv            15322                     60.
 -------------------------------------------------------------------------------

 -------------------------------------------------------------------------------
 -                                                                             -
 -                                GRID STATISTICS                              -
 -                                                                             -
 -------------------------------------------------------------------------------
 LP    KERNEL             BACKEND                              COUNT     PERCENT
 5     collocate ortho    REF                                   5508      24.31%
 5     integrate ortho    REF                                   5184      22.88%
 2     collocate ortho    REF                                   4879      21.54%
 2     integrate ortho    REF                                   4592      20.27%
 8     collocate ortho    REF                                   1258       5.55%
 8     integrate ortho    REF                                   1184       5.23%
 0     collocate general  REF                                     48       0.21%
 -------------------------------------------------------------------------------

 MEMORY| Estimated peak process memory [MiB]                                 320

 -------------------------------------------------------------------------------
 -                                                                             -
 -                         MESSAGE PASSING PERFORMANCE                         -
 -                                                                             -
 -------------------------------------------------------------------------------

 ROUTINE             CALLS      AVE VOLUME [Bytes]
 MP_Group                4
 MP_Bcast              196                1170623.
 MP_Allreduce          786                    768.
 MP_Sync                20
 MP_Alltoall           323                9656641.
 MP_ISendRecv         2277                 191232.
 MP_Wait              3331
 MP_comm_split          16
 MP_ISend              952                 448887.
 MP_IRecv              952                 449159.
 MP_Recv                 4                   1856.
 -------------------------------------------------------------------------------


 -------------------------------------------------------------------------------
 -                                                                             -
 -                           R E F E R E N C E S                               -
 -                                                                             -
 -------------------------------------------------------------------------------
 
 CP2K version 9.0 (Development Version), the CP2K developers group (2020).
 CP2K is freely available from https://www.cp2k.org/ .

 Kuehne,Thomas D.; Iannuzzi,Marcella; Del Ben,Mauro;
 Rybkin,Vladimir V.; Seewald,Patrick; Stein,Frederick; Laino,Teodoro;
 Khaliullin,Rustam Z.; Schuett,Ole; Schiffmann,Florian; Golze,Dorothea;
 Wilhelm,Jan; Chulkov,Sergey; Bani-Hashemian,Mohammad Hossein;
 Weber,Valery; Borstnik,Urban; Taillefumier,Mathieu;
 Jakobovits,Alice Shoshana; Lazzaro,Alfio; Pabst,Hans; Mueller,Tiziano;
 Schade,Robert; Guidon,Manuel; Andermatt,Samuel; Holmberg,Nico;
 Schenter,Gregory K.; Hehn,Anna; Bussy,Augustin; Belleflamme,Fabian;
 Tabacchi,Gloria; Gloess,Andreas; Lass,Michael; Bethune,Iain;
 Mundy,Christopher J.; Plessl,Christian; Watkins,Matt;
 VandeVondele,Joost; Krack,Matthias; Hutter,Juerg. 
 The Journal of Chemical Physics, 152 (19), (2020). 
 CP2K: An electronic structure and molecular dynamics software package -
 Quickstep: Efficient and accurate electronic structure calculations.
 https://doi.org/10.1063/5.0007045

 Schuett, Ole; Messmer, Peter; Hutter, Juerg; VandeVondele, Joost. 
 Electronic Structure Calculations on Graphics Processing Units, John
 Wiley & Sons, Ltd, 173-190 (2016). 
 GPU-Accelerated Sparse Matrix-Matrix Multiplication for
 Linear Scaling Density Functional Theory.
 https://doi.org/10.1002/9781118670712.ch8

 Heinecke, A; Henry, G; Hutchinson, M; Pabst, H. 
 Proceedings of Intl. Supercomputing Conference, 981-991 (2016). 
 LIBXSMM: Accelerating Small Matrix Multiplications
 by Runtime Code Generation.
 https://doi.org/10.1109/SC.2016.83

 Borstnik, U; VandeVondele, J; Weber, V; Hutter, J. 
 PARALLEL COMPUTING, 40 (5-6), 47-58 (2014). 
 Sparse matrix multiplication: The distributed block-compressed sparse
 row library.
 https://doi.org/10.1016/j.parco.2014.03.012

 Hutter, J; Iannuzzi, M; Schiffmann, F; VandeVondele, J. 
 WIREs Comput Mol Sci., 4 (1), 15-25 (2014). 
 CP2K: atomistic simulations of condensed matter systems.
 https://doi.org/10.1002/wcms.1159

 Krack, M. 
 THEORETICAL CHEMISTRY ACCOUNTS, 114 (1-3), 145-152 (2005). 
 Pseudopotentials for H to Kr optimized for gradient-corrected
 exchange-correlation functionals.
 https://doi.org/10.1007/s00214-005-0655-y

 VandeVondele, J; Krack, M; Mohamed, F; Parrinello, M; Chassaing, T;
 Hutter, J. COMPUTER PHYSICS COMMUNICATIONS, 167 (2), 103-128 (2005). 
 QUICKSTEP: Fast and accurate density functional calculations using a
 mixed Gaussian and plane waves approach.
 https://doi.org/10.1016/j.cpc.2004.12.014

 Frigo, M; Johnson, SG. 
 PROCEEDINGS OF THE IEEE, 93 (2), 216-231 (2005). 
 The design and implementation of FFTW3.
 https://doi.org/10.1109/JPROC.2004.840301

 VandeVondele, J; Hutter, J. 
 JOURNAL OF CHEMICAL PHYSICS, 118 (10), 4365-4369 (2003). 
 An efficient orbital transformation method for electronic structure
 calculations.
 https://doi.org/10.1063/1.1543154

 Hartwigsen, C; Goedecker, S; Hutter, J. 
 PHYSICAL REVIEW B, 58 (7), 3641-3662 (1998). 
 Relativistic separable dual-space Gaussian pseudopotentials from H to Rn.
 https://doi.org/10.1103/PhysRevB.58.3641

 Lippert, G; Hutter, J; Parrinello, M. 
 MOLECULAR PHYSICS, 92 (3), 477-487 (1997). 
 A hybrid Gaussian and plane wave density functional scheme.
 https://doi.org/10.1080/002689797170220

 Perdew, JP; Burke, K; Ernzerhof, M. 
 PHYSICAL REVIEW LETTERS, 77 (18), 3865-3868 (1996). 
 Generalized gradient approximation made simple.
 https://doi.org/10.1103/PhysRevLett.77.3865

 Goedecker, S; Teter, M; Hutter, J. 
 PHYSICAL REVIEW B, 54 (3), 1703-1710 (1996). 
 Separable dual-space Gaussian pseudopotentials.
 https://doi.org/10.1103/PhysRevB.54.1703


 -------------------------------------------------------------------------------
 -                                                                             -
 -                                T I M I N G                                  -
 -                                                                             -
 -------------------------------------------------------------------------------
 SUBROUTINE                       CALLS  ASD         SELF TIME        TOTAL TIME
                                MAXIMUM       AVERAGE  MAXIMUM  AVERAGE  MAXIMUM
 CP2K                                 1  1.0    0.007    0.026    9.859    9.860
 qs_energies                          1  2.0    0.000    0.000    9.622    9.622
 scf_env_do_scf                       1  3.0    0.000    0.000    9.325    9.325
 scf_env_do_scf_inner_loop           16  4.0    0.001    0.002    8.348    8.349
 qs_ks_update_qs_env                 18  5.0    0.000    0.000    7.061    7.073
 rebuild_ks_matrix                   16  6.0    0.000    0.000    7.057    7.069
 qs_ks_build_kohn_sham_matrix        16  7.0    0.003    0.004    7.057    7.069
 pw_transfer                        310  9.6    0.027    0.034    5.432    6.297
 fft_wrap_pw1pw2                    278 10.7    0.003    0.004    5.372    6.239
 fft_wrap_pw1pw2_300                179 11.8    0.217    0.236    5.132    6.006
 fft3d_ps                           278 12.7    1.867    2.120    4.387    5.424
 qs_vxc_create                       16  8.0    0.000    0.001    5.096    5.122
 xc_vxc_pw_create                    16  9.0    0.041    0.044    5.095    5.122
 mp_alltoall_z22v                   278 14.7    2.108    3.307    2.108    3.307
 xc_rho_set_and_dset_create          16 10.0    0.017    0.019    2.680    3.225
 yz_to_x                            133 13.1    0.166    0.221    1.464    2.455
 qs_rho_update_rho                   17  5.0    0.000    0.000    1.889    1.889
 calculate_rho_elec                  17  6.0    0.018    0.019    1.889    1.889
 xc_functional_eval                  16 11.0    0.000    0.000    1.292    1.839
 pbe_lda_eval                        16 12.0    1.292    1.838    1.292    1.838
 density_rs2pw                       17  7.0    0.001    0.001    1.544    1.612
 rs_pw_transfer                     133  9.4    0.002    0.003    1.383    1.476
 sum_up_and_integrate                16  8.0    0.009    0.010    1.378    1.384
 integrate_v_rspace                  16  9.0    0.000    0.001    1.368    1.375
 potential_pw2rs                     16 10.0    0.001    0.002    1.254    1.256
 x_to_yz                            145 14.2    0.236    0.280    1.047    1.220
 init_scf_loop                        2  4.0    0.000    0.000    0.976    0.976
 mp_waitall_1                     22819 13.9    0.419    0.537    0.419    0.537
 rs_pw_transfer_RS2PW_300            18  8.9    0.201    0.225    0.446    0.533
 pw_scatter_p                       145 13.2    0.403    0.450    0.403    0.450
 mp_waitany                         952 11.4    0.314    0.447    0.314    0.447
 pw_gather_p                        133 12.1    0.352    0.430    0.352    0.430
 dbcsr_multiply_generic             365 10.0    0.011    0.011    0.382    0.392
 qs_scf_new_mos                      16  5.0    0.000    0.000    0.373    0.376
 qs_scf_loop_do_ot                   16  6.0    0.000    0.000    0.373    0.376
 rs_pw_transfer_PW2RS_300            16 12.0    0.187    0.206    0.352    0.374
 ot_scf_mini                         16  7.0    0.000    0.000    0.357    0.360
 rs_pw_transfer_PW2RS_100            16 12.0    0.051    0.061    0.286    0.310
 grid_collocate_task_list            17  7.0    0.234    0.259    0.234    0.259
 ot_mini                             16  8.0    0.000    0.000    0.239    0.242
 fft_wrap_pw1pw2_100                 33 11.5    0.008    0.009    0.181    0.232
 multiply_cannon                    365 11.0    0.025    0.026    0.170    0.206
 -------------------------------------------------------------------------------

 The number of warnings for this run is : 1
 
 -------------------------------------------------------------------------------
  **** **** ******  **  PROGRAM ENDED AT                 2021-05-18 14:42:19.207
 ***** ** ***  *** **   PROGRAM RAN ON                                   tcopt10
 **    ****   ******    PROGRAM RAN BY                                    hutter
 ***** **    ** ** **   PROGRAM PROCESS ID                                 23165
  **** **  *******  **  PROGRAM STOPPED IN            /data/hutter/run/delta/new
