 DBCSR| CPU Multiplication driver                                           XSMM
 DBCSR| Multrec recursion limit                                              512
 DBCSR| Multiplication stack size                                           1000
 DBCSR| Maximum elements for images                                    UNLIMITED
 DBCSR| Multiplicative factor virtual images                                   1
 DBCSR| Use multiplication densification                                       T
 DBCSR| Multiplication size stacks                                             3
 DBCSR| Use memory pool for CPU allocation                                     F
 DBCSR| Number of 3D layers                                               SINGLE
 DBCSR| Use MPI memory allocation                                              F
 DBCSR| Use RMA algorithm                                                      F
 DBCSR| Use Communication thread                                               T
 DBCSR| Communication thread load                                             87
 DBCSR| MPI: My node id                                                        0
 DBCSR| MPI: Number of nodes                                                  24
 DBCSR| OMP: Current number of threads                                         1
 DBCSR| OMP: Max number of threads                                             1
 DBCSR| Split modifier for TAS multiplication algorithm                  1.0E+00


  **** **** ******  **  PROGRAM STARTED AT               2021-05-18 14:33:17.927
 ***** ** ***  *** **   PROGRAM STARTED ON                               tcopt10
 **    ****   ******    PROGRAM STARTED BY                                hutter
 ***** **    ** ** **   PROGRAM PROCESS ID                                 18687
  **** **  *******  **  PROGRAM STARTED IN            /data/hutter/run/delta/new

 CP2K| version string:                    CP2K version 9.0 (Development Version)
 CP2K| source code revision number:                                  git:4b756b0
 CP2K| cp2kflags: omp libint fftw3 libxc elpa parallel mpi3 scalapack xsmm spgli
 CP2K|            b sirius libvori libbqb
 CP2K| is freely available from                            https://www.cp2k.org/
 CP2K| Program compiled at                         Wed May  5 15:51:41 CEST 2021
 CP2K| Program compiled on                                               tcopt10
 CP2K| Program compiled for                                                local
 CP2K| Data directory path                 /data/hutter/GITHUB/CURRENT/cp2k/data
 CP2K| Input file name                                                F2-ref.inp

 GLOBAL| Force Environment number                                              1
 GLOBAL| Basis set file name                                      ../PBE_UCBASIS
 GLOBAL| Potential file name                                        ../POTENTIAL
 GLOBAL| MM Potential file name                                     MM_POTENTIAL
 GLOBAL| Coordinate file name                                      __STD_INPUT__
 GLOBAL| Method name                                                        CP2K
 GLOBAL| Project name                                                      refF2
 GLOBAL| Preferred FFT library                                             FFTW3
 GLOBAL| Preferred diagonalization lib.                                       SL
 GLOBAL| Run type                                                         ENERGY
 GLOBAL| All-to-all communication in single precision                          F
 GLOBAL| FFTs using library dependent lengths                                  F
 GLOBAL| Grid backend                                                       AUTO
 GLOBAL| Global print level                                                  LOW
 GLOBAL| MPI I/O enabled                                                       T
 GLOBAL| Total number of message passing processes                            24
 GLOBAL| Number of threads for this process                                    1
 GLOBAL| This output is from process                                           0
 GLOBAL| CPU model name                          AMD EPYC 7401 24-Core Processor
 GLOBAL| CPUID                                                              1002

 MEMORY| system memory details [Kb]
 MEMORY|                        rank 0           min           max       average
 MEMORY| MemTotal            263969868     263969868     263969868     263969868
 MEMORY| MemFree             218566356     218566356     218566356     218566356
 MEMORY| Buffers                    36            36            36            36
 MEMORY| Cached               37777388      37777388      37777388      37777388
 MEMORY| Slab                  3028168       3028168       3028168       3028168
 MEMORY| SReclaimable          1718852       1718852       1718852       1718852
 MEMORY| MemLikelyFree       258062632     258062632     258062632     258062632


 GENERATE|  Preliminary Number of Bonds generated:                             1
 GENERATE|  Achieved consistency in connectivity generation.
 GENERATE|  Number of Bonds generated:                                         1
 GENERATE|  Preliminary Number of Bends generated:                             0
 GENERATE|  Preliminary Number of Torsions generated:                          0

 *******************************************************************************
 *******************************************************************************
 **                                                                           **
 **     #####                         ##              ##                      **
 **    ##   ##            ##          ##              ##                      **
 **   ##     ##                       ##            ######                    **
 **   ##     ##  ##   ##  ##   #####  ##  ##   ####   ##    #####    #####    **
 **   ##     ##  ##   ##  ##  ##      ## ##   ##      ##   ##   ##  ##   ##   **
 **   ##  ## ##  ##   ##  ##  ##      ####     ###    ##   ######   ######    **
 **    ##  ###   ##   ##  ##  ##      ## ##      ##   ##   ##       ##        **
 **     #######   #####   ##   #####  ##  ##  ####    ##    #####   ##        **
 **           ##                                                    ##        **
 **                                                                           **
 **                                                ... make the atoms dance   **
 **                                                                           **
 **            Copyright (C) by CP2K developers group (2000-2021)             **
 **                      J. Chem. Phys. 152, 194103 (2020)                    **
 **                                                                           **
 *******************************************************************************


 TOTAL NUMBERS AND MAXIMUM NUMBERS

  Total number of            - Atomic kinds:                                   1
                             - Atoms:                                          2
                             - Shell sets:                                     4
                             - Shells:                                        56
                             - Primitive Cartesian functions:                 24
                             - Cartesian basis functions:                    312
                             - Spherical basis functions:                    232

  Maximum angular momentum of- Orbital basis functions:                        4
                             - Local part of the GTH pseudopotential:          2
                             - Non-local part of the GTH pseudopotential:      0


 SCF PARAMETERS         Density guess:                                    ATOMIC
                        --------------------------------------------------------
                        max_scf:                                              10
                        max_scf_history:                                       0
                        max_diis:                                              4
                        --------------------------------------------------------
                        eps_scf:                                        1.00E-07
                        eps_scf_history:                                0.00E+00
                        eps_diis:                                       1.00E-01
                        eps_eigval:                                     1.00E-05
                        --------------------------------------------------------
                        level_shift [a.u.]:                                 0.00
                        --------------------------------------------------------
                        Outer loop SCF in use 
                        No variables optimised in outer loop
                        eps_scf                                         1.00E-07
                        max_scf                                               10
                        No outer loop optimization
                        step_size                                       5.00E-01

 Number of electrons:                                                         14
 Number of occupied orbitals:                                                  7
 Number of molecular orbitals:                                                 7

 Number of orbital functions:                                                232
 Number of independent orbital functions:                                    232

 Extrapolation method: initial_guess


 SCF WAVEFUNCTION OPTIMIZATION

  ----------------------------------- OT ---------------------------------------
  Minimizer      : DIIS                : direct inversion
                                         in the iterative subspace
                                         using   7 DIIS vectors
                                         safer DIIS on
  Preconditioner : FULL_ALL            : diagonalization, state selective
  Precond_solver : DEFAULT
  stepsize       :    0.15000000                  energy_gap     :    0.08000000
  eps_taylor     :   0.10000E-15                  max_taylor     :             4
  ----------------------------------- OT ---------------------------------------

  Step     Update method      Time    Convergence         Total energy    Change
  ------------------------------------------------------------------------------
     1 OT DIIS     0.15E+00    0.5     0.13092671       -47.0816066304 -4.71E+01
     2 OT DIIS     0.15E+00    0.6     0.16550099       -46.5410893542  5.41E-01
     3 OT DIIS     0.15E+00    0.6     0.07396480       -46.8198268845 -2.79E-01
     4 OT DIIS     0.15E+00    0.5     0.06622343       -47.2903105427 -4.70E-01
     5 OT DIIS     0.15E+00    0.6     0.06191097       -47.3146040342 -2.43E-02
     6 OT DIIS     0.15E+00    0.5     0.06278643       -47.3243366110 -9.73E-03
     7 OT SD       0.15E+00    0.6     0.06230706       -47.3712919821 -4.70E-02
     8 OT DIIS     0.15E+00    0.5     0.10980444       -47.0133269128  3.58E-01
     9 OT DIIS     0.15E+00    0.6     0.05906892       -47.6147075099 -6.01E-01
    10 OT DIIS     0.15E+00    0.6     0.05552780       -47.6687749761 -5.41E-02

  Leaving inner SCF loop after reaching    10 steps.


  Electronic density on regular grids:        -14.0000000063       -0.0000000063
  Core density on regular grids:               14.0000000000       -0.0000000000
  Total charge density on r-space grids:       -0.0000000063
  Total charge density g-space grids:          -0.0000000063

  Overlap energy of the core charge distribution:               0.00000000000000
  Self energy of the core charge distribution:               -128.70655838342708
  Core Hamiltonian energy:                                     36.31078007759518
  Hartree energy:                                              53.76182539498507
  Exchange-correlation energy:                                 -9.03482206525360

  Total energy:                                               -47.66877497610042

  outer SCF iter =    1 RMS gradient =   0.56E-01 energy =        -47.6687749761

  ----------------------------------- OT ---------------------------------------
  Minimizer      : DIIS                : direct inversion
                                         in the iterative subspace
                                         using   7 DIIS vectors
                                         safer DIIS on
  Preconditioner : FULL_ALL            : diagonalization, state selective
  Precond_solver : DEFAULT
  stepsize       :    0.15000000                  energy_gap     :    0.08000000
  eps_taylor     :   0.10000E-15                  max_taylor     :             4
  ----------------------------------- OT ---------------------------------------

  Step     Update method      Time    Convergence         Total energy    Change
  ------------------------------------------------------------------------------
     1 OT DIIS     0.15E+00    1.1     0.06017810       -47.6810460357 -1.23E-02
     2 OT DIIS     0.15E+00    0.5     0.08774850       -47.9510527876 -2.70E-01
     3 OT DIIS     0.15E+00    0.6     0.07924713       -48.1097441608 -1.59E-01
     4 OT DIIS     0.15E+00    0.5     0.02206808       -48.2835849260 -1.74E-01
     5 OT DIIS     0.15E+00    0.5     0.02723162       -48.3019011966 -1.83E-02
     6 OT DIIS     0.15E+00    0.6     0.02500557       -48.2975710472  4.33E-03
     7 OT DIIS     0.15E+00    0.6     0.00473762       -48.3252437484 -2.77E-02
     8 OT DIIS     0.15E+00    0.6     0.00773338       -48.3256706378 -4.27E-04
     9 OT DIIS     0.15E+00    0.6     0.00222024       -48.3285261951 -2.86E-03
    10 OT DIIS     0.15E+00    0.5     0.00062042       -48.3286855407 -1.59E-04

  Leaving inner SCF loop after reaching    10 steps.


  Electronic density on regular grids:        -14.0000000342       -0.0000000342
  Core density on regular grids:               14.0000000000       -0.0000000000
  Total charge density on r-space grids:       -0.0000000342
  Total charge density g-space grids:          -0.0000000342

  Overlap energy of the core charge distribution:               0.00000000000000
  Self energy of the core charge distribution:               -128.70655838342708
  Core Hamiltonian energy:                                     35.80102387167729
  Hartree energy:                                              53.72920079081609
  Exchange-correlation energy:                                 -9.15235181977669

  Total energy:                                               -48.32868554071039

  outer SCF iter =    2 RMS gradient =   0.62E-03 energy =        -48.3286855407

  ----------------------------------- OT ---------------------------------------
  Minimizer      : DIIS                : direct inversion
                                         in the iterative subspace
                                         using   7 DIIS vectors
                                         safer DIIS on
  Preconditioner : FULL_ALL            : diagonalization, state selective
  Precond_solver : DEFAULT
  stepsize       :    0.15000000                  energy_gap     :    0.08000000
  eps_taylor     :   0.10000E-15                  max_taylor     :             4
  ----------------------------------- OT ---------------------------------------

  Step     Update method      Time    Convergence         Total energy    Change
  ------------------------------------------------------------------------------
     1 OT DIIS     0.15E+00    1.1     0.00010072       -48.3287016972 -1.62E-05
     2 OT DIIS     0.15E+00    0.6     0.00010330       -48.3287025457 -8.49E-07
     3 OT DIIS     0.15E+00    0.6     0.00003848       -48.3287030435 -4.98E-07
     4 OT DIIS     0.15E+00    0.5     0.00000149       -48.3287031915 -1.48E-07
     5 OT DIIS     0.15E+00    0.5     0.00000027       -48.3287031919 -3.86E-10
     6 OT DIIS     0.15E+00    0.6     0.00000008       -48.3287031919 -1.22E-11

  *** SCF run converged in     6 steps ***


  Electronic density on regular grids:        -14.0000000344       -0.0000000344
  Core density on regular grids:               14.0000000000       -0.0000000000
  Total charge density on r-space grids:       -0.0000000344
  Total charge density g-space grids:          -0.0000000344

  Overlap energy of the core charge distribution:               0.00000000000000
  Self energy of the core charge distribution:               -128.70655838342708
  Core Hamiltonian energy:                                     35.80353386138933
  Hartree energy:                                              53.72692830260930
  Exchange-correlation energy:                                 -9.15260697245698

  Total energy:                                               -48.32870319188544

  outer SCF iter =    3 RMS gradient =   0.81E-07 energy =        -48.3287031919
  outer SCF loop converged in   3 iterations or   26 steps


 ENERGY| Total FORCE_EVAL ( QS ) energy [a.u.]:              -48.328703191885438

 -------------------------------------------------------------------------------
 -                                                                             -
 -                                DBCSR STATISTICS                             -
 -                                                                             -
 -------------------------------------------------------------------------------
 COUNTER                                    TOTAL       BLAS       SMM       ACC
 flops     7 x     7 x     7               119364       0.0%    100.0%      0.0%
 flops     7 x     7 x   116              2432752       0.0%    100.0%      0.0%
 flops   232 x     7 x     7              3023888       0.0%    100.0%      0.0%
 flops   116 x   116 x     7             15259104       0.0%    100.0%      0.0%
 flops   232 x     7 x   116             43705088       0.0%    100.0%      0.0%
 flops   116 x     7 x   116             54254592       0.0%    100.0%      0.0%
 flops inhomo. stacks                           0       0.0%      0.0%      0.0%
 flops total                       118.794788E+06       0.0%    100.0%      0.0%
 flops max/rank                    118.794788E+06       0.0%    100.0%      0.0%
 matmuls inhomo. stacks                         0       0.0%      0.0%      0.0%
 matmuls total                               1006       0.0%    100.0%      0.0%
 number of processed stacks                   808       0.0%    100.0%      0.0%
 average stack size                                     0.0       1.2       0.0
 marketing flops                   123.949272E+06
 -------------------------------------------------------------------------------
 # multiplications                            574
 max memory usage/rank             334.229504E+06
 # max total images/rank                        3
 # max 3D layers                                1
 # MPI messages exchanged                  261744
 MPI messages size (bytes):
  total size                       308.220864E+06
  min size                           0.000000E+00
  max size                         215.296000E+03
  average size                       1.177566E+03
 MPI breakdown and total messages size (bytes):
             size <=      128              255280                        0
       128 < size <=     8192                4283                 16890104
      8192 < size <=    32768                 881                 11445952
     32768 < size <=   131072                   0                        0
    131072 < size <=  4194304                1300                279884800
   4194304 < size <= 16777216                   0                        0
  16777216 < size                               0                        0
 -------------------------------------------------------------------------------

 *** WARNING in dbcsr_mm.F:294 :: Using a non-square number of MPI ranks ***
 *** might lead to poor performance. Used ranks: 24 Suggested: 25 49     ***

 -------------------------------------------------------------------------------
 -                                                                             -
 -                      DBCSR MESSAGE PASSING PERFORMANCE                      -
 -                                                                             -
 -------------------------------------------------------------------------------
 ROUTINE             CALLS      AVE VOLUME [Bytes]
 MP_Bcast                7                     12.
 MP_Allreduce         3030                      8.
 MP_Alltoall          2404                   8264.
 MP_ISend            24096                   2678.
 MP_IRecv            24096                     60.
 -------------------------------------------------------------------------------

 -------------------------------------------------------------------------------
 -                                                                             -
 -                                GRID STATISTICS                              -
 -                                                                             -
 -------------------------------------------------------------------------------
 LP    KERNEL             BACKEND                              COUNT     PERCENT
 2     collocate ortho    REF                                   5427      23.07%
 5     collocate ortho    REF                                   5238      22.26%
 2     integrate ortho    REF                                   5226      22.21%
 5     integrate ortho    REF                                   5044      21.44%
 8     collocate ortho    REF                                   1296       5.51%
 8     integrate ortho    REF                                   1248       5.30%
 0     collocate general  REF                                     48       0.20%
 -------------------------------------------------------------------------------

 MEMORY| Estimated peak process memory [MiB]                                 320

 -------------------------------------------------------------------------------
 -                                                                             -
 -                         MESSAGE PASSING PERFORMANCE                         -
 -                                                                             -
 -------------------------------------------------------------------------------

 ROUTINE             CALLS      AVE VOLUME [Bytes]
 MP_Group                4
 MP_Bcast              284                 404576.
 MP_Allreduce         1083                    566.
 MP_Sync                33
 MP_Alltoall           513                9767816.
 MP_ISendRecv         3657                 191232.
 MP_Wait              5331
 MP_comm_split          29
 MP_ISend             1512                 429909.
 MP_IRecv             1512                 430080.
 MP_Recv                 6                   3712.
 -------------------------------------------------------------------------------


 -------------------------------------------------------------------------------
 -                                                                             -
 -                           R E F E R E N C E S                               -
 -                                                                             -
 -------------------------------------------------------------------------------
 
 CP2K version 9.0 (Development Version), the CP2K developers group (2020).
 CP2K is freely available from https://www.cp2k.org/ .

 Kuehne,Thomas D.; Iannuzzi,Marcella; Del Ben,Mauro;
 Rybkin,Vladimir V.; Seewald,Patrick; Stein,Frederick; Laino,Teodoro;
 Khaliullin,Rustam Z.; Schuett,Ole; Schiffmann,Florian; Golze,Dorothea;
 Wilhelm,Jan; Chulkov,Sergey; Bani-Hashemian,Mohammad Hossein;
 Weber,Valery; Borstnik,Urban; Taillefumier,Mathieu;
 Jakobovits,Alice Shoshana; Lazzaro,Alfio; Pabst,Hans; Mueller,Tiziano;
 Schade,Robert; Guidon,Manuel; Andermatt,Samuel; Holmberg,Nico;
 Schenter,Gregory K.; Hehn,Anna; Bussy,Augustin; Belleflamme,Fabian;
 Tabacchi,Gloria; Gloess,Andreas; Lass,Michael; Bethune,Iain;
 Mundy,Christopher J.; Plessl,Christian; Watkins,Matt;
 VandeVondele,Joost; Krack,Matthias; Hutter,Juerg. 
 The Journal of Chemical Physics, 152 (19), (2020). 
 CP2K: An electronic structure and molecular dynamics software package -
 Quickstep: Efficient and accurate electronic structure calculations.
 https://doi.org/10.1063/5.0007045

 Schuett, Ole; Messmer, Peter; Hutter, Juerg; VandeVondele, Joost. 
 Electronic Structure Calculations on Graphics Processing Units, John
 Wiley & Sons, Ltd, 173-190 (2016). 
 GPU-Accelerated Sparse Matrix-Matrix Multiplication for
 Linear Scaling Density Functional Theory.
 https://doi.org/10.1002/9781118670712.ch8

 Heinecke, A; Henry, G; Hutchinson, M; Pabst, H. 
 Proceedings of Intl. Supercomputing Conference, 981-991 (2016). 
 LIBXSMM: Accelerating Small Matrix Multiplications
 by Runtime Code Generation.
 https://doi.org/10.1109/SC.2016.83

 Borstnik, U; VandeVondele, J; Weber, V; Hutter, J. 
 PARALLEL COMPUTING, 40 (5-6), 47-58 (2014). 
 Sparse matrix multiplication: The distributed block-compressed sparse
 row library.
 https://doi.org/10.1016/j.parco.2014.03.012

 Hutter, J; Iannuzzi, M; Schiffmann, F; VandeVondele, J. 
 WIREs Comput Mol Sci., 4 (1), 15-25 (2014). 
 CP2K: atomistic simulations of condensed matter systems.
 https://doi.org/10.1002/wcms.1159

 Krack, M. 
 THEORETICAL CHEMISTRY ACCOUNTS, 114 (1-3), 145-152 (2005). 
 Pseudopotentials for H to Kr optimized for gradient-corrected
 exchange-correlation functionals.
 https://doi.org/10.1007/s00214-005-0655-y

 VandeVondele, J; Krack, M; Mohamed, F; Parrinello, M; Chassaing, T;
 Hutter, J. COMPUTER PHYSICS COMMUNICATIONS, 167 (2), 103-128 (2005). 
 QUICKSTEP: Fast and accurate density functional calculations using a
 mixed Gaussian and plane waves approach.
 https://doi.org/10.1016/j.cpc.2004.12.014

 Frigo, M; Johnson, SG. 
 PROCEEDINGS OF THE IEEE, 93 (2), 216-231 (2005). 
 The design and implementation of FFTW3.
 https://doi.org/10.1109/JPROC.2004.840301

 VandeVondele, J; Hutter, J. 
 JOURNAL OF CHEMICAL PHYSICS, 118 (10), 4365-4369 (2003). 
 An efficient orbital transformation method for electronic structure
 calculations.
 https://doi.org/10.1063/1.1543154

 Hartwigsen, C; Goedecker, S; Hutter, J. 
 PHYSICAL REVIEW B, 58 (7), 3641-3662 (1998). 
 Relativistic separable dual-space Gaussian pseudopotentials from H to Rn.
 https://doi.org/10.1103/PhysRevB.58.3641

 Lippert, G; Hutter, J; Parrinello, M. 
 MOLECULAR PHYSICS, 92 (3), 477-487 (1997). 
 A hybrid Gaussian and plane wave density functional scheme.
 https://doi.org/10.1080/002689797170220

 Perdew, JP; Burke, K; Ernzerhof, M. 
 PHYSICAL REVIEW LETTERS, 77 (18), 3865-3868 (1996). 
 Generalized gradient approximation made simple.
 https://doi.org/10.1103/PhysRevLett.77.3865

 Goedecker, S; Teter, M; Hutter, J. 
 PHYSICAL REVIEW B, 54 (3), 1703-1710 (1996). 
 Separable dual-space Gaussian pseudopotentials.
 https://doi.org/10.1103/PhysRevB.54.1703


 -------------------------------------------------------------------------------
 -                                                                             -
 -                                T I M I N G                                  -
 -                                                                             -
 -------------------------------------------------------------------------------
 SUBROUTINE                       CALLS  ASD         SELF TIME        TOTAL TIME
                                MAXIMUM       AVERAGE  MAXIMUM  AVERAGE  MAXIMUM
 CP2K                                 1  1.0    0.008    0.025   14.900   14.902
 qs_energies                          1  2.0    0.000    0.000   14.747   14.749
 scf_env_do_scf                       1  3.0    0.000    0.000   14.522   14.524
 scf_env_do_scf_inner_loop           26  4.0    0.001    0.003   13.136   13.138
 qs_ks_update_qs_env                 29  5.0    0.000    0.000   10.841   10.862
 rebuild_ks_matrix                   26  6.0    0.000    0.000   10.833   10.853
 qs_ks_build_kohn_sham_matrix        26  7.0    0.005    0.005   10.833   10.853
 pw_transfer                        500  9.6    0.044    0.052    8.980   10.170
 fft_wrap_pw1pw2                    448 10.7    0.005    0.007    8.883   10.072
 fft_wrap_pw1pw2_300                289 11.8    0.347    0.380    8.523    9.751
 fft3d_ps                           448 12.7    3.021    3.304    7.292    8.726
 qs_vxc_create                       26  8.0    0.001    0.001    7.614    7.656
 xc_vxc_pw_create                    26  9.0    0.062    0.067    7.613    7.656
 mp_alltoall_z22v                   448 14.7    3.613    5.333    3.613    5.333
 xc_rho_set_and_dset_create          26 10.0    0.028    0.031    3.614    4.656
 yz_to_x                            213 13.1    0.266    0.344    2.479    3.813
 qs_rho_update_rho                   27  5.0    0.000    0.000    3.002    3.003
 calculate_rho_elec                  27  6.0    0.029    0.032    3.001    3.003
 density_rs2pw                       27  7.0    0.001    0.002    2.470    2.577
 xc_functional_eval                  26 11.0    0.000    0.000    1.258    2.289
 pbe_lda_eval                        26 12.0    1.258    2.289    1.258    2.289
 sum_up_and_integrate                26  8.0    0.014    0.015    2.247    2.257
 integrate_v_rspace                  26  9.0    0.001    0.001    2.234    2.244
 rs_pw_transfer                     213  9.5    0.004    0.005    2.045    2.172
 x_to_yz                            235 14.2    0.380    0.448    1.780    2.048
 potential_pw2rs                     26 10.0    0.002    0.003    1.983    1.986
 init_scf_loop                        3  4.0    0.000    0.000    1.385    1.385
 mp_waitall_1                     35963 13.9    0.662    0.776    0.662    0.776
 pw_scatter_p                       235 13.2    0.656    0.707    0.656    0.707
 rs_pw_transfer_RS2PW_300            28  8.9    0.294    0.345    0.582    0.704
 pw_gather_p                        213 12.1    0.566    0.664    0.566    0.664
 dbcsr_multiply_generic             574 10.0    0.017    0.018    0.612    0.628
 qs_scf_new_mos                      26  5.0    0.000    0.000    0.616    0.620
 qs_scf_loop_do_ot                   26  6.0    0.000    0.000    0.616    0.620
 ot_scf_mini                         26  7.0    0.000    0.000    0.590    0.595
 rs_pw_transfer_PW2RS_300            26 12.0    0.280    0.307    0.531    0.563
 mp_waitany                        1512 11.4    0.400    0.527    0.400    0.527
 rs_pw_transfer_PW2RS_100            26 12.0    0.080    0.086    0.456    0.519
 grid_collocate_task_list            27  7.0    0.334    0.476    0.334    0.476
 ot_mini                             26  8.0    0.000    0.000    0.378    0.383
 fft_wrap_pw1pw2_100                 53 11.5    0.013    0.014    0.271    0.357
 mp_sum_d                           955  6.6    0.238    0.340    0.238    0.340
 multiply_cannon                    574 11.0    0.040    0.042    0.272    0.337
 mp_alltoall_d11v                   641 11.5    0.236    0.310    0.236    0.310
 -------------------------------------------------------------------------------

 The number of warnings for this run is : 1
 
 -------------------------------------------------------------------------------
  **** **** ******  **  PROGRAM ENDED AT                 2021-05-18 14:33:33.445
 ***** ** ***  *** **   PROGRAM RAN ON                                   tcopt10
 **    ****   ******    PROGRAM RAN BY                                    hutter
 ***** **    ** ** **   PROGRAM PROCESS ID                                 18687
  **** **  *******  **  PROGRAM STOPPED IN            /data/hutter/run/delta/new
