 DBCSR| CPU Multiplication driver                                           XSMM
 DBCSR| Multrec recursion limit                                              512
 DBCSR| Multiplication stack size                                           1000
 DBCSR| Maximum elements for images                                    UNLIMITED
 DBCSR| Multiplicative factor virtual images                                   1
 DBCSR| Use multiplication densification                                       T
 DBCSR| Multiplication size stacks                                             3
 DBCSR| Use memory pool for CPU allocation                                     F
 DBCSR| Number of 3D layers                                               SINGLE
 DBCSR| Use MPI memory allocation                                              F
 DBCSR| Use RMA algorithm                                                      F
 DBCSR| Use Communication thread                                               T
 DBCSR| Communication thread load                                             87
 DBCSR| MPI: My node id                                                        0
 DBCSR| MPI: Number of nodes                                                  24
 DBCSR| OMP: Current number of threads                                         1
 DBCSR| OMP: Max number of threads                                             1
 DBCSR| Split modifier for TAS multiplication algorithm                  1.0E+00


  **** **** ******  **  PROGRAM STARTED AT               2021-05-18 14:34:46.123
 ***** ** ***  *** **   PROGRAM STARTED ON                               tcopt10
 **    ****   ******    PROGRAM STARTED BY                                hutter
 ***** **    ** ** **   PROGRAM PROCESS ID                                 19404
  **** **  *******  **  PROGRAM STARTED IN            /data/hutter/run/delta/new

 CP2K| version string:                    CP2K version 9.0 (Development Version)
 CP2K| source code revision number:                                  git:4b756b0
 CP2K| cp2kflags: omp libint fftw3 libxc elpa parallel mpi3 scalapack xsmm spgli
 CP2K|            b sirius libvori libbqb
 CP2K| is freely available from                            https://www.cp2k.org/
 CP2K| Program compiled at                         Wed May  5 15:51:41 CEST 2021
 CP2K| Program compiled on                                               tcopt10
 CP2K| Program compiled for                                                local
 CP2K| Data directory path                 /data/hutter/GITHUB/CURRENT/cp2k/data
 CP2K| Input file name                                             H2CO3-ref.inp

 GLOBAL| Force Environment number                                              1
 GLOBAL| Basis set file name                                      ../PBE_UCBASIS
 GLOBAL| Potential file name                                        ../POTENTIAL
 GLOBAL| MM Potential file name                                     MM_POTENTIAL
 GLOBAL| Coordinate file name                                      __STD_INPUT__
 GLOBAL| Method name                                                        CP2K
 GLOBAL| Project name                                                   refH2CO3
 GLOBAL| Preferred FFT library                                             FFTW3
 GLOBAL| Preferred diagonalization lib.                                       SL
 GLOBAL| Run type                                                         ENERGY
 GLOBAL| All-to-all communication in single precision                          F
 GLOBAL| FFTs using library dependent lengths                                  F
 GLOBAL| Grid backend                                                       AUTO
 GLOBAL| Global print level                                                  LOW
 GLOBAL| MPI I/O enabled                                                       T
 GLOBAL| Total number of message passing processes                            24
 GLOBAL| Number of threads for this process                                    1
 GLOBAL| This output is from process                                           0
 GLOBAL| CPU model name                          AMD EPYC 7401 24-Core Processor
 GLOBAL| CPUID                                                              1002

 MEMORY| system memory details [Kb]
 MEMORY|                        rank 0           min           max       average
 MEMORY| MemTotal            263969868     263969868     263969868     263969868
 MEMORY| MemFree             218550648     218550648     218550648     218550648
 MEMORY| Buffers                    36            36            36            36
 MEMORY| Cached               37778372      37778372      37778372      37778372
 MEMORY| Slab                  3028156       3028156       3028156       3028156
 MEMORY| SReclaimable          1718684       1718684       1718684       1718684
 MEMORY| MemLikelyFree       258047740     258047740     258047740     258047740


 GENERATE|  Preliminary Number of Bonds generated:                             0
 GENERATE|  Achieved consistency in connectivity generation.

 *******************************************************************************
 *******************************************************************************
 **                                                                           **
 **     #####                         ##              ##                      **
 **    ##   ##            ##          ##              ##                      **
 **   ##     ##                       ##            ######                    **
 **   ##     ##  ##   ##  ##   #####  ##  ##   ####   ##    #####    #####    **
 **   ##     ##  ##   ##  ##  ##      ## ##   ##      ##   ##   ##  ##   ##   **
 **   ##  ## ##  ##   ##  ##  ##      ####     ###    ##   ######   ######    **
 **    ##  ###   ##   ##  ##  ##      ## ##      ##   ##   ##       ##        **
 **     #######   #####   ##   #####  ##  ##  ####    ##    #####   ##        **
 **           ##                                                    ##        **
 **                                                                           **
 **                                                ... make the atoms dance   **
 **                                                                           **
 **            Copyright (C) by CP2K developers group (2000-2021)             **
 **                      J. Chem. Phys. 152, 194103 (2020)                    **
 **                                                                           **
 *******************************************************************************


 TOTAL NUMBERS AND MAXIMUM NUMBERS

  Total number of            - Atomic kinds:                                   3
                             - Atoms:                                          6
                             - Shell sets:                                    12
                             - Shells:                                       152
                             - Primitive Cartesian functions:                 72
                             - Cartesian basis functions:                    792
                             - Spherical basis functions:                    600

  Maximum angular momentum of- Orbital basis functions:                        4
                             - Local part of the GTH pseudopotential:          2
                             - Non-local part of the GTH pseudopotential:      0


 SCF PARAMETERS         Density guess:                                    ATOMIC
                        --------------------------------------------------------
                        max_scf:                                              10
                        max_scf_history:                                       0
                        max_diis:                                              4
                        --------------------------------------------------------
                        eps_scf:                                        1.00E-07
                        eps_scf_history:                                0.00E+00
                        eps_diis:                                       1.00E-01
                        eps_eigval:                                     1.00E-05
                        --------------------------------------------------------
                        level_shift [a.u.]:                                 0.00
                        --------------------------------------------------------
                        Outer loop SCF in use 
                        No variables optimised in outer loop
                        eps_scf                                         1.00E-07
                        max_scf                                               10
                        No outer loop optimization
                        step_size                                       5.00E-01

 Number of electrons:                                                         24
 Number of occupied orbitals:                                                 12
 Number of molecular orbitals:                                                12

 Number of orbital functions:                                                600
 Number of independent orbital functions:                                    600

 Extrapolation method: initial_guess


 SCF WAVEFUNCTION OPTIMIZATION

  ----------------------------------- OT ---------------------------------------
  Minimizer      : DIIS                : direct inversion
                                         in the iterative subspace
                                         using   7 DIIS vectors
                                         safer DIIS on
  Preconditioner : FULL_ALL            : diagonalization, state selective
  Precond_solver : DEFAULT
  stepsize       :    0.15000000                  energy_gap     :    0.08000000
  eps_taylor     :   0.10000E-15                  max_taylor     :             4
  ----------------------------------- OT ---------------------------------------

  Step     Update method      Time    Convergence         Total energy    Change
  ------------------------------------------------------------------------------
     1 OT DIIS     0.15E+00    0.7     0.06991282       -52.0458977628 -5.20E+01
     2 OT DIIS     0.15E+00    0.7     0.11525939       -52.0391828429  6.71E-03
     3 OT DIIS     0.15E+00    0.6     0.03786834       -54.1106002635 -2.07E+00
     4 OT DIIS     0.15E+00    0.7     0.01865136       -54.6448286451 -5.34E-01
     5 OT DIIS     0.15E+00    0.7     0.01461463       -54.8112819556 -1.66E-01
     6 OT DIIS     0.15E+00    0.7     0.00990377       -54.9040949888 -9.28E-02
     7 OT DIIS     0.15E+00    0.7     0.00768347       -54.9497997232 -4.57E-02
     8 OT DIIS     0.15E+00    0.7     0.00447075       -54.9767945330 -2.70E-02
     9 OT DIIS     0.15E+00    0.6     0.00294463       -54.9856821051 -8.89E-03
    10 OT DIIS     0.15E+00    0.7     0.00216632       -54.9884261371 -2.74E-03

  Leaving inner SCF loop after reaching    10 steps.


  Electronic density on regular grids:        -23.9999999998        0.0000000002
  Core density on regular grids:               24.0000000000       -0.0000000000
  Total charge density on r-space grids:        0.0000000002
  Total charge density g-space grids:           0.0000000002

  Overlap energy of the core charge distribution:               0.00000044673784
  Self energy of the core charge distribution:               -140.76932554679726
  Core Hamiltonian energy:                                     40.81303989555126
  Hartree energy:                                              57.94011150908755
  Exchange-correlation energy:                                -12.97225244172281

  Total energy:                                               -54.98842613714343

  outer SCF iter =    1 RMS gradient =   0.22E-02 energy =        -54.9884261371

  ----------------------------------- OT ---------------------------------------
  Minimizer      : DIIS                : direct inversion
                                         in the iterative subspace
                                         using   7 DIIS vectors
                                         safer DIIS on
  Preconditioner : FULL_ALL            : diagonalization, state selective
  Precond_solver : DEFAULT
  stepsize       :    0.15000000                  energy_gap     :    0.08000000
  eps_taylor     :   0.10000E-15                  max_taylor     :             4
  ----------------------------------- OT ---------------------------------------

  Step     Update method      Time    Convergence         Total energy    Change
  ------------------------------------------------------------------------------
     1 OT DIIS     0.15E+00    1.5     0.00145705       -54.9908829993 -2.46E-03
     2 OT DIIS     0.15E+00    0.6     0.00077078       -54.9922784452 -1.40E-03
     3 OT DIIS     0.15E+00    0.7     0.00063927       -54.9924794078 -2.01E-04
     4 OT DIIS     0.15E+00    0.7     0.00015364       -54.9926067424 -1.27E-04
     5 OT DIIS     0.15E+00    0.6     0.00001526       -54.9926128131 -6.07E-06
     6 OT DIIS     0.15E+00    0.6     0.00000719       -54.9926128995 -8.64E-08
     7 OT DIIS     0.15E+00    0.7     0.00000184       -54.9926129174 -1.79E-08
     8 OT DIIS     0.15E+00    0.6     0.00000024       -54.9926129195 -2.08E-09
     9 OT DIIS     0.15E+00    0.6     0.00000007       -54.9926129195 -4.58E-11

  *** SCF run converged in     9 steps ***


  Electronic density on regular grids:        -23.9999999997        0.0000000003
  Core density on regular grids:               24.0000000000       -0.0000000000
  Total charge density on r-space grids:        0.0000000003
  Total charge density g-space grids:           0.0000000003

  Overlap energy of the core charge distribution:               0.00000044673784
  Self energy of the core charge distribution:               -140.76932554679726
  Core Hamiltonian energy:                                     40.76148936601491
  Hartree energy:                                              57.97936918522076
  Exchange-correlation energy:                                -12.96414637069750

  Total energy:                                               -54.99261291952126

  outer SCF iter =    2 RMS gradient =   0.69E-07 energy =        -54.9926129195
  outer SCF loop converged in   2 iterations or   19 steps


 ENERGY| Total FORCE_EVAL ( QS ) energy [a.u.]:              -54.992612919521257

 -------------------------------------------------------------------------------
 -                                                                             -
 -                                DBCSR STATISTICS                             -
 -                                                                             -
 -------------------------------------------------------------------------------
 COUNTER                                    TOTAL       BLAS       SMM       ACC
 flops    12 x    12 x    12               604800       0.0%    100.0%      0.0%
 flops    12 x    12 x    68              3055104       0.0%    100.0%      0.0%
 flops   232 x    12 x    12              6481152       0.0%    100.0%      0.0%
 flops    68 x    68 x    12              6658560       0.0%    100.0%      0.0%
 flops   184 x    12 x    12             10280448       0.0%    100.0%      0.0%
 flops    12 x    12 x   116             10423296       0.0%    100.0%      0.0%
 flops    68 x   116 x    12             15144960       0.0%    100.0%      0.0%
 flops   116 x    68 x    12             15144960       0.0%    100.0%      0.0%
 flops    68 x    12 x    68             23083008       0.0%    100.0%      0.0%
 flops   232 x    12 x    68             31804416       0.0%    100.0%      0.0%
 flops   184 x    12 x    68             50448384       0.0%    100.0%      0.0%
 flops   116 x   116 x    12             64588800       0.0%    100.0%      0.0%
 flops   116 x    12 x    68             78753792       0.0%    100.0%      0.0%
 flops    68 x    12 x   116             78753792       0.0%    100.0%      0.0%
 flops   232 x    12 x   116            108509184       0.0%    100.0%      0.0%
 flops   184 x    12 x   116            172118016       0.0%    100.0%      0.0%
 flops   116 x    12 x   116            268689408       0.0%    100.0%      0.0%
 flops inhomo. stacks                           0       0.0%      0.0%      0.0%
 flops total                       944.542080E+06       0.0%    100.0%      0.0%
 flops max/rank                    353.976192E+06       0.0%    100.0%      0.0%
 matmuls inhomo. stacks                         0       0.0%      0.0%      0.0%
 matmuls total                               3982       0.0%    100.0%      0.0%
 number of processed stacks                  3630       0.0%    100.0%      0.0%
 average stack size                                     0.0       1.1       0.0
 marketing flops                     1.016150E+09
 -------------------------------------------------------------------------------
 # multiplications                            466
 max memory usage/rank             338.698240E+06
 # max total images/rank                        3
 # max 3D layers                                1
 # MPI messages exchanged                  212496
 MPI messages size (bytes):
  total size                         1.444886E+09
  min size                           0.000000E+00
  max size                         215.296000E+03
  average size                       6.799590E+03
 MPI breakdown and total messages size (bytes):
             size <=      128              194854                        0
       128 < size <=     8192                3623                 14560128
      8192 < size <=    32768                5559                 76725504
     32768 < size <=   131072                2820                306816000
    131072 < size <=  4194304                5640               1046784000
   4194304 < size <= 16777216                   0                        0
  16777216 < size                               0                        0
 -------------------------------------------------------------------------------

 *** WARNING in dbcsr_mm.F:294 :: Using a non-square number of MPI ranks ***
 *** might lead to poor performance. Used ranks: 24 Suggested: 25 49     ***

 -------------------------------------------------------------------------------
 -                                                                             -
 -                      DBCSR MESSAGE PASSING PERFORMANCE                      -
 -                                                                             -
 -------------------------------------------------------------------------------
 ROUTINE             CALLS      AVE VOLUME [Bytes]
 MP_Bcast               18                     12.
 MP_Allreduce         2483                      8.
 MP_Alltoall          1770                   8542.
 MP_ISend            19580                   6413.
 MP_IRecv            19596                   3871.
 -------------------------------------------------------------------------------

 -------------------------------------------------------------------------------
 -                                                                             -
 -                                GRID STATISTICS                              -
 -                                                                             -
 -------------------------------------------------------------------------------
 LP    KERNEL             BACKEND                              COUNT     PERCENT
 5     collocate ortho    REF                                  17900      10.31%
 5     integrate ortho    REF                                  17005       9.80%
 4     collocate ortho    REF                                  16480       9.49%
 2     collocate ortho    REF                                  15840       9.13%
 4     integrate ortho    REF                                  15656       9.02%
 2     integrate ortho    REF                                  15048       8.67%
 1     collocate ortho    REF                                  14520       8.37%
 1     integrate ortho    REF                                  13794       7.95%
 3     collocate ortho    REF                                   6880       3.96%
 0     collocate ortho    REF                                   6540       3.77%
 3     integrate ortho    REF                                   6536       3.77%
 0     integrate ortho    REF                                   6213       3.58%
 7     collocate ortho    REF                                   4400       2.53%
 8     collocate ortho    REF                                   4180       2.41%
 7     integrate ortho    REF                                   4180       2.41%
 8     integrate ortho    REF                                   3971       2.29%
 6     collocate ortho    REF                                   2200       1.27%
 6     integrate ortho    REF                                   2090       1.20%
 0     collocate general  REF                                    144       0.08%
 -------------------------------------------------------------------------------

 MEMORY| Estimated peak process memory [MiB]                                 324

 -------------------------------------------------------------------------------
 -                                                                             -
 -                         MESSAGE PASSING PERFORMANCE                         -
 -                                                                             -
 -------------------------------------------------------------------------------

 ROUTINE             CALLS      AVE VOLUME [Bytes]
 MP_Group                4
 MP_Bcast              362                 950623.
 MP_Allreduce         1166                    545.
 MP_Sync                20
 MP_Alltoall           380                9531852.
 MP_ISendRecv         2691                 191232.
 MP_Wait              3931
 MP_comm_split          16
 MP_ISend             1120                 448907.
 MP_IRecv             1120                 449139.
 MP_Recv                 5                   9600.
 -------------------------------------------------------------------------------


 -------------------------------------------------------------------------------
 -                                                                             -
 -                           R E F E R E N C E S                               -
 -                                                                             -
 -------------------------------------------------------------------------------
 
 CP2K version 9.0 (Development Version), the CP2K developers group (2020).
 CP2K is freely available from https://www.cp2k.org/ .

 Kuehne,Thomas D.; Iannuzzi,Marcella; Del Ben,Mauro;
 Rybkin,Vladimir V.; Seewald,Patrick; Stein,Frederick; Laino,Teodoro;
 Khaliullin,Rustam Z.; Schuett,Ole; Schiffmann,Florian; Golze,Dorothea;
 Wilhelm,Jan; Chulkov,Sergey; Bani-Hashemian,Mohammad Hossein;
 Weber,Valery; Borstnik,Urban; Taillefumier,Mathieu;
 Jakobovits,Alice Shoshana; Lazzaro,Alfio; Pabst,Hans; Mueller,Tiziano;
 Schade,Robert; Guidon,Manuel; Andermatt,Samuel; Holmberg,Nico;
 Schenter,Gregory K.; Hehn,Anna; Bussy,Augustin; Belleflamme,Fabian;
 Tabacchi,Gloria; Gloess,Andreas; Lass,Michael; Bethune,Iain;
 Mundy,Christopher J.; Plessl,Christian; Watkins,Matt;
 VandeVondele,Joost; Krack,Matthias; Hutter,Juerg. 
 The Journal of Chemical Physics, 152 (19), (2020). 
 CP2K: An electronic structure and molecular dynamics software package -
 Quickstep: Efficient and accurate electronic structure calculations.
 https://doi.org/10.1063/5.0007045

 Schuett, Ole; Messmer, Peter; Hutter, Juerg; VandeVondele, Joost. 
 Electronic Structure Calculations on Graphics Processing Units, John
 Wiley & Sons, Ltd, 173-190 (2016). 
 GPU-Accelerated Sparse Matrix-Matrix Multiplication for
 Linear Scaling Density Functional Theory.
 https://doi.org/10.1002/9781118670712.ch8

 Heinecke, A; Henry, G; Hutchinson, M; Pabst, H. 
 Proceedings of Intl. Supercomputing Conference, 981-991 (2016). 
 LIBXSMM: Accelerating Small Matrix Multiplications
 by Runtime Code Generation.
 https://doi.org/10.1109/SC.2016.83

 Borstnik, U; VandeVondele, J; Weber, V; Hutter, J. 
 PARALLEL COMPUTING, 40 (5-6), 47-58 (2014). 
 Sparse matrix multiplication: The distributed block-compressed sparse
 row library.
 https://doi.org/10.1016/j.parco.2014.03.012

 Hutter, J; Iannuzzi, M; Schiffmann, F; VandeVondele, J. 
 WIREs Comput Mol Sci., 4 (1), 15-25 (2014). 
 CP2K: atomistic simulations of condensed matter systems.
 https://doi.org/10.1002/wcms.1159

 Krack, M. 
 THEORETICAL CHEMISTRY ACCOUNTS, 114 (1-3), 145-152 (2005). 
 Pseudopotentials for H to Kr optimized for gradient-corrected
 exchange-correlation functionals.
 https://doi.org/10.1007/s00214-005-0655-y

 VandeVondele, J; Krack, M; Mohamed, F; Parrinello, M; Chassaing, T;
 Hutter, J. COMPUTER PHYSICS COMMUNICATIONS, 167 (2), 103-128 (2005). 
 QUICKSTEP: Fast and accurate density functional calculations using a
 mixed Gaussian and plane waves approach.
 https://doi.org/10.1016/j.cpc.2004.12.014

 Frigo, M; Johnson, SG. 
 PROCEEDINGS OF THE IEEE, 93 (2), 216-231 (2005). 
 The design and implementation of FFTW3.
 https://doi.org/10.1109/JPROC.2004.840301

 VandeVondele, J; Hutter, J. 
 JOURNAL OF CHEMICAL PHYSICS, 118 (10), 4365-4369 (2003). 
 An efficient orbital transformation method for electronic structure
 calculations.
 https://doi.org/10.1063/1.1543154

 Hartwigsen, C; Goedecker, S; Hutter, J. 
 PHYSICAL REVIEW B, 58 (7), 3641-3662 (1998). 
 Relativistic separable dual-space Gaussian pseudopotentials from H to Rn.
 https://doi.org/10.1103/PhysRevB.58.3641

 Lippert, G; Hutter, J; Parrinello, M. 
 MOLECULAR PHYSICS, 92 (3), 477-487 (1997). 
 A hybrid Gaussian and plane wave density functional scheme.
 https://doi.org/10.1080/002689797170220

 Perdew, JP; Burke, K; Ernzerhof, M. 
 PHYSICAL REVIEW LETTERS, 77 (18), 3865-3868 (1996). 
 Generalized gradient approximation made simple.
 https://doi.org/10.1103/PhysRevLett.77.3865

 Goedecker, S; Teter, M; Hutter, J. 
 PHYSICAL REVIEW B, 54 (3), 1703-1710 (1996). 
 Separable dual-space Gaussian pseudopotentials.
 https://doi.org/10.1103/PhysRevB.54.1703


 -------------------------------------------------------------------------------
 -                                                                             -
 -                                T I M I N G                                  -
 -                                                                             -
 -------------------------------------------------------------------------------
 SUBROUTINE                       CALLS  ASD         SELF TIME        TOTAL TIME
                                MAXIMUM       AVERAGE  MAXIMUM  AVERAGE  MAXIMUM
 CP2K                                 1  1.0    0.006    0.029   13.358   13.359
 qs_energies                          1  2.0    0.000    0.000   13.010   13.010
 scf_env_do_scf                       1  3.0    0.000    0.000   12.710   12.710
 scf_env_do_scf_inner_loop           19  4.0    0.001    0.002   11.310   11.310
 qs_ks_update_qs_env                 21  5.0    0.000    0.000    9.178    9.185
 rebuild_ks_matrix                   19  6.0    0.000    0.000    9.173    9.180
 qs_ks_build_kohn_sham_matrix        19  7.0    0.003    0.004    9.173    9.180
 pw_transfer                        367  9.6    0.032    0.039    6.218    7.065
 fft_wrap_pw1pw2                    329 10.7    0.004    0.005    6.147    7.004
 fft_wrap_pw1pw2_300                212 11.8    0.260    0.288    5.853    6.649
 qs_vxc_create                       19  8.0    0.001    0.001    6.092    6.121
 xc_vxc_pw_create                    19  9.0    0.047    0.052    6.092    6.121
 fft3d_ps                           329 12.7    2.223    2.371    4.973    6.036
 xc_rho_set_and_dset_create          19 10.0    0.020    0.022    3.485    3.910
 mp_alltoall_z22v                   329 14.7    2.261    3.649    2.261    3.649
 qs_rho_update_rho                   20  5.0    0.000    0.000    2.668    2.668
 calculate_rho_elec                  20  6.0    0.021    0.023    2.667    2.668
 yz_to_x                            157 13.1    0.199    0.263    1.442    2.506
 sum_up_and_integrate                19  8.0    0.010    0.013    2.350    2.354
 integrate_v_rspace                  19  9.0    0.001    0.001    2.340    2.343
 xc_functional_eval                  19 11.0    0.000    0.000    1.827    2.247
 pbe_lda_eval                        19 12.0    1.827    2.247    1.827    2.247
 density_rs2pw                       20  7.0    0.001    0.001    2.051    2.124
 rs_pw_transfer                     157  9.4    0.003    0.004    1.753    1.859
 x_to_yz                            172 14.2    0.280    0.329    1.298    1.498
 potential_pw2rs                     19 10.0    0.002    0.002    1.468    1.470
 init_scf_loop                        2  4.0    0.000    0.000    1.399    1.399
 grid_collocate_task_list            20  7.0    0.500    0.868    0.500    0.868
 grid_integrate_task_list            19 10.0    0.376    0.857    0.376    0.857
 rs_pw_transfer_RS2PW_300            21  8.9    0.214    0.257    0.656    0.762
 mp_waitany                        1120 11.4    0.520    0.662    0.520    0.662
 mp_waitall_1                     28907 14.0    0.553    0.637    0.553    0.637
 mp_alltoall_d11v                   429 11.4    0.529    0.628    0.529    0.628
 rs_gather_matrices                  19 10.0    0.001    0.004    0.495    0.593
 dbcsr_multiply_generic             466 10.1    0.014    0.014    0.569    0.582
 qs_scf_new_mos                      19  5.0    0.000    0.000    0.556    0.563
 qs_scf_loop_do_ot                   19  6.0    0.000    0.000    0.556    0.563
 ot_scf_mini                         19  7.0    0.000    0.000    0.532    0.540
 pw_scatter_p                       172 13.2    0.481    0.524    0.481    0.524
 pw_gather_p                        157 12.1    0.417    0.494    0.417    0.494
 rs_pw_transfer_PW2RS_300            19 12.0    0.217    0.239    0.409    0.433
 prepare_preconditioner               2  5.0    0.000    0.000    0.432    0.433
 make_preconditioner                  2  6.0    0.000    0.000    0.415    0.416
 make_full_all                        2  7.0    0.000    0.000    0.401    0.402
 ot_mini                             19  8.0    0.000    0.000    0.358    0.366
 rs_pw_transfer_PW2RS_100            19 12.0    0.060    0.068    0.332    0.365
 multiply_cannon                    466 11.1    0.030    0.032    0.272    0.332
 cp_fm_syevd                         16 10.0    0.000    0.000    0.295    0.295
 qs_init_subsys                       1  2.0    0.001    0.001    0.289    0.289
 cp_fm_redistribute_end              16 11.0    0.149    0.287    0.149    0.287
 qs_env_setup                         1  3.0    0.000    0.000    0.287    0.287
 qs_env_rebuild_pw_env                2  3.5    0.000    0.000    0.286    0.287
 pw_env_rebuild                       1  5.0    0.000    0.000    0.286    0.287
 cp_fm_syevd_base                    16 10.6    0.138    0.282    0.138    0.282
 fft_wrap_pw1pw2_100                 39 11.5    0.010    0.011    0.223    0.281
 -------------------------------------------------------------------------------

 The number of warnings for this run is : 1
 
 -------------------------------------------------------------------------------
  **** **** ******  **  PROGRAM ENDED AT                 2021-05-18 14:35:00.107
 ***** ** ***  *** **   PROGRAM RAN ON                                   tcopt10
 **    ****   ******    PROGRAM RAN BY                                    hutter
 ***** **    ** ** **   PROGRAM PROCESS ID                                 19404
  **** **  *******  **  PROGRAM STOPPED IN            /data/hutter/run/delta/new
