 DBCSR| CPU Multiplication driver                                           XSMM
 DBCSR| Multrec recursion limit                                              512
 DBCSR| Multiplication stack size                                           1000
 DBCSR| Maximum elements for images                                    UNLIMITED
 DBCSR| Multiplicative factor virtual images                                   1
 DBCSR| Use multiplication densification                                       T
 DBCSR| Multiplication size stacks                                             3
 DBCSR| Use memory pool for CPU allocation                                     F
 DBCSR| Number of 3D layers                                               SINGLE
 DBCSR| Use MPI memory allocation                                              F
 DBCSR| Use RMA algorithm                                                      F
 DBCSR| Use Communication thread                                               T
 DBCSR| Communication thread load                                             87
 DBCSR| MPI: My node id                                                        0
 DBCSR| MPI: Number of nodes                                                  24
 DBCSR| OMP: Current number of threads                                         1
 DBCSR| OMP: Max number of threads                                             1
 DBCSR| Split modifier for TAS multiplication algorithm                  1.0E+00


  **** **** ******  **  PROGRAM STARTED AT               2021-05-18 14:38:16.095
 ***** ** ***  *** **   PROGRAM STARTED ON                               tcopt10
 **    ****   ******    PROGRAM STARTED BY                                hutter
 ***** **    ** ** **   PROGRAM PROCESS ID                                 21270
  **** **  *******  **  PROGRAM STARTED IN            /data/hutter/run/delta/new

 CP2K| version string:                    CP2K version 9.0 (Development Version)
 CP2K| source code revision number:                                  git:4b756b0
 CP2K| cp2kflags: omp libint fftw3 libxc elpa parallel mpi3 scalapack xsmm spgli
 CP2K|            b sirius libvori libbqb
 CP2K| is freely available from                            https://www.cp2k.org/
 CP2K| Program compiled at                         Wed May  5 15:51:41 CEST 2021
 CP2K| Program compiled on                                               tcopt10
 CP2K| Program compiled for                                                local
 CP2K| Data directory path                 /data/hutter/GITHUB/CURRENT/cp2k/data
 CP2K| Input file name                                               H2O-ref.inp

 GLOBAL| Force Environment number                                              1
 GLOBAL| Basis set file name                                      ../PBE_UCBASIS
 GLOBAL| Potential file name                                        ../POTENTIAL
 GLOBAL| MM Potential file name                                     MM_POTENTIAL
 GLOBAL| Coordinate file name                                      __STD_INPUT__
 GLOBAL| Method name                                                        CP2K
 GLOBAL| Project name                                                     refH2O
 GLOBAL| Preferred FFT library                                             FFTW3
 GLOBAL| Preferred diagonalization lib.                                       SL
 GLOBAL| Run type                                                         ENERGY
 GLOBAL| All-to-all communication in single precision                          F
 GLOBAL| FFTs using library dependent lengths                                  F
 GLOBAL| Grid backend                                                       AUTO
 GLOBAL| Global print level                                                  LOW
 GLOBAL| MPI I/O enabled                                                       T
 GLOBAL| Total number of message passing processes                            24
 GLOBAL| Number of threads for this process                                    1
 GLOBAL| This output is from process                                           0
 GLOBAL| CPU model name                          AMD EPYC 7401 24-Core Processor
 GLOBAL| CPUID                                                              1002

 MEMORY| system memory details [Kb]
 MEMORY|                        rank 0           min           max       average
 MEMORY| MemTotal            263969868     263969868     263969868     263969868
 MEMORY| MemFree             218556576     218556576     218556576     218556576
 MEMORY| Buffers                    36            36            36            36
 MEMORY| Cached               37781212      37781212      37781212      37781212
 MEMORY| Slab                  3028776       3028776       3028776       3028776
 MEMORY| SReclaimable          1719468       1719468       1719468       1719468
 MEMORY| MemLikelyFree       258057292     258057292     258057292     258057292


 GENERATE|  Preliminary Number of Bonds generated:                             1
 GENERATE|  Achieved consistency in connectivity generation.
 GENERATE|  Number of Bonds generated:                                         1
 GENERATE|  Preliminary Number of Bends generated:                             0
 GENERATE|  Preliminary Number of Torsions generated:                          0

 *******************************************************************************
 *******************************************************************************
 **                                                                           **
 **     #####                         ##              ##                      **
 **    ##   ##            ##          ##              ##                      **
 **   ##     ##                       ##            ######                    **
 **   ##     ##  ##   ##  ##   #####  ##  ##   ####   ##    #####    #####    **
 **   ##     ##  ##   ##  ##  ##      ## ##   ##      ##   ##   ##  ##   ##   **
 **   ##  ## ##  ##   ##  ##  ##      ####     ###    ##   ######   ######    **
 **    ##  ###   ##   ##  ##  ##      ## ##      ##   ##   ##       ##        **
 **     #######   #####   ##   #####  ##  ##  ####    ##    #####   ##        **
 **           ##                                                    ##        **
 **                                                                           **
 **                                                ... make the atoms dance   **
 **                                                                           **
 **            Copyright (C) by CP2K developers group (2000-2021)             **
 **                      J. Chem. Phys. 152, 194103 (2020)                    **
 **                                                                           **
 *******************************************************************************


 TOTAL NUMBERS AND MAXIMUM NUMBERS

  Total number of            - Atomic kinds:                                   2
                             - Atoms:                                          3
                             - Shell sets:                                     6
                             - Shells:                                        68
                             - Primitive Cartesian functions:                 36
                             - Cartesian basis functions:                    324
                             - Spherical basis functions:                    252

  Maximum angular momentum of- Orbital basis functions:                        4
                             - Local part of the GTH pseudopotential:          2
                             - Non-local part of the GTH pseudopotential:      0


 SCF PARAMETERS         Density guess:                                    ATOMIC
                        --------------------------------------------------------
                        max_scf:                                              10
                        max_scf_history:                                       0
                        max_diis:                                              4
                        --------------------------------------------------------
                        eps_scf:                                        1.00E-07
                        eps_scf_history:                                0.00E+00
                        eps_diis:                                       1.00E-01
                        eps_eigval:                                     1.00E-05
                        --------------------------------------------------------
                        level_shift [a.u.]:                                 0.00
                        --------------------------------------------------------
                        Outer loop SCF in use 
                        No variables optimised in outer loop
                        eps_scf                                         1.00E-07
                        max_scf                                               10
                        No outer loop optimization
                        step_size                                       5.00E-01

 Number of electrons:                                                          8
 Number of occupied orbitals:                                                  4
 Number of molecular orbitals:                                                 4

 Number of orbital functions:                                                252
 Number of independent orbital functions:                                    252

 Extrapolation method: initial_guess


 SCF WAVEFUNCTION OPTIMIZATION

  ----------------------------------- OT ---------------------------------------
  Minimizer      : DIIS                : direct inversion
                                         in the iterative subspace
                                         using   7 DIIS vectors
                                         safer DIIS on
  Preconditioner : FULL_ALL            : diagonalization, state selective
  Precond_solver : DEFAULT
  stepsize       :    0.15000000                  energy_gap     :    0.08000000
  eps_taylor     :   0.10000E-15                  max_taylor     :             4
  ----------------------------------- OT ---------------------------------------

  Step     Update method      Time    Convergence         Total energy    Change
  ------------------------------------------------------------------------------
     1 OT DIIS     0.15E+00    0.5     0.14961625       -16.0926102770 -1.61E+01
     2 OT DIIS     0.15E+00    0.6     0.08156363       -16.2548545463 -1.62E-01
     3 OT DIIS     0.15E+00    0.6     0.08201928       -16.8811749321 -6.26E-01
     4 OT DIIS     0.15E+00    0.6     0.04329357       -17.1646497530 -2.83E-01
     5 OT DIIS     0.15E+00    0.6     0.01803266       -17.2070219676 -4.24E-02
     6 OT DIIS     0.15E+00    0.5     0.02682356       -17.2074815105 -4.60E-04
     7 OT DIIS     0.15E+00    0.6     0.00407145       -17.2235456307 -1.61E-02
     8 OT DIIS     0.15E+00    0.5     0.00389847       -17.2238585175 -3.13E-04
     9 OT DIIS     0.15E+00    0.6     0.00139515       -17.2242158687 -3.57E-04
    10 OT DIIS     0.15E+00    0.6     0.00029193       -17.2242644903 -4.86E-05

  Leaving inner SCF loop after reaching    10 steps.


  Electronic density on regular grids:         -8.0000000000       -0.0000000000
  Core density on regular grids:                8.0000000000       -0.0000000000
  Total charge density on r-space grids:       -0.0000000000
  Total charge density g-space grids:          -0.0000000000

  Overlap energy of the core charge distribution:               0.00000003673987
  Self energy of the core charge distribution:                -44.35427365113802
  Core Hamiltonian energy:                                     12.86704411318575
  Hartree energy:                                              18.47886004876719
  Exchange-correlation energy:                                 -4.21589503786916

  Total energy:                                               -17.22426449031439

  outer SCF iter =    1 RMS gradient =   0.29E-03 energy =        -17.2242644903

  ----------------------------------- OT ---------------------------------------
  Minimizer      : DIIS                : direct inversion
                                         in the iterative subspace
                                         using   7 DIIS vectors
                                         safer DIIS on
  Preconditioner : FULL_ALL            : diagonalization, state selective
  Precond_solver : DEFAULT
  stepsize       :    0.15000000                  energy_gap     :    0.08000000
  eps_taylor     :   0.10000E-15                  max_taylor     :             4
  ----------------------------------- OT ---------------------------------------

  Step     Update method      Time    Convergence         Total energy    Change
  ------------------------------------------------------------------------------
     1 OT DIIS     0.15E+00    1.1     0.00014378       -17.2242710074 -6.52E-06
     2 OT DIIS     0.15E+00    0.6     0.00005701       -17.2242731091 -2.10E-06
     3 OT DIIS     0.15E+00    0.5     0.00002489       -17.2242734732 -3.64E-07
     4 OT DIIS     0.15E+00    0.5     0.00000514       -17.2242735054 -3.22E-08
     5 OT DIIS     0.15E+00    0.5     0.00000053       -17.2242735069 -1.48E-09
     6 OT DIIS     0.15E+00    0.6     0.00000007       -17.2242735069 -3.32E-11

  *** SCF run converged in     6 steps ***


  Electronic density on regular grids:         -8.0000000000       -0.0000000000
  Core density on regular grids:                8.0000000000       -0.0000000000
  Total charge density on r-space grids:       -0.0000000000
  Total charge density g-space grids:          -0.0000000000

  Overlap energy of the core charge distribution:               0.00000003673987
  Self energy of the core charge distribution:                -44.35427365113802
  Core Hamiltonian energy:                                     12.86377716957055
  Hartree energy:                                              18.48121270441248
  Exchange-correlation energy:                                 -4.21498976647068

  Total energy:                                               -17.22427350688580

  outer SCF iter =    2 RMS gradient =   0.65E-07 energy =        -17.2242735069
  outer SCF loop converged in   2 iterations or   16 steps


 ENERGY| Total FORCE_EVAL ( QS ) energy [a.u.]:              -17.224273506885801

 -------------------------------------------------------------------------------
 -                                                                             -
 -                                DBCSR STATISTICS                             -
 -                                                                             -
 -------------------------------------------------------------------------------
 COUNTER                                    TOTAL       BLAS       SMM       ACC
 flops     4 x     4 x     4                14848       0.0%    100.0%      0.0%
 flops    68 x     4 x     4               178432       0.0%    100.0%      0.0%
 flops     4 x     4 x   116               244992       0.0%    100.0%      0.0%
 flops     4 x     4 x    68               287232       0.0%    100.0%      0.0%
 flops   184 x     4 x     4               482816       0.0%    100.0%      0.0%
 flops   116 x    68 x     4              1072768       0.0%    100.0%      0.0%
 flops    68 x   116 x     4              1072768       0.0%    100.0%      0.0%
 flops   116 x   116 x     4              1830016       0.0%    100.0%      0.0%
 flops    68 x    68 x     4              1886592       0.0%    100.0%      0.0%
 flops   116 x     4 x   116              4951808       0.0%    100.0%      0.0%
 flops   116 x     4 x    68              5805568       0.0%    100.0%      0.0%
 flops   184 x     4 x   116              6147072       0.0%    100.0%      0.0%
 flops   184 x     4 x    68              7206912       0.0%    100.0%      0.0%
 flops    68 x     4 x   116              8077312       0.0%    100.0%      0.0%
 flops    68 x     4 x    68              9469952       0.0%    100.0%      0.0%
 flops inhomo. stacks                           0       0.0%      0.0%      0.0%
 flops total                        48.729088E+06       0.0%    100.0%      0.0%
 flops max/rank                     34.978944E+06       0.0%    100.0%      0.0%
 matmuls inhomo. stacks                         0       0.0%      0.0%      0.0%
 matmuls total                               1210       0.0%    100.0%      0.0%
 number of processed stacks                  1210       0.0%    100.0%      0.0%
 average stack size                                     0.0       1.0       0.0
 marketing flops                    51.519640E+06
 -------------------------------------------------------------------------------
 # multiplications                            365
 max memory usage/rank             329.383936E+06
 # max total images/rank                        3
 # max 3D layers                                1
 # MPI messages exchanged                  166440
 MPI messages size (bytes):
  total size                       219.087872E+06
  min size                           0.000000E+00
  max size                         170.752000E+03
  average size                       1.316317E+03
 MPI breakdown and total messages size (bytes):
             size <=      128              160566                   150272
       128 < size <=     8192                3414                 10644480
      8192 < size <=    32768                   0                        0
     32768 < size <=   131072                2050                138284800
    131072 < size <=  4194304                 410                 70008320
   4194304 < size <= 16777216                   0                        0
  16777216 < size                               0                        0
 -------------------------------------------------------------------------------

 *** WARNING in dbcsr_mm.F:294 :: Using a non-square number of MPI ranks ***
 *** might lead to poor performance. Used ranks: 24 Suggested: 25 49     ***

 -------------------------------------------------------------------------------
 -                                                                             -
 -                      DBCSR MESSAGE PASSING PERFORMANCE                      -
 -                                                                             -
 -------------------------------------------------------------------------------
 ROUTINE             CALLS      AVE VOLUME [Bytes]
 MP_Bcast               16                     12.
 MP_Allreduce         1947                      8.
 MP_Alltoall          1526                   5777.
 MP_ISend            15338                   2256.
 MP_IRecv            15354                    676.
 -------------------------------------------------------------------------------

 -------------------------------------------------------------------------------
 -                                                                             -
 -                                GRID STATISTICS                              -
 -                                                                             -
 -------------------------------------------------------------------------------
 LP    KERNEL             BACKEND                              COUNT     PERCENT
 3     collocate ortho    REF                                   5950      13.26%
 0     collocate ortho    REF                                   5678      12.65%
 3     integrate ortho    REF                                   5600      12.48%
 0     integrate ortho    REF                                   5344      11.91%
 4     collocate ortho    REF                                   3196       7.12%
 4     integrate ortho    REF                                   3008       6.70%
 1     collocate ortho    REF                                   2958       6.59%
 1     integrate ortho    REF                                   2784       6.20%
 6     collocate ortho    REF                                   1734       3.86%
 6     integrate ortho    REF                                   1632       3.64%
 5     collocate ortho    REF                                   1292       2.88%
 5     integrate ortho    REF                                   1216       2.71%
 2     collocate ortho    REF                                   1190       2.65%
 2     integrate ortho    REF                                   1120       2.50%
 7     collocate ortho    REF                                    816       1.82%
 7     integrate ortho    REF                                    768       1.71%
 8     collocate ortho    REF                                    272       0.61%
 8     integrate ortho    REF                                    256       0.57%
 0     collocate general  REF                                     72       0.16%
 -------------------------------------------------------------------------------

 MEMORY| Estimated peak process memory [MiB]                                 315

 -------------------------------------------------------------------------------
 -                                                                             -
 -                         MESSAGE PASSING PERFORMANCE                         -
 -                                                                             -
 -------------------------------------------------------------------------------

 ROUTINE             CALLS      AVE VOLUME [Bytes]
 MP_Group                4
 MP_Bcast              174                1318629.
 MP_Allreduce          731                    822.
 MP_Sync                20
 MP_Alltoall           323                9465040.
 MP_ISendRecv         2277                 191232.
 MP_Wait              3331
 MP_comm_split          16
 MP_ISend              952                 411241.
 MP_IRecv              952                 411513.
 MP_Recv                 3                   2016.
 -------------------------------------------------------------------------------


 -------------------------------------------------------------------------------
 -                                                                             -
 -                           R E F E R E N C E S                               -
 -                                                                             -
 -------------------------------------------------------------------------------
 
 CP2K version 9.0 (Development Version), the CP2K developers group (2020).
 CP2K is freely available from https://www.cp2k.org/ .

 Kuehne,Thomas D.; Iannuzzi,Marcella; Del Ben,Mauro;
 Rybkin,Vladimir V.; Seewald,Patrick; Stein,Frederick; Laino,Teodoro;
 Khaliullin,Rustam Z.; Schuett,Ole; Schiffmann,Florian; Golze,Dorothea;
 Wilhelm,Jan; Chulkov,Sergey; Bani-Hashemian,Mohammad Hossein;
 Weber,Valery; Borstnik,Urban; Taillefumier,Mathieu;
 Jakobovits,Alice Shoshana; Lazzaro,Alfio; Pabst,Hans; Mueller,Tiziano;
 Schade,Robert; Guidon,Manuel; Andermatt,Samuel; Holmberg,Nico;
 Schenter,Gregory K.; Hehn,Anna; Bussy,Augustin; Belleflamme,Fabian;
 Tabacchi,Gloria; Gloess,Andreas; Lass,Michael; Bethune,Iain;
 Mundy,Christopher J.; Plessl,Christian; Watkins,Matt;
 VandeVondele,Joost; Krack,Matthias; Hutter,Juerg. 
 The Journal of Chemical Physics, 152 (19), (2020). 
 CP2K: An electronic structure and molecular dynamics software package -
 Quickstep: Efficient and accurate electronic structure calculations.
 https://doi.org/10.1063/5.0007045

 Schuett, Ole; Messmer, Peter; Hutter, Juerg; VandeVondele, Joost. 
 Electronic Structure Calculations on Graphics Processing Units, John
 Wiley & Sons, Ltd, 173-190 (2016). 
 GPU-Accelerated Sparse Matrix-Matrix Multiplication for
 Linear Scaling Density Functional Theory.
 https://doi.org/10.1002/9781118670712.ch8

 Heinecke, A; Henry, G; Hutchinson, M; Pabst, H. 
 Proceedings of Intl. Supercomputing Conference, 981-991 (2016). 
 LIBXSMM: Accelerating Small Matrix Multiplications
 by Runtime Code Generation.
 https://doi.org/10.1109/SC.2016.83

 Borstnik, U; VandeVondele, J; Weber, V; Hutter, J. 
 PARALLEL COMPUTING, 40 (5-6), 47-58 (2014). 
 Sparse matrix multiplication: The distributed block-compressed sparse
 row library.
 https://doi.org/10.1016/j.parco.2014.03.012

 Hutter, J; Iannuzzi, M; Schiffmann, F; VandeVondele, J. 
 WIREs Comput Mol Sci., 4 (1), 15-25 (2014). 
 CP2K: atomistic simulations of condensed matter systems.
 https://doi.org/10.1002/wcms.1159

 Krack, M. 
 THEORETICAL CHEMISTRY ACCOUNTS, 114 (1-3), 145-152 (2005). 
 Pseudopotentials for H to Kr optimized for gradient-corrected
 exchange-correlation functionals.
 https://doi.org/10.1007/s00214-005-0655-y

 VandeVondele, J; Krack, M; Mohamed, F; Parrinello, M; Chassaing, T;
 Hutter, J. COMPUTER PHYSICS COMMUNICATIONS, 167 (2), 103-128 (2005). 
 QUICKSTEP: Fast and accurate density functional calculations using a
 mixed Gaussian and plane waves approach.
 https://doi.org/10.1016/j.cpc.2004.12.014

 Frigo, M; Johnson, SG. 
 PROCEEDINGS OF THE IEEE, 93 (2), 216-231 (2005). 
 The design and implementation of FFTW3.
 https://doi.org/10.1109/JPROC.2004.840301

 VandeVondele, J; Hutter, J. 
 JOURNAL OF CHEMICAL PHYSICS, 118 (10), 4365-4369 (2003). 
 An efficient orbital transformation method for electronic structure
 calculations.
 https://doi.org/10.1063/1.1543154

 Hartwigsen, C; Goedecker, S; Hutter, J. 
 PHYSICAL REVIEW B, 58 (7), 3641-3662 (1998). 
 Relativistic separable dual-space Gaussian pseudopotentials from H to Rn.
 https://doi.org/10.1103/PhysRevB.58.3641

 Lippert, G; Hutter, J; Parrinello, M. 
 MOLECULAR PHYSICS, 92 (3), 477-487 (1997). 
 A hybrid Gaussian and plane wave density functional scheme.
 https://doi.org/10.1080/002689797170220

 Perdew, JP; Burke, K; Ernzerhof, M. 
 PHYSICAL REVIEW LETTERS, 77 (18), 3865-3868 (1996). 
 Generalized gradient approximation made simple.
 https://doi.org/10.1103/PhysRevLett.77.3865

 Goedecker, S; Teter, M; Hutter, J. 
 PHYSICAL REVIEW B, 54 (3), 1703-1710 (1996). 
 Separable dual-space Gaussian pseudopotentials.
 https://doi.org/10.1103/PhysRevB.54.1703


 -------------------------------------------------------------------------------
 -                                                                             -
 -                                T I M I N G                                  -
 -                                                                             -
 -------------------------------------------------------------------------------
 SUBROUTINE                       CALLS  ASD         SELF TIME        TOTAL TIME
                                MAXIMUM       AVERAGE  MAXIMUM  AVERAGE  MAXIMUM
 CP2K                                 1  1.0    0.006    0.026    9.567    9.568
 qs_energies                          1  2.0    0.000    0.000    9.343    9.343
 scf_env_do_scf                       1  3.0    0.000    0.000    9.113    9.114
 scf_env_do_scf_inner_loop           16  4.0    0.001    0.002    8.161    8.161
 qs_ks_update_qs_env                 18  5.0    0.000    0.000    6.870    6.876
 rebuild_ks_matrix                   16  6.0    0.000    0.000    6.867    6.874
 qs_ks_build_kohn_sham_matrix        16  7.0    0.003    0.003    6.867    6.873
 pw_transfer                        310  9.6    0.027    0.033    5.339    6.109
 fft_wrap_pw1pw2                    278 10.7    0.003    0.004    5.279    6.041
 fft_wrap_pw1pw2_300                179 11.8    0.219    0.241    5.060    5.848
 fft3d_ps                           278 12.7    1.859    2.077    4.291    5.184
 qs_vxc_create                       16  8.0    0.000    0.001    4.816    4.841
 xc_vxc_pw_create                    16  9.0    0.040    0.045    4.815    4.840
 mp_alltoall_z22v                   278 14.7    2.022    3.156    2.022    3.156
 xc_rho_set_and_dset_create          16 10.0    0.017    0.018    2.473    3.002
 yz_to_x                            133 13.1    0.166    0.214    1.449    2.344
 qs_rho_update_rho                   17  5.0    0.000    0.000    1.853    1.853
 calculate_rho_elec                  17  6.0    0.018    0.021    1.853    1.853
 xc_functional_eval                  16 11.0    0.000    0.000    1.126    1.651
 pbe_lda_eval                        16 12.0    1.126    1.651    1.126    1.651
 density_rs2pw                       17  7.0    0.001    0.001    1.530    1.621
 sum_up_and_integrate                16  8.0    0.009    0.010    1.478    1.480
 integrate_v_rspace                  16  9.0    0.000    0.001    1.469    1.471
 rs_pw_transfer                     133  9.4    0.003    0.004    1.258    1.358
 potential_pw2rs                     16 10.0    0.001    0.002    1.230    1.231
 x_to_yz                            145 14.2    0.235    0.277    0.975    1.127
 init_scf_loop                        2  4.0    0.000    0.000    0.950    0.950
 mp_waitall_1                     22819 13.9    0.420    0.491    0.420    0.491
 rs_pw_transfer_RS2PW_300            18  8.9    0.178    0.206    0.363    0.459
 pw_scatter_p                       145 13.2    0.403    0.435    0.403    0.435
 pw_gather_p                        133 12.1    0.352    0.414    0.352    0.414
 dbcsr_multiply_generic             365 10.0    0.011    0.011    0.380    0.386
 qs_scf_new_mos                      16  5.0    0.000    0.000    0.377    0.380
 qs_scf_loop_do_ot                   16  6.0    0.000    0.000    0.377    0.380
 ot_scf_mini                         16  7.0    0.000    0.000    0.361    0.364
 mp_waitany                         952 11.4    0.248    0.359    0.248    0.359
 grid_collocate_task_list            17  7.0    0.235    0.346    0.235    0.346
 rs_pw_transfer_PW2RS_300            16 12.0    0.164    0.183    0.311    0.329
 rs_pw_transfer_PW2RS_100            16 12.0    0.051    0.058    0.282    0.306
 mp_alltoall_d11v                   405 11.4    0.177    0.263    0.177    0.263
 ot_mini                             16  8.0    0.000    0.000    0.238    0.242
 rs_gather_matrices                  16 10.0    0.000    0.003    0.154    0.239
 grid_integrate_task_list            16 10.0    0.085    0.231    0.085    0.231
 fft_wrap_pw1pw2_100                 33 11.5    0.008    0.009    0.172    0.223
 -------------------------------------------------------------------------------

 The number of warnings for this run is : 1
 
 -------------------------------------------------------------------------------
  **** **** ******  **  PROGRAM ENDED AT                 2021-05-18 14:38:26.273
 ***** ** ***  *** **   PROGRAM RAN ON                                   tcopt10
 **    ****   ******    PROGRAM RAN BY                                    hutter
 ***** **    ** ** **   PROGRAM PROCESS ID                                 21270
  **** **  *******  **  PROGRAM STOPPED IN            /data/hutter/run/delta/new
