 DBCSR| CPU Multiplication driver                                           XSMM
 DBCSR| Multrec recursion limit                                              512
 DBCSR| Multiplication stack size                                           1000
 DBCSR| Maximum elements for images                                    UNLIMITED
 DBCSR| Multiplicative factor virtual images                                   1
 DBCSR| Use multiplication densification                                       T
 DBCSR| Multiplication size stacks                                             3
 DBCSR| Use memory pool for CPU allocation                                     F
 DBCSR| Number of 3D layers                                               SINGLE
 DBCSR| Use MPI memory allocation                                              F
 DBCSR| Use RMA algorithm                                                      F
 DBCSR| Use Communication thread                                               T
 DBCSR| Communication thread load                                             87
 DBCSR| MPI: My node id                                                        0
 DBCSR| MPI: Number of nodes                                                  24
 DBCSR| OMP: Current number of threads                                         1
 DBCSR| OMP: Max number of threads                                             1
 DBCSR| Split modifier for TAS multiplication algorithm                  1.0E+00


  **** **** ******  **  PROGRAM STARTED AT               2021-05-18 14:42:19.468
 ***** ** ***  *** **   PROGRAM STARTED ON                               tcopt10
 **    ****   ******    PROGRAM STARTED BY                                hutter
 ***** **    ** ** **   PROGRAM PROCESS ID                                 23277
  **** **  *******  **  PROGRAM STARTED IN            /data/hutter/run/delta/new

 CP2K| version string:                    CP2K version 9.0 (Development Version)
 CP2K| source code revision number:                                  git:4b756b0
 CP2K| cp2kflags: omp libint fftw3 libxc elpa parallel mpi3 scalapack xsmm spgli
 CP2K|            b sirius libvori libbqb
 CP2K| is freely available from                            https://www.cp2k.org/
 CP2K| Program compiled at                         Wed May  5 15:51:41 CEST 2021
 CP2K| Program compiled on                                               tcopt10
 CP2K| Program compiled for                                                local
 CP2K| Data directory path                 /data/hutter/GITHUB/CURRENT/cp2k/data
 CP2K| Input file name                                               HNC-ref.inp

 GLOBAL| Force Environment number                                              1
 GLOBAL| Basis set file name                                      ../PBE_UCBASIS
 GLOBAL| Potential file name                                        ../POTENTIAL
 GLOBAL| MM Potential file name                                     MM_POTENTIAL
 GLOBAL| Coordinate file name                                      __STD_INPUT__
 GLOBAL| Method name                                                        CP2K
 GLOBAL| Project name                                                     refHNC
 GLOBAL| Preferred FFT library                                             FFTW3
 GLOBAL| Preferred diagonalization lib.                                       SL
 GLOBAL| Run type                                                         ENERGY
 GLOBAL| All-to-all communication in single precision                          F
 GLOBAL| FFTs using library dependent lengths                                  F
 GLOBAL| Grid backend                                                       AUTO
 GLOBAL| Global print level                                                  LOW
 GLOBAL| MPI I/O enabled                                                       T
 GLOBAL| Total number of message passing processes                            24
 GLOBAL| Number of threads for this process                                    1
 GLOBAL| This output is from process                                           0
 GLOBAL| CPU model name                          AMD EPYC 7401 24-Core Processor
 GLOBAL| CPUID                                                              1002

 MEMORY| system memory details [Kb]
 MEMORY|                        rank 0           min           max       average
 MEMORY| MemTotal            263969868     263969868     263969868     263969868
 MEMORY| MemFree             218552220     218552220     218552220     218552220
 MEMORY| Buffers                    36            36            36            36
 MEMORY| Cached               37783684      37783684      37783684      37783684
 MEMORY| Slab                  3024864       3024864       3024864       3024864
 MEMORY| SReclaimable          1716932       1716932       1716932       1716932
 MEMORY| MemLikelyFree       258052872     258052872     258052872     258052872


 GENERATE|  Preliminary Number of Bonds generated:                             0
 GENERATE|  Achieved consistency in connectivity generation.

 *******************************************************************************
 *******************************************************************************
 **                                                                           **
 **     #####                         ##              ##                      **
 **    ##   ##            ##          ##              ##                      **
 **   ##     ##                       ##            ######                    **
 **   ##     ##  ##   ##  ##   #####  ##  ##   ####   ##    #####    #####    **
 **   ##     ##  ##   ##  ##  ##      ## ##   ##      ##   ##   ##  ##   ##   **
 **   ##  ## ##  ##   ##  ##  ##      ####     ###    ##   ######   ######    **
 **    ##  ###   ##   ##  ##  ##      ## ##      ##   ##   ##       ##        **
 **     #######   #####   ##   #####  ##  ##  ####    ##    #####   ##        **
 **           ##                                                    ##        **
 **                                                                           **
 **                                                ... make the atoms dance   **
 **                                                                           **
 **            Copyright (C) by CP2K developers group (2000-2021)             **
 **                      J. Chem. Phys. 152, 194103 (2020)                    **
 **                                                                           **
 *******************************************************************************


 TOTAL NUMBERS AND MAXIMUM NUMBERS

  Total number of            - Atomic kinds:                                   3
                             - Atoms:                                          3
                             - Shell sets:                                     6
                             - Shells:                                        76
                             - Primitive Cartesian functions:                 36
                             - Cartesian basis functions:                    396
                             - Spherical basis functions:                    300

  Maximum angular momentum of- Orbital basis functions:                        4
                             - Local part of the GTH pseudopotential:          2
                             - Non-local part of the GTH pseudopotential:      0


 SCF PARAMETERS         Density guess:                                    ATOMIC
                        --------------------------------------------------------
                        max_scf:                                              10
                        max_scf_history:                                       0
                        max_diis:                                              4
                        --------------------------------------------------------
                        eps_scf:                                        1.00E-07
                        eps_scf_history:                                0.00E+00
                        eps_diis:                                       1.00E-01
                        eps_eigval:                                     1.00E-05
                        --------------------------------------------------------
                        level_shift [a.u.]:                                 0.00
                        --------------------------------------------------------
                        Outer loop SCF in use 
                        No variables optimised in outer loop
                        eps_scf                                         1.00E-07
                        max_scf                                               10
                        No outer loop optimization
                        step_size                                       5.00E-01

 Number of electrons:                                                         10
 Number of occupied orbitals:                                                  5
 Number of molecular orbitals:                                                 5

 Number of orbital functions:                                                300
 Number of independent orbital functions:                                    300

 Extrapolation method: initial_guess


 SCF WAVEFUNCTION OPTIMIZATION

  ----------------------------------- OT ---------------------------------------
  Minimizer      : DIIS                : direct inversion
                                         in the iterative subspace
                                         using   7 DIIS vectors
                                         safer DIIS on
  Preconditioner : FULL_ALL            : diagonalization, state selective
  Precond_solver : DEFAULT
  stepsize       :    0.15000000                  energy_gap     :    0.08000000
  eps_taylor     :   0.10000E-15                  max_taylor     :             4
  ----------------------------------- OT ---------------------------------------

  Step     Update method      Time    Convergence         Total energy    Change
  ------------------------------------------------------------------------------
     1 OT DIIS     0.15E+00    0.6     0.11102676       -14.8786289858 -1.49E+01
     2 OT DIIS     0.15E+00    0.6     0.05867003       -15.0295522185 -1.51E-01
     3 OT DIIS     0.15E+00    0.6     0.06215260       -15.5041978197 -4.75E-01
     4 OT SD       0.15E+00    0.6     0.05958850       -15.8228554897 -3.19E-01
     5 OT DIIS     0.15E+00    0.6     0.10117913       -15.7720483353  5.08E-02
     6 OT DIIS     0.15E+00    0.6     0.07444274       -15.6506572510  1.21E-01
     7 OT DIIS     0.15E+00    0.6     0.07405304       -15.6553881661 -4.73E-03
     8 OT DIIS     0.15E+00    0.6     0.06577210       -15.6933019451 -3.79E-02
     9 OT DIIS     0.15E+00    0.6     0.06630285       -15.6220362163  7.13E-02
    10 OT DIIS     0.15E+00    0.6     0.04539347       -15.7897146484 -1.68E-01

  Leaving inner SCF loop after reaching    10 steps.


  Electronic density on regular grids:        -10.0000000000        0.0000000000
  Core density on regular grids:               10.0000000000       -0.0000000000
  Total charge density on r-space grids:        0.0000000000
  Total charge density g-space grids:           0.0000000000

  Overlap energy of the core charge distribution:               0.00000371387101
  Self energy of the core charge distribution:                -39.58553129857498
  Core Hamiltonian energy:                                     11.95562521076619
  Hartree energy:                                              16.31623991477559
  Exchange-correlation energy:                                 -4.47605218924525

  Total energy:                                               -15.78971464840744

  outer SCF iter =    1 RMS gradient =   0.45E-01 energy =        -15.7897146484

  ----------------------------------- OT ---------------------------------------
  Minimizer      : DIIS                : direct inversion
                                         in the iterative subspace
                                         using   7 DIIS vectors
                                         safer DIIS on
  Preconditioner : FULL_ALL            : diagonalization, state selective
  Precond_solver : DEFAULT
  stepsize       :    0.15000000                  energy_gap     :    0.08000000
  eps_taylor     :   0.10000E-15                  max_taylor     :             4
  ----------------------------------- OT ---------------------------------------

  Step     Update method      Time    Convergence         Total energy    Change
  ------------------------------------------------------------------------------
     1 OT DIIS     0.15E+00    1.2     0.05628931       -15.9680303617 -1.78E-01
     2 OT DIIS     0.15E+00    0.6     0.16317530       -15.3813905784  5.87E-01
     3 OT DIIS     0.15E+00    0.6     0.02333577       -16.1468003701 -7.65E-01
     4 OT DIIS     0.15E+00    0.6     0.00593878       -16.1633379307 -1.65E-02
     5 OT DIIS     0.15E+00    0.6     0.00584021       -16.1652041996 -1.87E-03
     6 OT DIIS     0.15E+00    0.6     0.00253785       -16.1663144420 -1.11E-03
     7 OT DIIS     0.15E+00    0.6     0.00100476       -16.1664542350 -1.40E-04
     8 OT DIIS     0.15E+00    0.6     0.00053159       -16.1664730664 -1.88E-05
     9 OT DIIS     0.15E+00    0.6     0.00002529       -16.1664801938 -7.13E-06
    10 OT DIIS     0.15E+00    0.6     0.00000541       -16.1664802973 -1.04E-07

  Leaving inner SCF loop after reaching    10 steps.


  Electronic density on regular grids:        -10.0000000000        0.0000000000
  Core density on regular grids:               10.0000000000       -0.0000000000
  Total charge density on r-space grids:        0.0000000000
  Total charge density g-space grids:           0.0000000000

  Overlap energy of the core charge distribution:               0.00000371387101
  Self energy of the core charge distribution:                -39.58553129857498
  Core Hamiltonian energy:                                     11.65321551931454
  Hartree energy:                                              16.23807434549752
  Exchange-correlation energy:                                 -4.47224257740209

  Total energy:                                               -16.16648029729400

  outer SCF iter =    2 RMS gradient =   0.54E-05 energy =        -16.1664802973

  ----------------------------------- OT ---------------------------------------
  Minimizer      : DIIS                : direct inversion
                                         in the iterative subspace
                                         using   7 DIIS vectors
                                         safer DIIS on
  Preconditioner : FULL_ALL            : diagonalization, state selective
  Precond_solver : DEFAULT
  stepsize       :    0.15000000                  energy_gap     :    0.08000000
  eps_taylor     :   0.10000E-15                  max_taylor     :             4
  ----------------------------------- OT ---------------------------------------

  Step     Update method      Time    Convergence         Total energy    Change
  ------------------------------------------------------------------------------
     1 OT DIIS     0.15E+00    1.2     0.00000164       -16.1664803026 -5.26E-09
     2 OT DIIS     0.15E+00    0.6     0.00000093       -16.1664803029 -3.53E-10
     3 OT DIIS     0.15E+00    0.6     0.00000084       -16.1664803030 -4.51E-11
     4 OT DIIS     0.15E+00    0.6     0.00000010       -16.1664803030 -4.34E-11

  *** SCF run converged in     4 steps ***


  Electronic density on regular grids:        -10.0000000000        0.0000000000
  Core density on regular grids:               10.0000000000       -0.0000000000
  Total charge density on r-space grids:        0.0000000000
  Total charge density g-space grids:           0.0000000000

  Overlap energy of the core charge distribution:               0.00000371387101
  Self energy of the core charge distribution:                -39.58553129857498
  Core Hamiltonian energy:                                     11.65318093671123
  Hartree energy:                                              16.23810205789976
  Exchange-correlation energy:                                 -4.47223571290511

  Total energy:                                               -16.16648030299808

  outer SCF iter =    3 RMS gradient =   0.97E-07 energy =        -16.1664803030
  outer SCF loop converged in   3 iterations or   24 steps


 ENERGY| Total FORCE_EVAL ( QS ) energy [a.u.]:              -16.166480302998082

 -------------------------------------------------------------------------------
 -                                                                             -
 -                                DBCSR STATISTICS                             -
 -                                                                             -
 -------------------------------------------------------------------------------
 COUNTER                                    TOTAL       BLAS       SMM       ACC
 flops     5 x     5 x     5                43000       0.0%    100.0%      0.0%
 flops     5 x     5 x    68               336600       0.0%    100.0%      0.0%
 flops    68 x     5 x     5               418200       0.0%    100.0%      0.0%
 flops     5 x     5 x   116              1148400       0.0%    100.0%      0.0%
 flops    68 x    68 x     5              1156000       0.0%    100.0%      0.0%
 flops   232 x     5 x     5              1426800       0.0%    100.0%      0.0%
 flops    68 x   116 x     5              1972000       0.0%    100.0%      0.0%
 flops   116 x    68 x     5              1972000       0.0%    100.0%      0.0%
 flops    68 x     5 x    68              5641280       0.0%    100.0%      0.0%
 flops   232 x     5 x    68              8519040       0.0%    100.0%      0.0%
 flops   116 x   116 x     5             10092000       0.0%    100.0%      0.0%
 flops   116 x     5 x    68             10727680       0.0%    100.0%      0.0%
 flops    68 x     5 x   116             19246720       0.0%    100.0%      0.0%
 flops   232 x     5 x   116             29064960       0.0%    100.0%      0.0%
 flops   116 x     5 x   116             36600320       0.0%    100.0%      0.0%
 flops inhomo. stacks                           0       0.0%      0.0%      0.0%
 flops total                       128.365000E+06       0.0%    100.0%      0.0%
 flops max/rank                     97.958800E+06       0.0%    100.0%      0.0%
 matmuls inhomo. stacks                         0       0.0%      0.0%      0.0%
 matmuls total                               1801       0.0%    100.0%      0.0%
 number of processed stacks                  1547       0.0%    100.0%      0.0%
 average stack size                                     0.0       1.2       0.0
 marketing flops                   135.718160E+06
 -------------------------------------------------------------------------------
 # multiplications                            544
 max memory usage/rank             333.770752E+06
 # max total images/rank                        3
 # max 3D layers                                1
 # MPI messages exchanged                  248064
 MPI messages size (bytes):
  total size                       463.224992E+06
  min size                           0.000000E+00
  max size                         215.296000E+03
  average size                       1.867361E+03
 MPI breakdown and total messages size (bytes):
             size <=      128              237555                        0
       128 < size <=     8192                6034                 16461800
      8192 < size <=    32768                 815                  7563200
     32768 < size <=   131072                2440                176538880
    131072 < size <=  4194304                1220                262661120
   4194304 < size <= 16777216                   0                        0
  16777216 < size                               0                        0
 -------------------------------------------------------------------------------

 *** WARNING in dbcsr_mm.F:294 :: Using a non-square number of MPI ranks ***
 *** might lead to poor performance. Used ranks: 24 Suggested: 25 49     ***

 -------------------------------------------------------------------------------
 -                                                                             -
 -                      DBCSR MESSAGE PASSING PERFORMANCE                      -
 -                                                                             -
 -------------------------------------------------------------------------------
 ROUTINE             CALLS      AVE VOLUME [Bytes]
 MP_Bcast               16                     12.
 MP_Allreduce         2883                      8.
 MP_Alltoall          2316                   8268.
 MP_ISend            22858                   3378.
 MP_IRecv            22880                    873.
 -------------------------------------------------------------------------------

 -------------------------------------------------------------------------------
 -                                                                             -
 -                                GRID STATISTICS                              -
 -                                                                             -
 -------------------------------------------------------------------------------
 LP    KERNEL             BACKEND                              COUNT     PERCENT
 5     collocate ortho    REF                                   8550      11.65%
 5     integrate ortho    REF                                   8208      11.19%
 2     collocate ortho    REF                                   7725      10.53%
 2     integrate ortho    REF                                   7416      10.11%
 4     collocate ortho    REF                                   5800       7.90%
 4     integrate ortho    REF                                   5568       7.59%
 1     collocate ortho    REF                                   5150       7.02%
 1     integrate ortho    REF                                   4944       6.74%
 0     collocate ortho    REF                                   2800       3.82%
 3     collocate ortho    REF                                   2800       3.82%
 0     integrate ortho    REF                                   2688       3.66%
 3     integrate ortho    REF                                   2688       3.66%
 8     collocate ortho    REF                                   2100       2.86%
 8     integrate ortho    REF                                   2016       2.75%
 7     collocate ortho    REF                                   1625       2.21%
 7     integrate ortho    REF                                   1560       2.13%
 6     collocate ortho    REF                                    850       1.16%
 6     integrate ortho    REF                                    816       1.11%
 0     collocate general  REF                                     72       0.10%
 -------------------------------------------------------------------------------

 MEMORY| Estimated peak process memory [MiB]                                 319

 -------------------------------------------------------------------------------
 -                                                                             -
 -                         MESSAGE PASSING PERFORMANCE                         -
 -                                                                             -
 -------------------------------------------------------------------------------

 ROUTINE             CALLS      AVE VOLUME [Bytes]
 MP_Group                4
 MP_Bcast              310                1110208.
 MP_Allreduce         1078                    566.
 MP_Sync                33
 MP_Alltoall           475                9702378.
 MP_ISendRecv         3381                 191232.
 MP_Wait              4931
 MP_comm_split          29
 MP_ISend             1400                 429902.
 MP_IRecv             1400                 430087.
 MP_Recv                 8                   2400.
 -------------------------------------------------------------------------------


 -------------------------------------------------------------------------------
 -                                                                             -
 -                           R E F E R E N C E S                               -
 -                                                                             -
 -------------------------------------------------------------------------------
 
 CP2K version 9.0 (Development Version), the CP2K developers group (2020).
 CP2K is freely available from https://www.cp2k.org/ .

 Kuehne,Thomas D.; Iannuzzi,Marcella; Del Ben,Mauro;
 Rybkin,Vladimir V.; Seewald,Patrick; Stein,Frederick; Laino,Teodoro;
 Khaliullin,Rustam Z.; Schuett,Ole; Schiffmann,Florian; Golze,Dorothea;
 Wilhelm,Jan; Chulkov,Sergey; Bani-Hashemian,Mohammad Hossein;
 Weber,Valery; Borstnik,Urban; Taillefumier,Mathieu;
 Jakobovits,Alice Shoshana; Lazzaro,Alfio; Pabst,Hans; Mueller,Tiziano;
 Schade,Robert; Guidon,Manuel; Andermatt,Samuel; Holmberg,Nico;
 Schenter,Gregory K.; Hehn,Anna; Bussy,Augustin; Belleflamme,Fabian;
 Tabacchi,Gloria; Gloess,Andreas; Lass,Michael; Bethune,Iain;
 Mundy,Christopher J.; Plessl,Christian; Watkins,Matt;
 VandeVondele,Joost; Krack,Matthias; Hutter,Juerg. 
 The Journal of Chemical Physics, 152 (19), (2020). 
 CP2K: An electronic structure and molecular dynamics software package -
 Quickstep: Efficient and accurate electronic structure calculations.
 https://doi.org/10.1063/5.0007045

 Schuett, Ole; Messmer, Peter; Hutter, Juerg; VandeVondele, Joost. 
 Electronic Structure Calculations on Graphics Processing Units, John
 Wiley & Sons, Ltd, 173-190 (2016). 
 GPU-Accelerated Sparse Matrix-Matrix Multiplication for
 Linear Scaling Density Functional Theory.
 https://doi.org/10.1002/9781118670712.ch8

 Heinecke, A; Henry, G; Hutchinson, M; Pabst, H. 
 Proceedings of Intl. Supercomputing Conference, 981-991 (2016). 
 LIBXSMM: Accelerating Small Matrix Multiplications
 by Runtime Code Generation.
 https://doi.org/10.1109/SC.2016.83

 Borstnik, U; VandeVondele, J; Weber, V; Hutter, J. 
 PARALLEL COMPUTING, 40 (5-6), 47-58 (2014). 
 Sparse matrix multiplication: The distributed block-compressed sparse
 row library.
 https://doi.org/10.1016/j.parco.2014.03.012

 Hutter, J; Iannuzzi, M; Schiffmann, F; VandeVondele, J. 
 WIREs Comput Mol Sci., 4 (1), 15-25 (2014). 
 CP2K: atomistic simulations of condensed matter systems.
 https://doi.org/10.1002/wcms.1159

 Krack, M. 
 THEORETICAL CHEMISTRY ACCOUNTS, 114 (1-3), 145-152 (2005). 
 Pseudopotentials for H to Kr optimized for gradient-corrected
 exchange-correlation functionals.
 https://doi.org/10.1007/s00214-005-0655-y

 VandeVondele, J; Krack, M; Mohamed, F; Parrinello, M; Chassaing, T;
 Hutter, J. COMPUTER PHYSICS COMMUNICATIONS, 167 (2), 103-128 (2005). 
 QUICKSTEP: Fast and accurate density functional calculations using a
 mixed Gaussian and plane waves approach.
 https://doi.org/10.1016/j.cpc.2004.12.014

 Frigo, M; Johnson, SG. 
 PROCEEDINGS OF THE IEEE, 93 (2), 216-231 (2005). 
 The design and implementation of FFTW3.
 https://doi.org/10.1109/JPROC.2004.840301

 VandeVondele, J; Hutter, J. 
 JOURNAL OF CHEMICAL PHYSICS, 118 (10), 4365-4369 (2003). 
 An efficient orbital transformation method for electronic structure
 calculations.
 https://doi.org/10.1063/1.1543154

 Hartwigsen, C; Goedecker, S; Hutter, J. 
 PHYSICAL REVIEW B, 58 (7), 3641-3662 (1998). 
 Relativistic separable dual-space Gaussian pseudopotentials from H to Rn.
 https://doi.org/10.1103/PhysRevB.58.3641

 Lippert, G; Hutter, J; Parrinello, M. 
 MOLECULAR PHYSICS, 92 (3), 477-487 (1997). 
 A hybrid Gaussian and plane wave density functional scheme.
 https://doi.org/10.1080/002689797170220

 Perdew, JP; Burke, K; Ernzerhof, M. 
 PHYSICAL REVIEW LETTERS, 77 (18), 3865-3868 (1996). 
 Generalized gradient approximation made simple.
 https://doi.org/10.1103/PhysRevLett.77.3865

 Goedecker, S; Teter, M; Hutter, J. 
 PHYSICAL REVIEW B, 54 (3), 1703-1710 (1996). 
 Separable dual-space Gaussian pseudopotentials.
 https://doi.org/10.1103/PhysRevB.54.1703


 -------------------------------------------------------------------------------
 -                                                                             -
 -                                T I M I N G                                  -
 -                                                                             -
 -------------------------------------------------------------------------------
 SUBROUTINE                       CALLS  ASD         SELF TIME        TOTAL TIME
                                MAXIMUM       AVERAGE  MAXIMUM  AVERAGE  MAXIMUM
 CP2K                                 1  1.0    0.007    0.026   14.814   14.815
 qs_energies                          1  2.0    0.000    0.000   14.471   14.471
 scf_env_do_scf                       1  3.0    0.000    0.000   14.157   14.158
 scf_env_do_scf_inner_loop           24  4.0    0.001    0.003   12.585   12.585
 qs_ks_update_qs_env                 27  5.0    0.000    0.000   10.682   10.699
 rebuild_ks_matrix                   24  6.0    0.000    0.000   10.675   10.692
 qs_ks_build_kohn_sham_matrix        24  7.0    0.004    0.005   10.675   10.692
 pw_transfer                        462  9.6    0.040    0.048    7.787    8.901
 fft_wrap_pw1pw2                    414 10.7    0.005    0.006    7.697    8.801
 fft_wrap_pw1pw2_300                267 11.8    0.324    0.359    7.328    8.466
 qs_vxc_create                       24  8.0    0.001    0.001    7.710    7.750
 xc_vxc_pw_create                    24  9.0    0.060    0.070    7.709    7.750
 fft3d_ps                           414 12.7    2.778    2.989    6.225    7.510
 xc_rho_set_and_dset_create          24 10.0    0.025    0.028    4.441    5.097
 mp_alltoall_z22v                   414 14.7    2.835    4.111    2.835    4.111
 yz_to_x                            197 13.1    0.249    0.333    1.925    3.045
 xc_functional_eval                  24 11.0    0.000    0.000    2.359    3.015
 pbe_lda_eval                        24 12.0    2.358    3.014    2.358    3.014
 qs_rho_update_rho                   25  5.0    0.000    0.000    2.771    2.772
 calculate_rho_elec                  25  6.0    0.027    0.031    2.771    2.772
 density_rs2pw                       25  7.0    0.001    0.001    2.279    2.330
 sum_up_and_integrate                24  8.0    0.012    0.014    2.064    2.071
 integrate_v_rspace                  24  9.0    0.001    0.001    2.051    2.059
 rs_pw_transfer                     197  9.5    0.004    0.005    1.933    1.974
 potential_pw2rs                     24 10.0    0.002    0.002    1.788    1.791
 x_to_yz                            217 14.2    0.351    0.414    1.510    1.762
 init_scf_loop                        3  4.0    0.000    0.000    1.572    1.572
 mp_waitall_1                     33995 13.9    0.623    0.725    0.623    0.725
 pw_scatter_p                       217 13.2    0.606    0.657    0.606    0.657
 rs_pw_transfer_RS2PW_300            26  8.9    0.270    0.318    0.579    0.629
 pw_gather_p                        197 12.1    0.522    0.616    0.522    0.616
 dbcsr_multiply_generic             544 10.0    0.016    0.017    0.589    0.598
 qs_scf_new_mos                      24  5.0    0.000    0.000    0.584    0.590
 qs_scf_loop_do_ot                   24  6.0    0.000    0.000    0.584    0.590
 ot_scf_mini                         24  7.0    0.000    0.000    0.558    0.564
 rs_pw_transfer_PW2RS_300            24 12.0    0.260    0.289    0.490    0.524
 mp_waitany                        1400 11.4    0.414    0.495    0.414    0.495
 rs_pw_transfer_PW2RS_100            24 12.0    0.075    0.085    0.419    0.457
 grid_collocate_task_list            25  7.0    0.386    0.426    0.386    0.426
 ot_mini                             24  8.0    0.000    0.000    0.370    0.376
 fft_wrap_pw1pw2_100                 49 11.5    0.012    0.013    0.290    0.364
 multiply_cannon                    544 11.0    0.037    0.038    0.267    0.319
 -------------------------------------------------------------------------------

 The number of warnings for this run is : 1
 
 -------------------------------------------------------------------------------
  **** **** ******  **  PROGRAM ENDED AT                 2021-05-18 14:42:34.902
 ***** ** ***  *** **   PROGRAM RAN ON                                   tcopt10
 **    ****   ******    PROGRAM RAN BY                                    hutter
 ***** **    ** ** **   PROGRAM PROCESS ID                                 23277
  **** **  *******  **  PROGRAM STOPPED IN            /data/hutter/run/delta/new
