 DBCSR| CPU Multiplication driver                                           XSMM
 DBCSR| Multrec recursion limit                                              512
 DBCSR| Multiplication stack size                                           1000
 DBCSR| Maximum elements for images                                    UNLIMITED
 DBCSR| Multiplicative factor virtual images                                   1
 DBCSR| Use multiplication densification                                       T
 DBCSR| Multiplication size stacks                                             3
 DBCSR| Use memory pool for CPU allocation                                     F
 DBCSR| Number of 3D layers                                               SINGLE
 DBCSR| Use MPI memory allocation                                              F
 DBCSR| Use RMA algorithm                                                      F
 DBCSR| Use Communication thread                                               T
 DBCSR| Communication thread load                                             87
 DBCSR| MPI: My node id                                                        0
 DBCSR| MPI: Number of nodes                                                  24
 DBCSR| OMP: Current number of threads                                         1
 DBCSR| OMP: Max number of threads                                             1
 DBCSR| Split modifier for TAS multiplication algorithm                  1.0E+00


  **** **** ******  **  PROGRAM STARTED AT               2021-05-18 14:35:00.363
 ***** ** ***  *** **   PROGRAM STARTED ON                               tcopt10
 **    ****   ******    PROGRAM STARTED BY                                hutter
 ***** **    ** ** **   PROGRAM PROCESS ID                                 19521
  **** **  *******  **  PROGRAM STARTED IN            /data/hutter/run/delta/new

 CP2K| version string:                    CP2K version 9.0 (Development Version)
 CP2K| source code revision number:                                  git:4b756b0
 CP2K| cp2kflags: omp libint fftw3 libxc elpa parallel mpi3 scalapack xsmm spgli
 CP2K|            b sirius libvori libbqb
 CP2K| is freely available from                            https://www.cp2k.org/
 CP2K| Program compiled at                         Wed May  5 15:51:41 CEST 2021
 CP2K| Program compiled on                                               tcopt10
 CP2K| Program compiled for                                                local
 CP2K| Data directory path                 /data/hutter/GITHUB/CURRENT/cp2k/data
 CP2K| Input file name                                              HNO3-ref.inp

 GLOBAL| Force Environment number                                              1
 GLOBAL| Basis set file name                                      ../PBE_UCBASIS
 GLOBAL| Potential file name                                        ../POTENTIAL
 GLOBAL| MM Potential file name                                     MM_POTENTIAL
 GLOBAL| Coordinate file name                                      __STD_INPUT__
 GLOBAL| Method name                                                        CP2K
 GLOBAL| Project name                                                    refHNO3
 GLOBAL| Preferred FFT library                                             FFTW3
 GLOBAL| Preferred diagonalization lib.                                       SL
 GLOBAL| Run type                                                         ENERGY
 GLOBAL| All-to-all communication in single precision                          F
 GLOBAL| FFTs using library dependent lengths                                  F
 GLOBAL| Grid backend                                                       AUTO
 GLOBAL| Global print level                                                  LOW
 GLOBAL| MPI I/O enabled                                                       T
 GLOBAL| Total number of message passing processes                            24
 GLOBAL| Number of threads for this process                                    1
 GLOBAL| This output is from process                                           0
 GLOBAL| CPU model name                          AMD EPYC 7401 24-Core Processor
 GLOBAL| CPUID                                                              1002

 MEMORY| system memory details [Kb]
 MEMORY|                        rank 0           min           max       average
 MEMORY| MemTotal            263969868     263969868     263969868     263969868
 MEMORY| MemFree             218544328     218544328     218544328     218544328
 MEMORY| Buffers                    36            36            36            36
 MEMORY| Cached               37778288      37778288      37778288      37778288
 MEMORY| Slab                  3027336       3027336       3027336       3027336
 MEMORY| SReclaimable          1718236       1718236       1718236       1718236
 MEMORY| MemLikelyFree       258040888     258040888     258040888     258040888


 GENERATE|  Preliminary Number of Bonds generated:                             0
 GENERATE|  Achieved consistency in connectivity generation.

 *******************************************************************************
 *******************************************************************************
 **                                                                           **
 **     #####                         ##              ##                      **
 **    ##   ##            ##          ##              ##                      **
 **   ##     ##                       ##            ######                    **
 **   ##     ##  ##   ##  ##   #####  ##  ##   ####   ##    #####    #####    **
 **   ##     ##  ##   ##  ##  ##      ## ##   ##      ##   ##   ##  ##   ##   **
 **   ##  ## ##  ##   ##  ##  ##      ####     ###    ##   ######   ######    **
 **    ##  ###   ##   ##  ##  ##      ## ##      ##   ##   ##       ##        **
 **     #######   #####   ##   #####  ##  ##  ####    ##    #####   ##        **
 **           ##                                                    ##        **
 **                                                                           **
 **                                                ... make the atoms dance   **
 **                                                                           **
 **            Copyright (C) by CP2K developers group (2000-2021)             **
 **                      J. Chem. Phys. 152, 194103 (2020)                    **
 **                                                                           **
 *******************************************************************************


 TOTAL NUMBERS AND MAXIMUM NUMBERS

  Total number of            - Atomic kinds:                                   3
                             - Atoms:                                          5
                             - Shell sets:                                    10
                             - Shells:                                       132
                             - Primitive Cartesian functions:                 60
                             - Cartesian basis functions:                    708
                             - Spherical basis functions:                    532

  Maximum angular momentum of- Orbital basis functions:                        4
                             - Local part of the GTH pseudopotential:          2
                             - Non-local part of the GTH pseudopotential:      0


 SCF PARAMETERS         Density guess:                                    ATOMIC
                        --------------------------------------------------------
                        max_scf:                                              10
                        max_scf_history:                                       0
                        max_diis:                                              4
                        --------------------------------------------------------
                        eps_scf:                                        1.00E-07
                        eps_scf_history:                                0.00E+00
                        eps_diis:                                       1.00E-01
                        eps_eigval:                                     1.00E-05
                        --------------------------------------------------------
                        level_shift [a.u.]:                                 0.00
                        --------------------------------------------------------
                        Outer loop SCF in use 
                        No variables optimised in outer loop
                        eps_scf                                         1.00E-07
                        max_scf                                               10
                        No outer loop optimization
                        step_size                                       5.00E-01

 Number of electrons:                                                         24
 Number of occupied orbitals:                                                 12
 Number of molecular orbitals:                                                12

 Number of orbital functions:                                                532
 Number of independent orbital functions:                                    532

 Extrapolation method: initial_guess


 SCF WAVEFUNCTION OPTIMIZATION

  ----------------------------------- OT ---------------------------------------
  Minimizer      : DIIS                : direct inversion
                                         in the iterative subspace
                                         using   7 DIIS vectors
                                         safer DIIS on
  Preconditioner : FULL_ALL            : diagonalization, state selective
  Precond_solver : DEFAULT
  stepsize       :    0.15000000                  energy_gap     :    0.08000000
  eps_taylor     :   0.10000E-15                  max_taylor     :             4
  ----------------------------------- OT ---------------------------------------

  Step     Update method      Time    Convergence         Total energy    Change
  ------------------------------------------------------------------------------
     1 OT DIIS     0.15E+00    0.7     0.06742792       -56.5319241706 -5.65E+01
     2 OT DIIS     0.15E+00    0.6     0.11804772       -56.7707947100 -2.39E-01
     3 OT DIIS     0.15E+00    0.6     0.03944413       -58.1860162462 -1.42E+00
     4 OT DIIS     0.15E+00    0.6     0.03265353       -58.3408404811 -1.55E-01
     5 OT DIIS     0.15E+00    0.6     0.01391670       -58.4707643276 -1.30E-01
     6 OT DIIS     0.15E+00    0.6     0.00773150       -58.4985215218 -2.78E-02
     7 OT DIIS     0.15E+00    0.6     0.00374078       -58.5087094281 -1.02E-02
     8 OT DIIS     0.15E+00    0.6     0.00233540       -58.5111355126 -2.43E-03
     9 OT DIIS     0.15E+00    0.6     0.00098508       -58.5121478652 -1.01E-03
    10 OT DIIS     0.15E+00    0.6     0.00054213       -58.5123360309 -1.88E-04

  Leaving inner SCF loop after reaching    10 steps.


  Electronic density on regular grids:        -24.0000000005       -0.0000000005
  Core density on regular grids:               24.0000000000       -0.0000000000
  Total charge density on r-space grids:       -0.0000000005
  Total charge density g-space grids:          -0.0000000005

  Overlap energy of the core charge distribution:               0.00000004005947
  Self energy of the core charge distribution:               -150.87881712122552
  Core Hamiltonian energy:                                     43.10034666006601
  Hartree energy:                                              62.53734637989417
  Exchange-correlation energy:                                -13.27121198968797

  Total energy:                                               -58.51233603089385

  outer SCF iter =    1 RMS gradient =   0.54E-03 energy =        -58.5123360309

  ----------------------------------- OT ---------------------------------------
  Minimizer      : DIIS                : direct inversion
                                         in the iterative subspace
                                         using   7 DIIS vectors
                                         safer DIIS on
  Preconditioner : FULL_ALL            : diagonalization, state selective
  Precond_solver : DEFAULT
  stepsize       :    0.15000000                  energy_gap     :    0.08000000
  eps_taylor     :   0.10000E-15                  max_taylor     :             4
  ----------------------------------- OT ---------------------------------------

  Step     Update method      Time    Convergence         Total energy    Change
  ------------------------------------------------------------------------------
     1 OT DIIS     0.15E+00    1.4     0.00016174       -58.5124086373 -7.26E-05
     2 OT DIIS     0.15E+00    0.6     0.00007952       -58.5124240962 -1.55E-05
     3 OT DIIS     0.15E+00    0.6     0.00007297       -58.5124260161 -1.92E-06
     4 OT DIIS     0.15E+00    0.6     0.00002624       -58.5124272931 -1.28E-06
     5 OT DIIS     0.15E+00    0.6     0.00000737       -58.5124274062 -1.13E-07
     6 OT DIIS     0.15E+00    0.6     0.00000393       -58.5124274139 -7.73E-09
     7 OT DIIS     0.15E+00    0.6     0.00000027       -58.5124274169 -2.97E-09
     8 OT DIIS     0.15E+00    0.6     0.00000005       -58.5124274169 -4.32E-11

  *** SCF run converged in     8 steps ***


  Electronic density on regular grids:        -24.0000000005       -0.0000000005
  Core density on regular grids:               24.0000000000       -0.0000000000
  Total charge density on r-space grids:       -0.0000000005
  Total charge density g-space grids:          -0.0000000005

  Overlap energy of the core charge distribution:               0.00000004005947
  Self energy of the core charge distribution:               -150.87881712122552
  Core Hamiltonian energy:                                     43.10361935464202
  Hartree energy:                                              62.53404413498068
  Exchange-correlation energy:                                -13.27127382536077

  Total energy:                                               -58.51242741690414

  outer SCF iter =    2 RMS gradient =   0.50E-07 energy =        -58.5124274169
  outer SCF loop converged in   2 iterations or   18 steps


 ENERGY| Total FORCE_EVAL ( QS ) energy [a.u.]:              -58.512427416904139

 -------------------------------------------------------------------------------
 -                                                                             -
 -                                DBCSR STATISTICS                             -
 -                                                                             -
 -------------------------------------------------------------------------------
 COUNTER                                    TOTAL       BLAS       SMM       ACC
 flops    12 x    12 x    12               442368       0.0%    100.0%      0.0%
 flops    12 x    12 x    68              1449216       0.0%    100.0%      0.0%
 flops    68 x    68 x    12              2108544       0.0%    100.0%      0.0%
 flops   116 x    12 x    12              3073536       0.0%    100.0%      0.0%
 flops   184 x    12 x    12              4875264       0.0%    100.0%      0.0%
 flops    68 x    12 x    68              5548800       0.0%    100.0%      0.0%
 flops   232 x    12 x    12              6147072       0.0%    100.0%      0.0%
 flops   116 x    68 x    12              7193856       0.0%    100.0%      0.0%
 flops    68 x   116 x    12              7193856       0.0%    100.0%      0.0%
 flops    12 x    12 x   116              9888768       0.0%    100.0%      0.0%
 flops   184 x    12 x    68             12011520       0.0%    100.0%      0.0%
 flops   232 x    12 x    68             15144960       0.0%    100.0%      0.0%
 flops    68 x    12 x   116             37862400       0.0%    100.0%      0.0%
 flops   116 x    12 x    68             45434880       0.0%    100.0%      0.0%
 flops   116 x   116 x    12             61359360       0.0%    100.0%      0.0%
 flops   184 x    12 x   116             81960960       0.0%    100.0%      0.0%
 flops   232 x    12 x   116            103342080       0.0%    100.0%      0.0%
 flops   116 x    12 x   116            310026240       0.0%    100.0%      0.0%
 flops inhomo. stacks                           0       0.0%      0.0%      0.0%
 flops total                       715.063680E+06       0.0%    100.0%      0.0%
 flops max/rank                    302.931072E+06       0.0%    100.0%      0.0%
 matmuls inhomo. stacks                         0       0.0%      0.0%      0.0%
 matmuls total                               2909       0.0%    100.0%      0.0%
 number of processed stacks                  2621       0.0%    100.0%      0.0%
 average stack size                                     0.0       1.1       0.0
 marketing flops                   766.573440E+06
 -------------------------------------------------------------------------------
 # multiplications                            405
 max memory usage/rank             339.615744E+06
 # max total images/rank                        3
 # max 3D layers                                1
 # MPI messages exchanged                  184680
 MPI messages size (bytes):
  total size                         1.095664E+09
  min size                           0.000000E+00
  max size                         215.296000E+03
  average size                       5.932771E+03
 MPI breakdown and total messages size (bytes):
             size <=      128              170427                        0
       128 < size <=     8192                2219                  7496832
      8192 < size <=    32768                5284                 69280896
     32768 < size <=   131072                3150                324000000
    131072 < size <=  4194304                3600                694886400
   4194304 < size <= 16777216                   0                        0
  16777216 < size                               0                        0
 -------------------------------------------------------------------------------

 *** WARNING in dbcsr_mm.F:294 :: Using a non-square number of MPI ranks ***
 *** might lead to poor performance. Used ranks: 24 Suggested: 25 49     ***

 -------------------------------------------------------------------------------
 -                                                                             -
 -                      DBCSR MESSAGE PASSING PERFORMANCE                      -
 -                                                                             -
 -------------------------------------------------------------------------------
 ROUTINE             CALLS      AVE VOLUME [Bytes]
 MP_Bcast               19                     12.
 MP_Allreduce         2171                      8.
 MP_Alltoall          1634                   9013.
 MP_ISend            17018                   6292.
 MP_IRecv            17034                   3500.
 -------------------------------------------------------------------------------

 -------------------------------------------------------------------------------
 -                                                                             -
 -                                GRID STATISTICS                              -
 -                                                                             -
 -------------------------------------------------------------------------------
 LP    KERNEL             BACKEND                              COUNT     PERCENT
 5     collocate ortho    REF                                  14877      14.51%
 5     integrate ortho    REF                                  14094      13.75%
 2     collocate ortho    REF                                  13452      13.12%
 2     integrate ortho    REF                                  12744      12.43%
 4     collocate ortho    REF                                   7448       7.26%
 4     integrate ortho    REF                                   7056       6.88%
 1     collocate ortho    REF                                   6536       6.37%
 1     integrate ortho    REF                                   6192       6.04%
 8     collocate ortho    REF                                   3477       3.39%
 8     integrate ortho    REF                                   3294       3.21%
 0     collocate ortho    REF                                   2128       2.08%
 3     collocate ortho    REF                                   2128       2.08%
 0     integrate ortho    REF                                   2016       1.97%
 3     integrate ortho    REF                                   2016       1.97%
 7     collocate ortho    REF                                   1900       1.85%
 7     integrate ortho    REF                                   1800       1.76%
 6     collocate ortho    REF                                    646       0.63%
 6     integrate ortho    REF                                    612       0.60%
 0     collocate general  REF                                    120       0.12%
 -------------------------------------------------------------------------------

 MEMORY| Estimated peak process memory [MiB]                                 325

 -------------------------------------------------------------------------------
 -                                                                             -
 -                         MESSAGE PASSING PERFORMANCE                         -
 -                                                                             -
 -------------------------------------------------------------------------------

 ROUTINE             CALLS      AVE VOLUME [Bytes]
 MP_Group                4
 MP_Bcast              350                 983187.
 MP_Allreduce         1136                    558.
 MP_Sync                20
 MP_Alltoall           361                9546367.
 MP_ISendRecv         2553                 191232.
 MP_Wait              3731
 MP_comm_split          16
 MP_ISend             1064                 448901.
 MP_IRecv             1064                 449145.
 MP_Recv                 5                   8512.
 -------------------------------------------------------------------------------


 -------------------------------------------------------------------------------
 -                                                                             -
 -                           R E F E R E N C E S                               -
 -                                                                             -
 -------------------------------------------------------------------------------
 
 CP2K version 9.0 (Development Version), the CP2K developers group (2020).
 CP2K is freely available from https://www.cp2k.org/ .

 Kuehne,Thomas D.; Iannuzzi,Marcella; Del Ben,Mauro;
 Rybkin,Vladimir V.; Seewald,Patrick; Stein,Frederick; Laino,Teodoro;
 Khaliullin,Rustam Z.; Schuett,Ole; Schiffmann,Florian; Golze,Dorothea;
 Wilhelm,Jan; Chulkov,Sergey; Bani-Hashemian,Mohammad Hossein;
 Weber,Valery; Borstnik,Urban; Taillefumier,Mathieu;
 Jakobovits,Alice Shoshana; Lazzaro,Alfio; Pabst,Hans; Mueller,Tiziano;
 Schade,Robert; Guidon,Manuel; Andermatt,Samuel; Holmberg,Nico;
 Schenter,Gregory K.; Hehn,Anna; Bussy,Augustin; Belleflamme,Fabian;
 Tabacchi,Gloria; Gloess,Andreas; Lass,Michael; Bethune,Iain;
 Mundy,Christopher J.; Plessl,Christian; Watkins,Matt;
 VandeVondele,Joost; Krack,Matthias; Hutter,Juerg. 
 The Journal of Chemical Physics, 152 (19), (2020). 
 CP2K: An electronic structure and molecular dynamics software package -
 Quickstep: Efficient and accurate electronic structure calculations.
 https://doi.org/10.1063/5.0007045

 Schuett, Ole; Messmer, Peter; Hutter, Juerg; VandeVondele, Joost. 
 Electronic Structure Calculations on Graphics Processing Units, John
 Wiley & Sons, Ltd, 173-190 (2016). 
 GPU-Accelerated Sparse Matrix-Matrix Multiplication for
 Linear Scaling Density Functional Theory.
 https://doi.org/10.1002/9781118670712.ch8

 Heinecke, A; Henry, G; Hutchinson, M; Pabst, H. 
 Proceedings of Intl. Supercomputing Conference, 981-991 (2016). 
 LIBXSMM: Accelerating Small Matrix Multiplications
 by Runtime Code Generation.
 https://doi.org/10.1109/SC.2016.83

 Borstnik, U; VandeVondele, J; Weber, V; Hutter, J. 
 PARALLEL COMPUTING, 40 (5-6), 47-58 (2014). 
 Sparse matrix multiplication: The distributed block-compressed sparse
 row library.
 https://doi.org/10.1016/j.parco.2014.03.012

 Hutter, J; Iannuzzi, M; Schiffmann, F; VandeVondele, J. 
 WIREs Comput Mol Sci., 4 (1), 15-25 (2014). 
 CP2K: atomistic simulations of condensed matter systems.
 https://doi.org/10.1002/wcms.1159

 Krack, M. 
 THEORETICAL CHEMISTRY ACCOUNTS, 114 (1-3), 145-152 (2005). 
 Pseudopotentials for H to Kr optimized for gradient-corrected
 exchange-correlation functionals.
 https://doi.org/10.1007/s00214-005-0655-y

 VandeVondele, J; Krack, M; Mohamed, F; Parrinello, M; Chassaing, T;
 Hutter, J. COMPUTER PHYSICS COMMUNICATIONS, 167 (2), 103-128 (2005). 
 QUICKSTEP: Fast and accurate density functional calculations using a
 mixed Gaussian and plane waves approach.
 https://doi.org/10.1016/j.cpc.2004.12.014

 Frigo, M; Johnson, SG. 
 PROCEEDINGS OF THE IEEE, 93 (2), 216-231 (2005). 
 The design and implementation of FFTW3.
 https://doi.org/10.1109/JPROC.2004.840301

 VandeVondele, J; Hutter, J. 
 JOURNAL OF CHEMICAL PHYSICS, 118 (10), 4365-4369 (2003). 
 An efficient orbital transformation method for electronic structure
 calculations.
 https://doi.org/10.1063/1.1543154

 Hartwigsen, C; Goedecker, S; Hutter, J. 
 PHYSICAL REVIEW B, 58 (7), 3641-3662 (1998). 
 Relativistic separable dual-space Gaussian pseudopotentials from H to Rn.
 https://doi.org/10.1103/PhysRevB.58.3641

 Lippert, G; Hutter, J; Parrinello, M. 
 MOLECULAR PHYSICS, 92 (3), 477-487 (1997). 
 A hybrid Gaussian and plane wave density functional scheme.
 https://doi.org/10.1080/002689797170220

 Perdew, JP; Burke, K; Ernzerhof, M. 
 PHYSICAL REVIEW LETTERS, 77 (18), 3865-3868 (1996). 
 Generalized gradient approximation made simple.
 https://doi.org/10.1103/PhysRevLett.77.3865

 Goedecker, S; Teter, M; Hutter, J. 
 PHYSICAL REVIEW B, 54 (3), 1703-1710 (1996). 
 Separable dual-space Gaussian pseudopotentials.
 https://doi.org/10.1103/PhysRevB.54.1703


 -------------------------------------------------------------------------------
 -                                                                             -
 -                                T I M I N G                                  -
 -                                                                             -
 -------------------------------------------------------------------------------
 SUBROUTINE                       CALLS  ASD         SELF TIME        TOTAL TIME
                                MAXIMUM       AVERAGE  MAXIMUM  AVERAGE  MAXIMUM
 CP2K                                 1  1.0    0.005    0.023   11.837   11.837
 qs_energies                          1  2.0    0.000    0.000   11.489   11.489
 scf_env_do_scf                       1  3.0    0.000    0.000   11.218   11.218
 scf_env_do_scf_inner_loop           18  4.0    0.001    0.002    9.926    9.927
 qs_ks_update_qs_env                 20  5.0    0.000    0.000    8.176    8.183
 rebuild_ks_matrix                   18  6.0    0.000    0.000    8.172    8.178
 qs_ks_build_kohn_sham_matrix        18  7.0    0.003    0.004    8.172    8.178
 pw_transfer                        348  9.6    0.030    0.039    5.996    6.800
 fft_wrap_pw1pw2                    312 10.7    0.004    0.005    5.928    6.730
 fft_wrap_pw1pw2_300                201 11.8    0.245    0.268    5.657    6.488
 qs_vxc_create                       18  8.0    0.000    0.001    5.593    5.620
 xc_vxc_pw_create                    18  9.0    0.045    0.049    5.593    5.620
 fft3d_ps                           312 12.7    2.111    2.247    4.816    5.515
 xc_rho_set_and_dset_create          18 10.0    0.020    0.021    3.035    3.544
 mp_alltoall_z22v                   312 14.7    2.243    3.040    2.243    3.040
 yz_to_x                            149 13.1    0.188    0.249    1.517    2.339
 qs_rho_update_rho                   19  5.0    0.000    0.000    2.306    2.306
 calculate_rho_elec                  19  6.0    0.020    0.022    2.306    2.306
 density_rs2pw                       19  7.0    0.001    0.001    1.836    1.989
 xc_functional_eval                  18 11.0    0.000    0.000    1.453    1.962
 pbe_lda_eval                        18 12.0    1.453    1.961    1.453    1.961
 sum_up_and_integrate                18  8.0    0.010    0.011    1.909    1.914
 integrate_v_rspace                  18  9.0    0.001    0.001    1.899    1.905
 rs_pw_transfer                     149  9.4    0.003    0.004    1.550    1.698
 potential_pw2rs                     18 10.0    0.002    0.002    1.398    1.400
 x_to_yz                            163 14.2    0.265    0.312    1.178    1.331
 init_scf_loop                        2  4.0    0.000    0.000    1.291    1.291
 rs_pw_transfer_RS2PW_300            20  8.9    0.208    0.259    0.507    0.667
 mp_waitall_1                     25347 13.9    0.512    0.605    0.512    0.605
 grid_collocate_task_list            19  7.0    0.382    0.590    0.382    0.590
 mp_waitany                        1064 11.4    0.374    0.539    0.374    0.539
 dbcsr_multiply_generic             405 10.0    0.012    0.013    0.501    0.513
 pw_scatter_p                       163 13.2    0.457    0.493    0.457    0.493
 qs_scf_new_mos                      18  5.0    0.000    0.000    0.483    0.488
 qs_scf_loop_do_ot                   18  6.0    0.000    0.000    0.483    0.488
 grid_integrate_task_list            18 10.0    0.237    0.483    0.237    0.483
 ot_scf_mini                         18  7.0    0.000    0.000    0.462    0.467
 pw_gather_p                        149 12.1    0.395    0.467    0.395    0.467
 mp_alltoall_d11v                   421 11.4    0.296    0.452    0.296    0.452
 rs_gather_matrices                  18 10.0    0.001    0.004    0.264    0.417
 rs_pw_transfer_PW2RS_300            18 12.0    0.208    0.229    0.389    0.417
 prepare_preconditioner               2  5.0    0.000    0.000    0.368    0.369
 rs_pw_transfer_PW2RS_100            18 12.0    0.056    0.064    0.314    0.344
 make_preconditioner                  2  6.0    0.000    0.000    0.342    0.343
 make_full_all                        2  7.0    0.000    0.000    0.328    0.329
 ot_mini                             18  8.0    0.000    0.000    0.308    0.314
 qs_init_subsys                       1  2.0    0.001    0.001    0.292    0.292
 qs_env_setup                         1  3.0    0.000    0.000    0.290    0.290
 qs_env_rebuild_pw_env                2  3.5    0.000    0.000    0.289    0.290
 pw_env_rebuild                       1  5.0    0.000    0.000    0.289    0.290
 multiply_cannon                    405 11.0    0.026    0.028    0.240    0.285
 fft_wrap_pw1pw2_100                 37 11.5    0.009    0.010    0.211    0.266
 cp_fm_syevd                         16 10.0    0.000    0.000    0.246    0.246
 cp_fm_redistribute_end              16 11.0    0.125    0.238    0.126    0.238
 -------------------------------------------------------------------------------

 The number of warnings for this run is : 1
 
 -------------------------------------------------------------------------------
  **** **** ******  **  PROGRAM ENDED AT                 2021-05-18 14:35:12.811
 ***** ** ***  *** **   PROGRAM RAN ON                                   tcopt10
 **    ****   ******    PROGRAM RAN BY                                    hutter
 ***** **    ** ** **   PROGRAM PROCESS ID                                 19521
  **** **  *******  **  PROGRAM STOPPED IN            /data/hutter/run/delta/new
