 DBCSR| CPU Multiplication driver                                           XSMM
 DBCSR| Multrec recursion limit                                              512
 DBCSR| Multiplication stack size                                           1000
 DBCSR| Maximum elements for images                                    UNLIMITED
 DBCSR| Multiplicative factor virtual images                                   1
 DBCSR| Use multiplication densification                                       T
 DBCSR| Multiplication size stacks                                             3
 DBCSR| Use memory pool for CPU allocation                                     F
 DBCSR| Number of 3D layers                                               SINGLE
 DBCSR| Use MPI memory allocation                                              F
 DBCSR| Use RMA algorithm                                                      F
 DBCSR| Use Communication thread                                               T
 DBCSR| Communication thread load                                             87
 DBCSR| MPI: My node id                                                        0
 DBCSR| MPI: Number of nodes                                                  24
 DBCSR| OMP: Current number of threads                                         1
 DBCSR| OMP: Max number of threads                                             1
 DBCSR| Split modifier for TAS multiplication algorithm                  1.0E+00


  **** **** ******  **  PROGRAM STARTED AT               2021-05-18 14:41:00.811
 ***** ** ***  *** **   PROGRAM STARTED ON                               tcopt10
 **    ****   ******    PROGRAM STARTED BY                                hutter
 ***** **    ** ** **   PROGRAM PROCESS ID                                 22774
  **** **  *******  **  PROGRAM STARTED IN            /data/hutter/run/delta/new

 CP2K| version string:                    CP2K version 9.0 (Development Version)
 CP2K| source code revision number:                                  git:4b756b0
 CP2K| cp2kflags: omp libint fftw3 libxc elpa parallel mpi3 scalapack xsmm spgli
 CP2K|            b sirius libvori libbqb
 CP2K| is freely available from                            https://www.cp2k.org/
 CP2K| Program compiled at                         Wed May  5 15:51:41 CEST 2021
 CP2K| Program compiled on                                               tcopt10
 CP2K| Program compiled for                                                local
 CP2K| Data directory path                 /data/hutter/GITHUB/CURRENT/cp2k/data
 CP2K| Input file name                                                N2-ref.inp

 GLOBAL| Force Environment number                                              1
 GLOBAL| Basis set file name                                      ../PBE_UCBASIS
 GLOBAL| Potential file name                                        ../POTENTIAL
 GLOBAL| MM Potential file name                                     MM_POTENTIAL
 GLOBAL| Coordinate file name                                      __STD_INPUT__
 GLOBAL| Method name                                                        CP2K
 GLOBAL| Project name                                                      refN2
 GLOBAL| Preferred FFT library                                             FFTW3
 GLOBAL| Preferred diagonalization lib.                                       SL
 GLOBAL| Run type                                                         ENERGY
 GLOBAL| All-to-all communication in single precision                          F
 GLOBAL| FFTs using library dependent lengths                                  F
 GLOBAL| Grid backend                                                       AUTO
 GLOBAL| Global print level                                                  LOW
 GLOBAL| MPI I/O enabled                                                       T
 GLOBAL| Total number of message passing processes                            24
 GLOBAL| Number of threads for this process                                    1
 GLOBAL| This output is from process                                           0
 GLOBAL| CPU model name                          AMD EPYC 7401 24-Core Processor
 GLOBAL| CPUID                                                              1002

 MEMORY| system memory details [Kb]
 MEMORY|                        rank 0           min           max       average
 MEMORY| MemTotal            263969868     263969868     263969868     263969868
 MEMORY| MemFree             218553112     218553112     218553112     218553112
 MEMORY| Buffers                    36            36            36            36
 MEMORY| Cached               37782080      37782080      37782080      37782080
 MEMORY| Slab                  3025676       3025676       3025676       3025676
 MEMORY| SReclaimable          1716668       1716668       1716668       1716668
 MEMORY| MemLikelyFree       258051896     258051896     258051896     258051896


 GENERATE|  Preliminary Number of Bonds generated:                             1
 GENERATE|  Achieved consistency in connectivity generation.
 GENERATE|  Number of Bonds generated:                                         1
 GENERATE|  Preliminary Number of Bends generated:                             0
 GENERATE|  Preliminary Number of Torsions generated:                          0

 *******************************************************************************
 *******************************************************************************
 **                                                                           **
 **     #####                         ##              ##                      **
 **    ##   ##            ##          ##              ##                      **
 **   ##     ##                       ##            ######                    **
 **   ##     ##  ##   ##  ##   #####  ##  ##   ####   ##    #####    #####    **
 **   ##     ##  ##   ##  ##  ##      ## ##   ##      ##   ##   ##  ##   ##   **
 **   ##  ## ##  ##   ##  ##  ##      ####     ###    ##   ######   ######    **
 **    ##  ###   ##   ##  ##  ##      ## ##      ##   ##   ##       ##        **
 **     #######   #####   ##   #####  ##  ##  ####    ##    #####   ##        **
 **           ##                                                    ##        **
 **                                                                           **
 **                                                ... make the atoms dance   **
 **                                                                           **
 **            Copyright (C) by CP2K developers group (2000-2021)             **
 **                      J. Chem. Phys. 152, 194103 (2020)                    **
 **                                                                           **
 *******************************************************************************


 TOTAL NUMBERS AND MAXIMUM NUMBERS

  Total number of            - Atomic kinds:                                   1
                             - Atoms:                                          2
                             - Shell sets:                                     4
                             - Shells:                                        56
                             - Primitive Cartesian functions:                 24
                             - Cartesian basis functions:                    312
                             - Spherical basis functions:                    232

  Maximum angular momentum of- Orbital basis functions:                        4
                             - Local part of the GTH pseudopotential:          2
                             - Non-local part of the GTH pseudopotential:      0


 SCF PARAMETERS         Density guess:                                    ATOMIC
                        --------------------------------------------------------
                        max_scf:                                              10
                        max_scf_history:                                       0
                        max_diis:                                              4
                        --------------------------------------------------------
                        eps_scf:                                        1.00E-07
                        eps_scf_history:                                0.00E+00
                        eps_diis:                                       1.00E-01
                        eps_eigval:                                     1.00E-05
                        --------------------------------------------------------
                        level_shift [a.u.]:                                 0.00
                        --------------------------------------------------------
                        Outer loop SCF in use 
                        No variables optimised in outer loop
                        eps_scf                                         1.00E-07
                        max_scf                                               10
                        No outer loop optimization
                        step_size                                       5.00E-01

 Number of electrons:                                                         10
 Number of occupied orbitals:                                                  5
 Number of molecular orbitals:                                                 5

 Number of orbital functions:                                                232
 Number of independent orbital functions:                                    232

 Extrapolation method: initial_guess


 SCF WAVEFUNCTION OPTIMIZATION

  ----------------------------------- OT ---------------------------------------
  Minimizer      : DIIS                : direct inversion
                                         in the iterative subspace
                                         using   7 DIIS vectors
                                         safer DIIS on
  Preconditioner : FULL_ALL            : diagonalization, state selective
  Precond_solver : DEFAULT
  stepsize       :    0.15000000                  energy_gap     :    0.08000000
  eps_taylor     :   0.10000E-15                  max_taylor     :             4
  ----------------------------------- OT ---------------------------------------

  Step     Update method      Time    Convergence         Total energy    Change
  ------------------------------------------------------------------------------
     1 OT DIIS     0.15E+00    0.5     0.11958908       -18.5370645961 -1.85E+01
     2 OT DIIS     0.15E+00    0.6     0.22091619       -17.3998660817  1.14E+00
     3 OT DIIS     0.15E+00    0.6     0.08821577       -19.2510405022 -1.85E+00
     4 OT DIIS     0.15E+00    0.6     0.05068223       -19.6409706162 -3.90E-01
     5 OT DIIS     0.15E+00    0.6     0.04556116       -19.7900189655 -1.49E-01
     6 OT DIIS     0.15E+00    0.6     0.06707588       -19.7904921245 -4.73E-04
     7 OT DIIS     0.15E+00    0.6     0.01367267       -19.8961784467 -1.06E-01
     8 OT DIIS     0.15E+00    0.6     0.00813429       -19.9050145560 -8.84E-03
     9 OT DIIS     0.15E+00    0.6     0.00780015       -19.9073304100 -2.32E-03
    10 OT DIIS     0.15E+00    0.6     0.00242469       -19.9093575496 -2.03E-03

  Leaving inner SCF loop after reaching    10 steps.


  Electronic density on regular grids:        -10.0000000000        0.0000000000
  Core density on regular grids:               10.0000000000       -0.0000000000
  Total charge density on r-space grids:        0.0000000000
  Total charge density g-space grids:           0.0000000000

  Overlap energy of the core charge distribution:               0.00000195470856
  Self energy of the core charge distribution:                -49.69502287300324
  Core Hamiltonian energy:                                     14.19823677826018
  Hartree energy:                                              20.47950535279745
  Exchange-correlation energy:                                 -4.89207876239830

  Total energy:                                               -19.90935754963535

  outer SCF iter =    1 RMS gradient =   0.24E-02 energy =        -19.9093575496

  ----------------------------------- OT ---------------------------------------
  Minimizer      : DIIS                : direct inversion
                                         in the iterative subspace
                                         using   7 DIIS vectors
                                         safer DIIS on
  Preconditioner : FULL_ALL            : diagonalization, state selective
  Precond_solver : DEFAULT
  stepsize       :    0.15000000                  energy_gap     :    0.08000000
  eps_taylor     :   0.10000E-15                  max_taylor     :             4
  ----------------------------------- OT ---------------------------------------

  Step     Update method      Time    Convergence         Total energy    Change
  ------------------------------------------------------------------------------
     1 OT DIIS     0.15E+00    1.1     0.00088193       -19.9095622648 -2.05E-04
     2 OT DIIS     0.15E+00    0.6     0.00042646       -19.9096483961 -8.61E-05
     3 OT DIIS     0.15E+00    0.5     0.00054260       -19.9096550788 -6.68E-06
     4 OT DIIS     0.15E+00    0.5     0.00004320       -19.9096658443 -1.08E-05
     5 OT DIIS     0.15E+00    0.6     0.00000416       -19.9096659875 -1.43E-07
     6 OT DIIS     0.15E+00    0.6     0.00000098       -19.9096659896 -2.08E-09
     7 OT DIIS     0.15E+00    0.6     0.00000012       -19.9096659897 -1.31E-10
     8 OT DIIS     0.15E+00    0.5     0.00000002       -19.9096659897 -1.89E-12

  *** SCF run converged in     8 steps ***


  Electronic density on regular grids:        -10.0000000000        0.0000000000
  Core density on regular grids:               10.0000000000       -0.0000000000
  Total charge density on r-space grids:        0.0000000000
  Total charge density g-space grids:           0.0000000000

  Overlap energy of the core charge distribution:               0.00000195470856
  Self energy of the core charge distribution:                -49.69502287300324
  Core Hamiltonian energy:                                     14.19871221406647
  Hartree energy:                                              20.47824150111115
  Exchange-correlation energy:                                 -4.89159878656932

  Total energy:                                               -19.90966598968638

  outer SCF iter =    2 RMS gradient =   0.16E-07 energy =        -19.9096659897
  outer SCF loop converged in   2 iterations or   18 steps


 ENERGY| Total FORCE_EVAL ( QS ) energy [a.u.]:              -19.909665989686378

 -------------------------------------------------------------------------------
 -                                                                             -
 -                                DBCSR STATISTICS                             -
 -                                                                             -
 -------------------------------------------------------------------------------
 COUNTER                                    TOTAL       BLAS       SMM       ACC
 flops     5 x     5 x     5                32000       0.0%    100.0%      0.0%
 flops     5 x     5 x   116               858400       0.0%    100.0%      0.0%
 flops   232 x     5 x     5              1067200       0.0%    100.0%      0.0%
 flops   116 x   116 x     5              7669920       0.0%    100.0%      0.0%
 flops   232 x     5 x   116             21529600       0.0%    100.0%      0.0%
 flops   116 x     5 x   116             26912000       0.0%    100.0%      0.0%
 flops inhomo. stacks                           0       0.0%      0.0%      0.0%
 flops total                        58.069120E+06       0.0%    100.0%      0.0%
 flops max/rank                     58.069120E+06       0.0%    100.0%      0.0%
 matmuls inhomo. stacks                         0       0.0%      0.0%      0.0%
 matmuls total                                705       0.0%    100.0%      0.0%
 number of processed stacks                   567       0.0%    100.0%      0.0%
 average stack size                                     0.0       1.2       0.0
 marketing flops                    60.648960E+06
 -------------------------------------------------------------------------------
 # multiplications                            405
 max memory usage/rank             332.193792E+06
 # max total images/rank                        3
 # max 3D layers                                1
 # MPI messages exchanged                  184680
 MPI messages size (bytes):
  total size                       207.705120E+06
  min size                           0.000000E+00
  max size                         215.296000E+03
  average size                       1.124676E+03
 MPI breakdown and total messages size (bytes):
             size <=      128              180144                        0
       128 < size <=     8192                3024                  8259360
      8192 < size <=    32768                 612                  5679360
     32768 < size <=   131072                   0                        0
    131072 < size <=  4194304                 900                193766400
   4194304 < size <= 16777216                   0                        0
  16777216 < size                               0                        0
 -------------------------------------------------------------------------------

 *** WARNING in dbcsr_mm.F:294 :: Using a non-square number of MPI ranks ***
 *** might lead to poor performance. Used ranks: 24 Suggested: 25 49     ***

 -------------------------------------------------------------------------------
 -                                                                             -
 -                      DBCSR MESSAGE PASSING PERFORMANCE                      -
 -                                                                             -
 -------------------------------------------------------------------------------
 ROUTINE             CALLS      AVE VOLUME [Bytes]
 MP_Bcast                7                     12.
 MP_Allreduce         2147                      8.
 MP_Alltoall          1634                   7932.
 MP_ISend            17002                   2545.
 MP_IRecv            17002                     60.
 -------------------------------------------------------------------------------

 -------------------------------------------------------------------------------
 -                                                                             -
 -                                GRID STATISTICS                              -
 -                                                                             -
 -------------------------------------------------------------------------------
 LP    KERNEL             BACKEND                              COUNT     PERCENT
 5     collocate ortho    REF                                   5016      23.40%
 5     integrate ortho    REF                                   4752      22.17%
 2     collocate ortho    REF                                   4693      21.90%
 2     integrate ortho    REF                                   4446      20.74%
 8     collocate ortho    REF                                   1273       5.94%
 8     integrate ortho    REF                                   1206       5.63%
 0     collocate general  REF                                     48       0.22%
 -------------------------------------------------------------------------------

 MEMORY| Estimated peak process memory [MiB]                                 317

 -------------------------------------------------------------------------------
 -                                                                             -
 -                         MESSAGE PASSING PERFORMANCE                         -
 -                                                                             -
 -------------------------------------------------------------------------------

 ROUTINE             CALLS      AVE VOLUME [Bytes]
 MP_Group                4
 MP_Bcast              182                 630867.
 MP_Allreduce          786                    768.
 MP_Sync                20
 MP_Alltoall           361                9689831.
 MP_ISendRecv         2553                 191232.
 MP_Wait              3731
 MP_comm_split          16
 MP_ISend             1064                 411255.
 MP_IRecv             1064                 411499.
 MP_Recv                 4                   1856.
 -------------------------------------------------------------------------------


 -------------------------------------------------------------------------------
 -                                                                             -
 -                           R E F E R E N C E S                               -
 -                                                                             -
 -------------------------------------------------------------------------------
 
 CP2K version 9.0 (Development Version), the CP2K developers group (2020).
 CP2K is freely available from https://www.cp2k.org/ .

 Kuehne,Thomas D.; Iannuzzi,Marcella; Del Ben,Mauro;
 Rybkin,Vladimir V.; Seewald,Patrick; Stein,Frederick; Laino,Teodoro;
 Khaliullin,Rustam Z.; Schuett,Ole; Schiffmann,Florian; Golze,Dorothea;
 Wilhelm,Jan; Chulkov,Sergey; Bani-Hashemian,Mohammad Hossein;
 Weber,Valery; Borstnik,Urban; Taillefumier,Mathieu;
 Jakobovits,Alice Shoshana; Lazzaro,Alfio; Pabst,Hans; Mueller,Tiziano;
 Schade,Robert; Guidon,Manuel; Andermatt,Samuel; Holmberg,Nico;
 Schenter,Gregory K.; Hehn,Anna; Bussy,Augustin; Belleflamme,Fabian;
 Tabacchi,Gloria; Gloess,Andreas; Lass,Michael; Bethune,Iain;
 Mundy,Christopher J.; Plessl,Christian; Watkins,Matt;
 VandeVondele,Joost; Krack,Matthias; Hutter,Juerg. 
 The Journal of Chemical Physics, 152 (19), (2020). 
 CP2K: An electronic structure and molecular dynamics software package -
 Quickstep: Efficient and accurate electronic structure calculations.
 https://doi.org/10.1063/5.0007045

 Schuett, Ole; Messmer, Peter; Hutter, Juerg; VandeVondele, Joost. 
 Electronic Structure Calculations on Graphics Processing Units, John
 Wiley & Sons, Ltd, 173-190 (2016). 
 GPU-Accelerated Sparse Matrix-Matrix Multiplication for
 Linear Scaling Density Functional Theory.
 https://doi.org/10.1002/9781118670712.ch8

 Heinecke, A; Henry, G; Hutchinson, M; Pabst, H. 
 Proceedings of Intl. Supercomputing Conference, 981-991 (2016). 
 LIBXSMM: Accelerating Small Matrix Multiplications
 by Runtime Code Generation.
 https://doi.org/10.1109/SC.2016.83

 Borstnik, U; VandeVondele, J; Weber, V; Hutter, J. 
 PARALLEL COMPUTING, 40 (5-6), 47-58 (2014). 
 Sparse matrix multiplication: The distributed block-compressed sparse
 row library.
 https://doi.org/10.1016/j.parco.2014.03.012

 Hutter, J; Iannuzzi, M; Schiffmann, F; VandeVondele, J. 
 WIREs Comput Mol Sci., 4 (1), 15-25 (2014). 
 CP2K: atomistic simulations of condensed matter systems.
 https://doi.org/10.1002/wcms.1159

 Krack, M. 
 THEORETICAL CHEMISTRY ACCOUNTS, 114 (1-3), 145-152 (2005). 
 Pseudopotentials for H to Kr optimized for gradient-corrected
 exchange-correlation functionals.
 https://doi.org/10.1007/s00214-005-0655-y

 VandeVondele, J; Krack, M; Mohamed, F; Parrinello, M; Chassaing, T;
 Hutter, J. COMPUTER PHYSICS COMMUNICATIONS, 167 (2), 103-128 (2005). 
 QUICKSTEP: Fast and accurate density functional calculations using a
 mixed Gaussian and plane waves approach.
 https://doi.org/10.1016/j.cpc.2004.12.014

 Frigo, M; Johnson, SG. 
 PROCEEDINGS OF THE IEEE, 93 (2), 216-231 (2005). 
 The design and implementation of FFTW3.
 https://doi.org/10.1109/JPROC.2004.840301

 VandeVondele, J; Hutter, J. 
 JOURNAL OF CHEMICAL PHYSICS, 118 (10), 4365-4369 (2003). 
 An efficient orbital transformation method for electronic structure
 calculations.
 https://doi.org/10.1063/1.1543154

 Hartwigsen, C; Goedecker, S; Hutter, J. 
 PHYSICAL REVIEW B, 58 (7), 3641-3662 (1998). 
 Relativistic separable dual-space Gaussian pseudopotentials from H to Rn.
 https://doi.org/10.1103/PhysRevB.58.3641

 Lippert, G; Hutter, J; Parrinello, M. 
 MOLECULAR PHYSICS, 92 (3), 477-487 (1997). 
 A hybrid Gaussian and plane wave density functional scheme.
 https://doi.org/10.1080/002689797170220

 Perdew, JP; Burke, K; Ernzerhof, M. 
 PHYSICAL REVIEW LETTERS, 77 (18), 3865-3868 (1996). 
 Generalized gradient approximation made simple.
 https://doi.org/10.1103/PhysRevLett.77.3865

 Goedecker, S; Teter, M; Hutter, J. 
 PHYSICAL REVIEW B, 54 (3), 1703-1710 (1996). 
 Separable dual-space Gaussian pseudopotentials.
 https://doi.org/10.1103/PhysRevB.54.1703


 -------------------------------------------------------------------------------
 -                                                                             -
 -                                T I M I N G                                  -
 -                                                                             -
 -------------------------------------------------------------------------------
 SUBROUTINE                       CALLS  ASD         SELF TIME        TOTAL TIME
                                MAXIMUM       AVERAGE  MAXIMUM  AVERAGE  MAXIMUM
 CP2K                                 1  1.0    0.007    0.023   10.757   10.758
 qs_energies                          1  2.0    0.000    0.000   10.604   10.604
 scf_env_do_scf                       1  3.0    0.000    0.000   10.338   10.338
 scf_env_do_scf_inner_loop           18  4.0    0.001    0.002    9.371    9.371
 qs_ks_update_qs_env                 20  5.0    0.000    0.000    7.808    7.821
 rebuild_ks_matrix                   18  6.0    0.000    0.000    7.803    7.817
 qs_ks_build_kohn_sham_matrix        18  7.0    0.003    0.004    7.803    7.817
 pw_transfer                        348  9.6    0.031    0.039    6.246    7.420
 fft_wrap_pw1pw2                    312 10.7    0.004    0.006    6.178    7.345
 fft_wrap_pw1pw2_300                201 11.8    0.245    0.274    5.902    7.102
 fft3d_ps                           312 12.7    2.104    2.414    5.065    6.356
 qs_vxc_create                       18  8.0    0.000    0.001    5.616    5.646
 xc_vxc_pw_create                    18  9.0    0.044    0.049    5.615    5.646
 mp_alltoall_z22v                   312 14.7    2.498    4.068    2.498    4.068
 xc_rho_set_and_dset_create          18 10.0    0.019    0.022    2.873    3.582
 yz_to_x                            149 13.1    0.188    0.242    1.722    3.018
 qs_rho_update_rho                   19  5.0    0.000    0.000    2.111    2.111
 calculate_rho_elec                  19  6.0    0.020    0.022    2.111    2.111
 xc_functional_eval                  18 11.0    0.000    0.000    1.247    1.948
 pbe_lda_eval                        18 12.0    1.247    1.948    1.247    1.948
 density_rs2pw                       19  7.0    0.001    0.001    1.743    1.810
 rs_pw_transfer                     149  9.4    0.003    0.006    1.441    1.523
 sum_up_and_integrate                18  8.0    0.010    0.011    1.514    1.522
 integrate_v_rspace                  18  9.0    0.000    0.001    1.504    1.513
 x_to_yz                            163 14.2    0.265    0.313    1.230    1.406
 potential_pw2rs                     18 10.0    0.002    0.002    1.361    1.363
 init_scf_loop                        2  4.0    0.000    0.000    0.966    0.966
 mp_waitall_1                     25347 13.9    0.479    0.592    0.479    0.592
 pw_scatter_p                       163 13.2    0.456    0.496    0.456    0.496
 rs_pw_transfer_RS2PW_300            20  8.9    0.201    0.224    0.416    0.488
 pw_gather_p                        149 12.1    0.396    0.469    0.396    0.469
 dbcsr_multiply_generic             405 10.0    0.012    0.013    0.426    0.436
 qs_scf_new_mos                      18  5.0    0.000    0.000    0.416    0.420
 qs_scf_loop_do_ot                   18  6.0    0.000    0.000    0.416    0.420
 ot_scf_mini                         18  7.0    0.000    0.000    0.399    0.402
 rs_pw_transfer_PW2RS_300            18 12.0    0.187    0.204    0.362    0.388
 rs_pw_transfer_PW2RS_100            18 12.0    0.060    0.067    0.321    0.352
 mp_waitany                        1064 11.4    0.289    0.349    0.289    0.349
 grid_collocate_task_list            19  7.0    0.242    0.286    0.242    0.286
 ot_mini                             18  8.0    0.000    0.000    0.272    0.276
 fft_wrap_pw1pw2_100                 37 11.5    0.009    0.010    0.209    0.272
 multiply_cannon                    405 11.0    0.027    0.030    0.189    0.229
 mp_sum_d                           777  5.7    0.150    0.221    0.150    0.221
 -------------------------------------------------------------------------------

 The number of warnings for this run is : 1
 
 -------------------------------------------------------------------------------
  **** **** ******  **  PROGRAM ENDED AT                 2021-05-18 14:41:12.180
 ***** ** ***  *** **   PROGRAM RAN ON                                   tcopt10
 **    ****   ******    PROGRAM RAN BY                                    hutter
 ***** **    ** ** **   PROGRAM PROCESS ID                                 22774
  **** **  *******  **  PROGRAM STOPPED IN            /data/hutter/run/delta/new
