 DBCSR| CPU Multiplication driver                                           XSMM
 DBCSR| Multrec recursion limit                                              512
 DBCSR| Multiplication stack size                                           1000
 DBCSR| Maximum elements for images                                    UNLIMITED
 DBCSR| Multiplicative factor virtual images                                   1
 DBCSR| Use multiplication densification                                       T
 DBCSR| Multiplication size stacks                                             3
 DBCSR| Use memory pool for CPU allocation                                     F
 DBCSR| Number of 3D layers                                               SINGLE
 DBCSR| Use MPI memory allocation                                              F
 DBCSR| Use RMA algorithm                                                      F
 DBCSR| Use Communication thread                                               T
 DBCSR| Communication thread load                                             87
 DBCSR| MPI: My node id                                                        0
 DBCSR| MPI: Number of nodes                                                  24
 DBCSR| OMP: Current number of threads                                         1
 DBCSR| OMP: Max number of threads                                             1
 DBCSR| Split modifier for TAS multiplication algorithm                  1.0E+00


  **** **** ******  **  PROGRAM STARTED AT               2021-05-18 14:39:03.240
 ***** ** ***  *** **   PROGRAM STARTED ON                               tcopt10
 **    ****   ******    PROGRAM STARTED BY                                hutter
 ***** **    ** ** **   PROGRAM PROCESS ID                                 21724
  **** **  *******  **  PROGRAM STARTED IN            /data/hutter/run/delta/new

 CP2K| version string:                    CP2K version 9.0 (Development Version)
 CP2K| source code revision number:                                  git:4b756b0
 CP2K| cp2kflags: omp libint fftw3 libxc elpa parallel mpi3 scalapack xsmm spgli
 CP2K|            b sirius libvori libbqb
 CP2K| is freely available from                            https://www.cp2k.org/
 CP2K| Program compiled at                         Wed May  5 15:51:41 CEST 2021
 CP2K| Program compiled on                                               tcopt10
 CP2K| Program compiled for                                                local
 CP2K| Data directory path                 /data/hutter/GITHUB/CURRENT/cp2k/data
 CP2K| Input file name                                              N2H2-ref.inp

 GLOBAL| Force Environment number                                              1
 GLOBAL| Basis set file name                                      ../PBE_UCBASIS
 GLOBAL| Potential file name                                        ../POTENTIAL
 GLOBAL| MM Potential file name                                     MM_POTENTIAL
 GLOBAL| Coordinate file name                                      __STD_INPUT__
 GLOBAL| Method name                                                        CP2K
 GLOBAL| Project name                                                    refN2H2
 GLOBAL| Preferred FFT library                                             FFTW3
 GLOBAL| Preferred diagonalization lib.                                       SL
 GLOBAL| Run type                                                         ENERGY
 GLOBAL| All-to-all communication in single precision                          F
 GLOBAL| FFTs using library dependent lengths                                  F
 GLOBAL| Grid backend                                                       AUTO
 GLOBAL| Global print level                                                  LOW
 GLOBAL| MPI I/O enabled                                                       T
 GLOBAL| Total number of message passing processes                            24
 GLOBAL| Number of threads for this process                                    1
 GLOBAL| This output is from process                                           0
 GLOBAL| CPU model name                          AMD EPYC 7401 24-Core Processor
 GLOBAL| CPUID                                                              1002

 MEMORY| system memory details [Kb]
 MEMORY|                        rank 0           min           max       average
 MEMORY| MemTotal            263969868     263969868     263969868     263969868
 MEMORY| MemFree             218533080     218533080     218533080     218533080
 MEMORY| Buffers                    36            36            36            36
 MEMORY| Cached               37781264      37781264      37781264      37781264
 MEMORY| Slab                  3026340       3026340       3026340       3026340
 MEMORY| SReclaimable          1718396       1718396       1718396       1718396
 MEMORY| MemLikelyFree       258032776     258032776     258032776     258032776


 GENERATE|  Preliminary Number of Bonds generated:                             2
 GENERATE|  Achieved consistency in connectivity generation.
 GENERATE|  Number of Bonds generated:                                         2
 GENERATE|  Preliminary Number of Bends generated:                             0
 GENERATE|  Preliminary Number of Torsions generated:                          0

 *******************************************************************************
 *******************************************************************************
 **                                                                           **
 **     #####                         ##              ##                      **
 **    ##   ##            ##          ##              ##                      **
 **   ##     ##                       ##            ######                    **
 **   ##     ##  ##   ##  ##   #####  ##  ##   ####   ##    #####    #####    **
 **   ##     ##  ##   ##  ##  ##      ## ##   ##      ##   ##   ##  ##   ##   **
 **   ##  ## ##  ##   ##  ##  ##      ####     ###    ##   ######   ######    **
 **    ##  ###   ##   ##  ##  ##      ## ##      ##   ##   ##       ##        **
 **     #######   #####   ##   #####  ##  ##  ####    ##    #####   ##        **
 **           ##                                                    ##        **
 **                                                                           **
 **                                                ... make the atoms dance   **
 **                                                                           **
 **            Copyright (C) by CP2K developers group (2000-2021)             **
 **                      J. Chem. Phys. 152, 194103 (2020)                    **
 **                                                                           **
 *******************************************************************************


 TOTAL NUMBERS AND MAXIMUM NUMBERS

  Total number of            - Atomic kinds:                                   2
                             - Atoms:                                          4
                             - Shell sets:                                     8
                             - Shells:                                        96
                             - Primitive Cartesian functions:                 48
                             - Cartesian basis functions:                    480
                             - Spherical basis functions:                    368

  Maximum angular momentum of- Orbital basis functions:                        4
                             - Local part of the GTH pseudopotential:          2
                             - Non-local part of the GTH pseudopotential:      0


 SCF PARAMETERS         Density guess:                                    ATOMIC
                        --------------------------------------------------------
                        max_scf:                                              10
                        max_scf_history:                                       0
                        max_diis:                                              4
                        --------------------------------------------------------
                        eps_scf:                                        1.00E-07
                        eps_scf_history:                                0.00E+00
                        eps_diis:                                       1.00E-01
                        eps_eigval:                                     1.00E-05
                        --------------------------------------------------------
                        level_shift [a.u.]:                                 0.00
                        --------------------------------------------------------
                        Outer loop SCF in use 
                        No variables optimised in outer loop
                        eps_scf                                         1.00E-07
                        max_scf                                               10
                        No outer loop optimization
                        step_size                                       5.00E-01

 Number of electrons:                                                         12
 Number of occupied orbitals:                                                  6
 Number of molecular orbitals:                                                 6

 Number of orbital functions:                                                368
 Number of independent orbital functions:                                    368

 Extrapolation method: initial_guess


 SCF WAVEFUNCTION OPTIMIZATION

  ----------------------------------- OT ---------------------------------------
  Minimizer      : DIIS                : direct inversion
                                         in the iterative subspace
                                         using   7 DIIS vectors
                                         safer DIIS on
  Preconditioner : FULL_ALL            : diagonalization, state selective
  Precond_solver : DEFAULT
  stepsize       :    0.15000000                  energy_gap     :    0.08000000
  eps_taylor     :   0.10000E-15                  max_taylor     :             4
  ----------------------------------- OT ---------------------------------------

  Step     Update method      Time    Convergence         Total energy    Change
  ------------------------------------------------------------------------------
     1 OT DIIS     0.15E+00    0.6     0.11874627       -19.6363328039 -1.96E+01
     2 OT DIIS     0.15E+00    0.6     0.18503035       -18.7113185752  9.25E-01
     3 OT DIIS     0.15E+00    0.6     0.06198168       -20.0385082495 -1.33E+00
     4 OT DIIS     0.15E+00    0.6     0.05897046       -20.3662335020 -3.28E-01
     5 OT DIIS     0.15E+00    0.6     0.03954050       -20.5898403756 -2.24E-01
     6 OT DIIS     0.15E+00    0.6     0.03809817       -20.6729196649 -8.31E-02
     7 OT DIIS     0.15E+00    0.6     0.03784114       -20.6905920997 -1.77E-02
     8 OT DIIS     0.15E+00    0.6     0.03402330       -20.8190821701 -1.28E-01
     9 OT DIIS     0.15E+00    0.6     0.08148499       -20.4581748575  3.61E-01
    10 OT DIIS     0.15E+00    0.6     0.04259683       -20.8916846089 -4.34E-01

  Leaving inner SCF loop after reaching    10 steps.


  Electronic density on regular grids:        -12.0000000000       -0.0000000000
  Core density on regular grids:               12.0000000000       -0.0000000000
  Total charge density on r-space grids:       -0.0000000000
  Total charge density g-space grids:          -0.0000000000

  Overlap energy of the core charge distribution:               0.00000008794287
  Self energy of the core charge distribution:                -52.50762898047932
  Core Hamiltonian energy:                                     15.35483559969658
  Hartree energy:                                              21.90806584951923
  Exchange-correlation energy:                                 -5.64695716559991

  Total energy:                                               -20.89168460892055

  outer SCF iter =    1 RMS gradient =   0.43E-01 energy =        -20.8916846089

  ----------------------------------- OT ---------------------------------------
  Minimizer      : DIIS                : direct inversion
                                         in the iterative subspace
                                         using   7 DIIS vectors
                                         safer DIIS on
  Preconditioner : FULL_ALL            : diagonalization, state selective
  Precond_solver : DEFAULT
  stepsize       :    0.15000000                  energy_gap     :    0.08000000
  eps_taylor     :   0.10000E-15                  max_taylor     :             4
  ----------------------------------- OT ---------------------------------------

  Step     Update method      Time    Convergence         Total energy    Change
  ------------------------------------------------------------------------------
     1 OT DIIS     0.15E+00    1.3     0.01076688       -20.9934063715 -1.02E-01
     2 OT DIIS     0.15E+00    0.6     0.01014721       -21.0062643468 -1.29E-02
     3 OT DIIS     0.15E+00    0.6     0.00405840       -21.0129782782 -6.71E-03
     4 OT DIIS     0.15E+00    0.6     0.00102698       -21.0148482071 -1.87E-03
     5 OT DIIS     0.15E+00    0.6     0.00013236       -21.0150014676 -1.53E-04
     6 OT DIIS     0.15E+00    0.6     0.00004123       -21.0150046224 -3.15E-06
     7 OT DIIS     0.15E+00    0.6     0.00001372       -21.0150049888 -3.66E-07
     8 OT DIIS     0.15E+00    0.6     0.00000291       -21.0150050189 -3.01E-08
     9 OT DIIS     0.15E+00    0.6     0.00000051       -21.0150050209 -1.97E-09
    10 OT DIIS     0.15E+00    0.6     0.00000010       -21.0150050210 -7.21E-11

  Leaving inner SCF loop after reaching    10 steps.


  Electronic density on regular grids:        -12.0000000000        0.0000000000
  Core density on regular grids:               12.0000000000       -0.0000000000
  Total charge density on r-space grids:       -0.0000000000
  Total charge density g-space grids:          -0.0000000000

  Overlap energy of the core charge distribution:               0.00000008794287
  Self energy of the core charge distribution:                -52.50762898047932
  Core Hamiltonian energy:                                     15.34392533043716
  Hartree energy:                                              21.81076754498818
  Exchange-correlation energy:                                 -5.66206900386625

  Total energy:                                               -21.01500502097736

  outer SCF iter =    2 RMS gradient =   0.10E-06 energy =        -21.0150050210

  ----------------------------------- OT ---------------------------------------
  Minimizer      : DIIS                : direct inversion
                                         in the iterative subspace
                                         using   7 DIIS vectors
                                         safer DIIS on
  Preconditioner : FULL_ALL            : diagonalization, state selective
  Precond_solver : DEFAULT
  stepsize       :    0.15000000                  energy_gap     :    0.08000000
  eps_taylor     :   0.10000E-15                  max_taylor     :             4
  ----------------------------------- OT ---------------------------------------

  Step     Update method      Time    Convergence         Total energy    Change
  ------------------------------------------------------------------------------
     1 OT DIIS     0.15E+00    1.3     0.00000004       -21.0150050210 -1.95E-12

  *** SCF run converged in     1 steps ***


  Electronic density on regular grids:        -12.0000000000        0.0000000000
  Core density on regular grids:               12.0000000000       -0.0000000000
  Total charge density on r-space grids:       -0.0000000000
  Total charge density g-space grids:          -0.0000000000

  Overlap energy of the core charge distribution:               0.00000008794287
  Self energy of the core charge distribution:                -52.50762898047932
  Core Hamiltonian energy:                                     15.34392579422299
  Hartree energy:                                              21.81076718591196
  Exchange-correlation energy:                                 -5.66206910857782

  Total energy:                                               -21.01500502097931

  outer SCF iter =    3 RMS gradient =   0.37E-07 energy =        -21.0150050210
  outer SCF loop converged in   3 iterations or   21 steps


 ENERGY| Total FORCE_EVAL ( QS ) energy [a.u.]:              -21.015005020979309

 -------------------------------------------------------------------------------
 -                                                                             -
 -                                DBCSR STATISTICS                             -
 -                                                                             -
 -------------------------------------------------------------------------------
 COUNTER                                    TOTAL       BLAS       SMM       ACC
 flops     6 x     6 x     6                76032       0.0%    100.0%      0.0%
 flops     6 x     6 x    68               851904       0.0%    100.0%      0.0%
 flops    68 x     6 x     6              1057536       0.0%    100.0%      0.0%
 flops     6 x     6 x   116              1453248       0.0%    100.0%      0.0%
 flops   232 x     6 x     6              1804032       0.0%    100.0%      0.0%
 flops    68 x    68 x     6              3662208       0.0%    100.0%      0.0%
 flops    68 x   116 x     6              4164864       0.0%    100.0%      0.0%
 flops   116 x    68 x     6              4164864       0.0%    100.0%      0.0%
 flops   116 x   116 x     6             10657152       0.0%    100.0%      0.0%
 flops   232 x     6 x    68             18173952       0.0%    100.0%      0.0%
 flops   116 x     6 x    68             23474688       0.0%    100.0%      0.0%
 flops    68 x     6 x    68             24414720       0.0%    100.0%      0.0%
 flops   232 x     6 x   116             31002624       0.0%    100.0%      0.0%
 flops   116 x     6 x   116             40045056       0.0%    100.0%      0.0%
 flops    68 x     6 x   116             41648640       0.0%    100.0%      0.0%
 flops inhomo. stacks                           0       0.0%      0.0%      0.0%
 flops total                       206.651520E+06       0.0%    100.0%      0.0%
 flops max/rank                    127.538688E+06       0.0%    100.0%      0.0%
 matmuls inhomo. stacks                         0       0.0%      0.0%      0.0%
 matmuls total                               2636       0.0%    100.0%      0.0%
 number of processed stacks                  2344       0.0%    100.0%      0.0%
 average stack size                                     0.0       1.1       0.0
 marketing flops                   219.833856E+06
 -------------------------------------------------------------------------------
 # multiplications                            506
 max memory usage/rank             333.144064E+06
 # max total images/rank                        3
 # max 3D layers                                1
 # MPI messages exchanged                  230736
 MPI messages size (bytes):
  total size                       627.135104E+06
  min size                           0.000000E+00
  max size                         215.296000E+03
  average size                       2.717977E+03
 MPI breakdown and total messages size (bytes):
             size <=      128              216152                        0
       128 < size <=     8192                7268                 23296128
      8192 < size <=    32768                 716                  7973376
     32768 < size <=   131072                5500                359040000
    131072 < size <=  4194304                1100                236825600
   4194304 < size <= 16777216                   0                        0
  16777216 < size                               0                        0
 -------------------------------------------------------------------------------

 *** WARNING in dbcsr_mm.F:294 :: Using a non-square number of MPI ranks ***
 *** might lead to poor performance. Used ranks: 24 Suggested: 25 49     ***

 -------------------------------------------------------------------------------
 -                                                                             -
 -                      DBCSR MESSAGE PASSING PERFORMANCE                      -
 -                                                                             -
 -------------------------------------------------------------------------------
 ROUTINE             CALLS      AVE VOLUME [Bytes]
 MP_Bcast               16                     12.
 MP_Allreduce         2678                      8.
 MP_Alltoall          2186                   8948.
 MP_ISend            21240                   3920.
 MP_IRecv            21240                   1453.
 -------------------------------------------------------------------------------

 -------------------------------------------------------------------------------
 -                                                                             -
 -                                GRID STATISTICS                              -
 -                                                                             -
 -------------------------------------------------------------------------------
 LP    KERNEL             BACKEND                              COUNT     PERCENT
 4     collocate ortho    REF                                   9284       9.47%
 4     integrate ortho    REF                                   8862       9.04%
 1     collocate ortho    REF                                   8404       8.57%
 1     integrate ortho    REF                                   8022       8.18%
 3     collocate ortho    REF                                   7656       7.81%
 0     collocate ortho    REF                                   7326       7.47%
 3     integrate ortho    REF                                   7308       7.45%
 0     integrate ortho    REF                                   6993       7.13%
 5     collocate ortho    REF                                   5852       5.97%
 5     integrate ortho    REF                                   5586       5.70%
 2     collocate ortho    REF                                   5390       5.50%
 2     integrate ortho    REF                                   5145       5.25%
 7     collocate ortho    REF                                   2420       2.47%
 6     collocate ortho    REF                                   2310       2.36%
 7     integrate ortho    REF                                   2310       2.36%
 6     integrate ortho    REF                                   2205       2.25%
 8     collocate ortho    REF                                   1474       1.50%
 8     integrate ortho    REF                                   1407       1.43%
 0     collocate general  REF                                     96       0.10%
 -------------------------------------------------------------------------------

 MEMORY| Estimated peak process memory [MiB]                                 318

 -------------------------------------------------------------------------------
 -                                                                             -
 -                         MESSAGE PASSING PERFORMANCE                         -
 -                                                                             -
 -------------------------------------------------------------------------------

 ROUTINE             CALLS      AVE VOLUME [Bytes]
 MP_Group                4
 MP_Bcast              307                 747561.
 MP_Allreduce         1103                    556.
 MP_Sync                32
 MP_Alltoall           418                9597139.
 MP_ISendRecv         2967                 191232.
 MP_Wait              4331
 MP_comm_split          28
 MP_ISend             1232                 411272.
 MP_IRecv             1232                 411482.
 MP_Recv                10                   2944.
 -------------------------------------------------------------------------------


 -------------------------------------------------------------------------------
 -                                                                             -
 -                           R E F E R E N C E S                               -
 -                                                                             -
 -------------------------------------------------------------------------------
 
 CP2K version 9.0 (Development Version), the CP2K developers group (2020).
 CP2K is freely available from https://www.cp2k.org/ .

 Kuehne,Thomas D.; Iannuzzi,Marcella; Del Ben,Mauro;
 Rybkin,Vladimir V.; Seewald,Patrick; Stein,Frederick; Laino,Teodoro;
 Khaliullin,Rustam Z.; Schuett,Ole; Schiffmann,Florian; Golze,Dorothea;
 Wilhelm,Jan; Chulkov,Sergey; Bani-Hashemian,Mohammad Hossein;
 Weber,Valery; Borstnik,Urban; Taillefumier,Mathieu;
 Jakobovits,Alice Shoshana; Lazzaro,Alfio; Pabst,Hans; Mueller,Tiziano;
 Schade,Robert; Guidon,Manuel; Andermatt,Samuel; Holmberg,Nico;
 Schenter,Gregory K.; Hehn,Anna; Bussy,Augustin; Belleflamme,Fabian;
 Tabacchi,Gloria; Gloess,Andreas; Lass,Michael; Bethune,Iain;
 Mundy,Christopher J.; Plessl,Christian; Watkins,Matt;
 VandeVondele,Joost; Krack,Matthias; Hutter,Juerg. 
 The Journal of Chemical Physics, 152 (19), (2020). 
 CP2K: An electronic structure and molecular dynamics software package -
 Quickstep: Efficient and accurate electronic structure calculations.
 https://doi.org/10.1063/5.0007045

 Schuett, Ole; Messmer, Peter; Hutter, Juerg; VandeVondele, Joost. 
 Electronic Structure Calculations on Graphics Processing Units, John
 Wiley & Sons, Ltd, 173-190 (2016). 
 GPU-Accelerated Sparse Matrix-Matrix Multiplication for
 Linear Scaling Density Functional Theory.
 https://doi.org/10.1002/9781118670712.ch8

 Heinecke, A; Henry, G; Hutchinson, M; Pabst, H. 
 Proceedings of Intl. Supercomputing Conference, 981-991 (2016). 
 LIBXSMM: Accelerating Small Matrix Multiplications
 by Runtime Code Generation.
 https://doi.org/10.1109/SC.2016.83

 Borstnik, U; VandeVondele, J; Weber, V; Hutter, J. 
 PARALLEL COMPUTING, 40 (5-6), 47-58 (2014). 
 Sparse matrix multiplication: The distributed block-compressed sparse
 row library.
 https://doi.org/10.1016/j.parco.2014.03.012

 Hutter, J; Iannuzzi, M; Schiffmann, F; VandeVondele, J. 
 WIREs Comput Mol Sci., 4 (1), 15-25 (2014). 
 CP2K: atomistic simulations of condensed matter systems.
 https://doi.org/10.1002/wcms.1159

 Krack, M. 
 THEORETICAL CHEMISTRY ACCOUNTS, 114 (1-3), 145-152 (2005). 
 Pseudopotentials for H to Kr optimized for gradient-corrected
 exchange-correlation functionals.
 https://doi.org/10.1007/s00214-005-0655-y

 VandeVondele, J; Krack, M; Mohamed, F; Parrinello, M; Chassaing, T;
 Hutter, J. COMPUTER PHYSICS COMMUNICATIONS, 167 (2), 103-128 (2005). 
 QUICKSTEP: Fast and accurate density functional calculations using a
 mixed Gaussian and plane waves approach.
 https://doi.org/10.1016/j.cpc.2004.12.014

 Frigo, M; Johnson, SG. 
 PROCEEDINGS OF THE IEEE, 93 (2), 216-231 (2005). 
 The design and implementation of FFTW3.
 https://doi.org/10.1109/JPROC.2004.840301

 VandeVondele, J; Hutter, J. 
 JOURNAL OF CHEMICAL PHYSICS, 118 (10), 4365-4369 (2003). 
 An efficient orbital transformation method for electronic structure
 calculations.
 https://doi.org/10.1063/1.1543154

 Hartwigsen, C; Goedecker, S; Hutter, J. 
 PHYSICAL REVIEW B, 58 (7), 3641-3662 (1998). 
 Relativistic separable dual-space Gaussian pseudopotentials from H to Rn.
 https://doi.org/10.1103/PhysRevB.58.3641

 Lippert, G; Hutter, J; Parrinello, M. 
 MOLECULAR PHYSICS, 92 (3), 477-487 (1997). 
 A hybrid Gaussian and plane wave density functional scheme.
 https://doi.org/10.1080/002689797170220

 Perdew, JP; Burke, K; Ernzerhof, M. 
 PHYSICAL REVIEW LETTERS, 77 (18), 3865-3868 (1996). 
 Generalized gradient approximation made simple.
 https://doi.org/10.1103/PhysRevLett.77.3865

 Goedecker, S; Teter, M; Hutter, J. 
 PHYSICAL REVIEW B, 54 (3), 1703-1710 (1996). 
 Separable dual-space Gaussian pseudopotentials.
 https://doi.org/10.1103/PhysRevB.54.1703


 -------------------------------------------------------------------------------
 -                                                                             -
 -                                T I M I N G                                  -
 -                                                                             -
 -------------------------------------------------------------------------------
 SUBROUTINE                       CALLS  ASD         SELF TIME        TOTAL TIME
                                MAXIMUM       AVERAGE  MAXIMUM  AVERAGE  MAXIMUM
 CP2K                                 1  1.0    0.005    0.023   13.415   13.416
 qs_energies                          1  2.0    0.000    0.000   13.196   13.196
 scf_env_do_scf                       1  3.0    0.000    0.000   12.915   12.915
 scf_env_do_scf_inner_loop           21  4.0    0.001    0.002   11.239   11.239
 qs_ks_update_qs_env                 24  5.0    0.000    0.000    9.566    9.576
 rebuild_ks_matrix                   21  6.0    0.000    0.000    9.561    9.570
 qs_ks_build_kohn_sham_matrix        21  7.0    0.004    0.004    9.561    9.570
 pw_transfer                        405  9.6    0.035    0.044    6.728    7.789
 fft_wrap_pw1pw2                    363 10.7    0.005    0.006    6.650    7.714
 fft_wrap_pw1pw2_300                234 11.8    0.287    0.314    6.350    7.355
 qs_vxc_create                       21  8.0    0.000    0.001    6.617    6.649
 xc_vxc_pw_create                    21  9.0    0.055    0.060    6.616    6.649
 fft3d_ps                           363 12.7    2.434    2.695    5.360    6.636
 xc_rho_set_and_dset_create          21 10.0    0.022    0.024    3.792    4.260
 mp_alltoall_z22v                   363 14.7    2.386    3.924    2.386    3.924
 yz_to_x                            173 13.1    0.220    0.289    1.629    2.851
 qs_rho_update_rho                   22  5.0    0.000    0.000    2.604    2.604
 calculate_rho_elec                  22  6.0    0.023    0.025    2.603    2.604
 xc_functional_eval                  21 11.0    0.000    0.000    2.016    2.484
 pbe_lda_eval                        21 12.0    2.016    2.483    2.016    2.483
 density_rs2pw                       22  7.0    0.001    0.001    2.133    2.327
 sum_up_and_integrate                21  8.0    0.011    0.013    2.192    2.195
 integrate_v_rspace                  21  9.0    0.001    0.001    2.180    2.183
 rs_pw_transfer                     173  9.4    0.003    0.005    1.772    1.986
 init_scf_loop                        3  4.0    0.000    0.000    1.675    1.675
 potential_pw2rs                     21 10.0    0.002    0.002    1.571    1.572
 x_to_yz                            190 14.2    0.308    0.366    1.285    1.483
 rs_pw_transfer_RS2PW_300            23  8.9    0.220    0.262    0.586    0.798
 mp_waitall_1                     31435 14.0    0.573    0.684    0.573    0.684
 mp_waitany                        1232 11.4    0.450    0.666    0.450    0.666
 grid_collocate_task_list            22  7.0    0.374    0.655    0.374    0.655
 mp_alltoall_d11v                   595 11.5    0.441    0.647    0.441    0.647
 rs_gather_matrices                  21 10.0    0.001    0.005    0.407    0.611
 grid_integrate_task_list            21 10.0    0.202    0.597    0.202    0.597
 pw_scatter_p                       190 13.2    0.527    0.571    0.527    0.571
 dbcsr_multiply_generic             506 10.0    0.015    0.015    0.558    0.567
 qs_scf_new_mos                      21  5.0    0.000    0.000    0.551    0.555
 qs_scf_loop_do_ot                   21  6.0    0.000    0.000    0.551    0.555
 pw_gather_p                        173 12.1    0.459    0.536    0.459    0.536
 ot_scf_mini                         21  7.0    0.000    0.000    0.526    0.530
 rs_pw_transfer_PW2RS_300            21 12.0    0.214    0.237    0.411    0.437
 rs_pw_transfer_PW2RS_100            21 12.0    0.068    0.079    0.380    0.419
 ot_mini                             21  8.0    0.000    0.000    0.338    0.343
 fft_wrap_pw1pw2_100                 43 11.5    0.010    0.012    0.235    0.304
 multiply_cannon                    506 11.0    0.034    0.035    0.259    0.298
 prepare_preconditioner               3  5.0    0.000    0.000    0.291    0.292
 -------------------------------------------------------------------------------

 The number of warnings for this run is : 1
 
 -------------------------------------------------------------------------------
  **** **** ******  **  PROGRAM ENDED AT                 2021-05-18 14:39:17.278
 ***** ** ***  *** **   PROGRAM RAN ON                                   tcopt10
 **    ****   ******    PROGRAM RAN BY                                    hutter
 ***** **    ** ** **   PROGRAM PROCESS ID                                 21724
  **** **  *******  **  PROGRAM STOPPED IN            /data/hutter/run/delta/new
