 DBCSR| CPU Multiplication driver                                           XSMM
 DBCSR| Multrec recursion limit                                              512
 DBCSR| Multiplication stack size                                           1000
 DBCSR| Maximum elements for images                                    UNLIMITED
 DBCSR| Multiplicative factor virtual images                                   1
 DBCSR| Use multiplication densification                                       T
 DBCSR| Multiplication size stacks                                             3
 DBCSR| Use memory pool for CPU allocation                                     F
 DBCSR| Number of 3D layers                                               SINGLE
 DBCSR| Use MPI memory allocation                                              F
 DBCSR| Use RMA algorithm                                                      F
 DBCSR| Use Communication thread                                               T
 DBCSR| Communication thread load                                             87
 DBCSR| MPI: My node id                                                        0
 DBCSR| MPI: Number of nodes                                                  24
 DBCSR| OMP: Current number of threads                                         1
 DBCSR| OMP: Max number of threads                                             1
 DBCSR| Split modifier for TAS multiplication algorithm                  1.0E+00


  **** **** ******  **  PROGRAM STARTED AT               2021-05-18 14:42:35.155
 ***** ** ***  *** **   PROGRAM STARTED ON                               tcopt10
 **    ****   ******    PROGRAM STARTED BY                                hutter
 ***** **    ** ** **   PROGRAM PROCESS ID                                 23397
  **** **  *******  **  PROGRAM STARTED IN            /data/hutter/run/delta/new

 CP2K| version string:                    CP2K version 9.0 (Development Version)
 CP2K| source code revision number:                                  git:4b756b0
 CP2K| cp2kflags: omp libint fftw3 libxc elpa parallel mpi3 scalapack xsmm spgli
 CP2K|            b sirius libvori libbqb
 CP2K| is freely available from                            https://www.cp2k.org/
 CP2K| Program compiled at                         Wed May  5 15:51:41 CEST 2021
 CP2K| Program compiled on                                               tcopt10
 CP2K| Program compiled for                                                local
 CP2K| Data directory path                 /data/hutter/GITHUB/CURRENT/cp2k/data
 CP2K| Input file name                                                N4-ref.inp

 GLOBAL| Force Environment number                                              1
 GLOBAL| Basis set file name                                      ../PBE_UCBASIS
 GLOBAL| Potential file name                                        ../POTENTIAL
 GLOBAL| MM Potential file name                                     MM_POTENTIAL
 GLOBAL| Coordinate file name                                      __STD_INPUT__
 GLOBAL| Method name                                                        CP2K
 GLOBAL| Project name                                                      refN4
 GLOBAL| Preferred FFT library                                             FFTW3
 GLOBAL| Preferred diagonalization lib.                                       SL
 GLOBAL| Run type                                                         ENERGY
 GLOBAL| All-to-all communication in single precision                          F
 GLOBAL| FFTs using library dependent lengths                                  F
 GLOBAL| Grid backend                                                       AUTO
 GLOBAL| Global print level                                                  LOW
 GLOBAL| MPI I/O enabled                                                       T
 GLOBAL| Total number of message passing processes                            24
 GLOBAL| Number of threads for this process                                    1
 GLOBAL| This output is from process                                           0
 GLOBAL| CPU model name                          AMD EPYC 7401 24-Core Processor
 GLOBAL| CPUID                                                              1002

 MEMORY| system memory details [Kb]
 MEMORY|                        rank 0           min           max       average
 MEMORY| MemTotal            263969868     263969868     263969868     263969868
 MEMORY| MemFree             218553556     218553556     218553556     218553556
 MEMORY| Buffers                    36            36            36            36
 MEMORY| Cached               37784680      37784680      37784680      37784680
 MEMORY| Slab                  3026116       3026116       3026116       3026116
 MEMORY| SReclaimable          1717284       1717284       1717284       1717284
 MEMORY| MemLikelyFree       258055556     258055556     258055556     258055556


 GENERATE|  Preliminary Number of Bonds generated:                             6
 GENERATE|  Achieved consistency in connectivity generation.
 GENERATE|  Number of Bonds generated:                                         6
 GENERATE|  Preliminary Number of Bends generated:                            12
 GENERATE|  Number of Bends generated:                                        12
 GENERATE|  Number of UB generated:                                           12
 GENERATE|  Preliminary Number of Torsions generated:                         12
 GENERATE|  Number of Torsions generated:                                     12
 GENERATE|  Number of Impropers generated:                                     4

 *******************************************************************************
 *******************************************************************************
 **                                                                           **
 **     #####                         ##              ##                      **
 **    ##   ##            ##          ##              ##                      **
 **   ##     ##                       ##            ######                    **
 **   ##     ##  ##   ##  ##   #####  ##  ##   ####   ##    #####    #####    **
 **   ##     ##  ##   ##  ##  ##      ## ##   ##      ##   ##   ##  ##   ##   **
 **   ##  ## ##  ##   ##  ##  ##      ####     ###    ##   ######   ######    **
 **    ##  ###   ##   ##  ##  ##      ## ##      ##   ##   ##       ##        **
 **     #######   #####   ##   #####  ##  ##  ####    ##    #####   ##        **
 **           ##                                                    ##        **
 **                                                                           **
 **                                                ... make the atoms dance   **
 **                                                                           **
 **            Copyright (C) by CP2K developers group (2000-2021)             **
 **                      J. Chem. Phys. 152, 194103 (2020)                    **
 **                                                                           **
 *******************************************************************************


 TOTAL NUMBERS AND MAXIMUM NUMBERS

  Total number of            - Atomic kinds:                                   1
                             - Atoms:                                          4
                             - Shell sets:                                     8
                             - Shells:                                       112
                             - Primitive Cartesian functions:                 48
                             - Cartesian basis functions:                    624
                             - Spherical basis functions:                    464

  Maximum angular momentum of- Orbital basis functions:                        4
                             - Local part of the GTH pseudopotential:          2
                             - Non-local part of the GTH pseudopotential:      0


 SCF PARAMETERS         Density guess:                                    ATOMIC
                        --------------------------------------------------------
                        max_scf:                                              10
                        max_scf_history:                                       0
                        max_diis:                                              4
                        --------------------------------------------------------
                        eps_scf:                                        1.00E-07
                        eps_scf_history:                                0.00E+00
                        eps_diis:                                       1.00E-01
                        eps_eigval:                                     1.00E-05
                        --------------------------------------------------------
                        level_shift [a.u.]:                                 0.00
                        --------------------------------------------------------
                        Outer loop SCF in use 
                        No variables optimised in outer loop
                        eps_scf                                         1.00E-07
                        max_scf                                               10
                        No outer loop optimization
                        step_size                                       5.00E-01

 Number of electrons:                                                         20
 Number of occupied orbitals:                                                 10
 Number of molecular orbitals:                                                10

 Number of orbital functions:                                                464
 Number of independent orbital functions:                                    464

 Extrapolation method: initial_guess


 SCF WAVEFUNCTION OPTIMIZATION

  ----------------------------------- OT ---------------------------------------
  Minimizer      : DIIS                : direct inversion
                                         in the iterative subspace
                                         using   7 DIIS vectors
                                         safer DIIS on
  Preconditioner : FULL_ALL            : diagonalization, state selective
  Precond_solver : DEFAULT
  stepsize       :    0.15000000                  energy_gap     :    0.08000000
  eps_taylor     :   0.10000E-15                  max_taylor     :             4
  ----------------------------------- OT ---------------------------------------

  Step     Update method      Time    Convergence         Total energy    Change
  ------------------------------------------------------------------------------
     1 OT DIIS     0.15E+00    0.6     0.08381699       -37.1619016304 -3.72E+01
     2 OT DIIS     0.15E+00    0.6     0.15722058       -35.6882014443  1.47E+00
     3 OT DIIS     0.15E+00    0.6     0.05178286       -38.0451840634 -2.36E+00
     4 OT DIIS     0.15E+00    0.6     0.04102753       -38.5778706539 -5.33E-01
     5 OT DIIS     0.15E+00    0.6     0.02432634       -38.7493583390 -1.71E-01
     6 OT DIIS     0.15E+00    0.6     0.01618491       -38.8408424441 -9.15E-02
     7 OT DIIS     0.15E+00    0.6     0.01471349       -38.9117006448 -7.09E-02
     8 OT SD       0.15E+00    0.6     0.01559979       -38.9253904841 -1.37E-02
     9 OT SD       0.15E+00    0.6     0.02389593       -39.1304681782 -2.05E-01
    10 OT DIIS     0.15E+00    0.6     0.02522789       -39.4035155610 -2.73E-01

  Leaving inner SCF loop after reaching    10 steps.


  Electronic density on regular grids:        -20.0000000000       -0.0000000000
  Core density on regular grids:               20.0000000000       -0.0000000000
  Total charge density on r-space grids:       -0.0000000000
  Total charge density g-space grids:          -0.0000000000

  Overlap energy of the core charge distribution:               0.00000000037561
  Self energy of the core charge distribution:                -99.39004574600648
  Core Hamiltonian energy:                                     28.58425239832836
  Hartree energy:                                              41.24926132470426
  Exchange-correlation energy:                                 -9.84698353843307

  Total energy:                                               -39.40351556103132

  outer SCF iter =    1 RMS gradient =   0.25E-01 energy =        -39.4035155610

  ----------------------------------- OT ---------------------------------------
  Minimizer      : DIIS                : direct inversion
                                         in the iterative subspace
                                         using   7 DIIS vectors
                                         safer DIIS on
  Preconditioner : FULL_ALL            : diagonalization, state selective
  Precond_solver : DEFAULT
  stepsize       :    0.15000000                  energy_gap     :    0.08000000
  eps_taylor     :   0.10000E-15                  max_taylor     :             4
  ----------------------------------- OT ---------------------------------------

  Step     Update method      Time    Convergence         Total energy    Change
  ------------------------------------------------------------------------------
     1 OT DIIS     0.15E+00    1.4     0.02457108       -38.9282835615  4.75E-01
     2 OT DIIS     0.15E+00    0.6     0.04194361       -39.3070841503 -3.79E-01
     3 OT DIIS     0.15E+00    0.6     0.01765339       -39.5067838548 -2.00E-01
     4 OT DIIS     0.15E+00    0.6     0.03874786       -39.4522493693  5.45E-02
     5 OT DIIS     0.15E+00    0.6     0.03137162       -39.4817640929 -2.95E-02
     6 OT DIIS     0.15E+00    0.6     0.00875817       -39.5611341697 -7.94E-02
     7 OT DIIS     0.15E+00    0.6     0.00342681       -39.5701291054 -8.99E-03
     8 OT DIIS     0.15E+00    0.6     0.00373367       -39.5703603364 -2.31E-04
     9 OT DIIS     0.15E+00    0.6     0.00165040       -39.5719016272 -1.54E-03
    10 OT DIIS     0.15E+00    0.6     0.00045562       -39.5722322209 -3.31E-04

  Leaving inner SCF loop after reaching    10 steps.


  Electronic density on regular grids:        -20.0000000000       -0.0000000000
  Core density on regular grids:               20.0000000000       -0.0000000000
  Total charge density on r-space grids:       -0.0000000000
  Total charge density g-space grids:          -0.0000000000

  Overlap energy of the core charge distribution:               0.00000000037561
  Self energy of the core charge distribution:                -99.39004574600648
  Core Hamiltonian energy:                                     28.26956229194226
  Hartree energy:                                              41.38186857005574
  Exchange-correlation energy:                                 -9.83361733726545

  Total energy:                                               -39.57223222089831

  outer SCF iter =    2 RMS gradient =   0.46E-03 energy =        -39.5722322209

  ----------------------------------- OT ---------------------------------------
  Minimizer      : DIIS                : direct inversion
                                         in the iterative subspace
                                         using   7 DIIS vectors
                                         safer DIIS on
  Preconditioner : FULL_ALL            : diagonalization, state selective
  Precond_solver : DEFAULT
  stepsize       :    0.15000000                  energy_gap     :    0.08000000
  eps_taylor     :   0.10000E-15                  max_taylor     :             4
  ----------------------------------- OT ---------------------------------------

  Step     Update method      Time    Convergence         Total energy    Change
  ------------------------------------------------------------------------------
     1 OT DIIS     0.15E+00    1.3     0.00014067       -39.5722572638 -2.50E-05
     2 OT DIIS     0.15E+00    0.6     0.00011548       -39.5722632837 -6.02E-06
     3 OT DIIS     0.15E+00    0.6     0.00005835       -39.5722651718 -1.89E-06
     4 OT DIIS     0.15E+00    0.6     0.00000442       -39.5722660104 -8.39E-07
     5 OT DIIS     0.15E+00    0.6     0.00000049       -39.5722660200 -9.52E-09
     6 OT DIIS     0.15E+00    0.6     0.00000017       -39.5722660201 -1.12E-10
     7 OT DIIS     0.15E+00    0.6     0.00000015       -39.5722660201 -7.36E-12
     8 OT DIIS     0.15E+00    0.6     0.00000003       -39.5722660201 -3.54E-12

  *** SCF run converged in     8 steps ***


  Electronic density on regular grids:        -20.0000000000       -0.0000000000
  Core density on regular grids:               20.0000000000       -0.0000000000
  Total charge density on r-space grids:       -0.0000000000
  Total charge density g-space grids:          -0.0000000000

  Overlap energy of the core charge distribution:               0.00000000037561
  Self energy of the core charge distribution:                -99.39004574600648
  Core Hamiltonian energy:                                     28.27046419681778
  Hartree energy:                                              41.38102909412910
  Exchange-correlation energy:                                 -9.83371356539888

  Total energy:                                               -39.57226602008286

  outer SCF iter =    3 RMS gradient =   0.34E-07 energy =        -39.5722660201
  outer SCF loop converged in   3 iterations or   28 steps


 ENERGY| Total FORCE_EVAL ( QS ) energy [a.u.]:              -39.572266020082857

 -------------------------------------------------------------------------------
 -                                                                             -
 -                                DBCSR STATISTICS                             -
 -                                                                             -
 -------------------------------------------------------------------------------
 COUNTER                                    TOTAL       BLAS       SMM       ACC
 flops    10 x    10 x    10               424000       0.0%    100.0%      0.0%
 flops   232 x    10 x    10              6635200       0.0%    100.0%      0.0%
 flops   116 x    10 x    10              6635200       0.0%    100.0%      0.0%
 flops    10 x    10 x   116             10672000       0.0%    100.0%      0.0%
 flops   116 x   116 x    10             78044800       0.0%    100.0%      0.0%
 flops   232 x    10 x   116            133483520       0.0%    100.0%      0.0%
 flops   116 x    10 x   116            460733440       0.0%    100.0%      0.0%
 flops inhomo. stacks                           0       0.0%      0.0%      0.0%
 flops total                       696.628160E+06       0.0%    100.0%      0.0%
 flops max/rank                    338.253120E+06       0.0%    100.0%      0.0%
 matmuls inhomo. stacks                         0       0.0%      0.0%      0.0%
 matmuls total                               3351       0.0%    100.0%      0.0%
 number of processed stacks                  2989       0.0%    100.0%      0.0%
 average stack size                                     0.0       1.1       0.0
 marketing flops                   743.733952E+06
 -------------------------------------------------------------------------------
 # multiplications                            640
 max memory usage/rank             337.412096E+06
 # max total images/rank                        3
 # max 3D layers                                1
 # MPI messages exchanged                  291840
 MPI messages size (bytes):
  total size                         1.274805E+09
  min size                           0.000000E+00
  max size                         215.296000E+03
  average size                       4.368163E+03
 MPI breakdown and total messages size (bytes):
             size <=      128              273258                        0
       128 < size <=     8192                2125                  1700000
      8192 < size <=    32768                8177                 84670720
     32768 < size <=   131072                5520                594216960
    131072 < size <=  4194304                2760                594216960
   4194304 < size <= 16777216                   0                        0
  16777216 < size                               0                        0
 -------------------------------------------------------------------------------

 *** WARNING in dbcsr_mm.F:294 :: Using a non-square number of MPI ranks ***
 *** might lead to poor performance. Used ranks: 24 Suggested: 25 49     ***

 -------------------------------------------------------------------------------
 -                                                                             -
 -                      DBCSR MESSAGE PASSING PERFORMANCE                      -
 -                                                                             -
 -------------------------------------------------------------------------------
 ROUTINE             CALLS      AVE VOLUME [Bytes]
 MP_Bcast                8                     12.
 MP_Allreduce         3380                      8.
 MP_Alltoall          2564                   8312.
 MP_ISend            26890                   5232.
 MP_IRecv            26912                   2606.
 -------------------------------------------------------------------------------

 -------------------------------------------------------------------------------
 -                                                                             -
 -                                GRID STATISTICS                              -
 -                                                                             -
 -------------------------------------------------------------------------------
 LP    KERNEL             BACKEND                              COUNT     PERCENT
 5     collocate ortho    REF                                  25520      23.23%
 5     integrate ortho    REF                                  24640      22.42%
 2     collocate ortho    REF                                  23954      21.80%
 2     integrate ortho    REF                                  23128      21.05%
 8     collocate ortho    REF                                   6380       5.81%
 8     integrate ortho    REF                                   6160       5.61%
 0     collocate general  REF                                     96       0.09%
 -------------------------------------------------------------------------------

 MEMORY| Estimated peak process memory [MiB]                                 322

 -------------------------------------------------------------------------------
 -                                                                             -
 -                         MESSAGE PASSING PERFORMANCE                         -
 -                                                                             -
 -------------------------------------------------------------------------------

 ROUTINE             CALLS      AVE VOLUME [Bytes]
 MP_Group                4
 MP_Bcast              400                 287324.
 MP_Allreduce         1373                    461.
 MP_Sync                33
 MP_Alltoall           551                9674700.
 MP_ISendRecv         3933                 191232.
 MP_Wait              5731
 MP_comm_split          29
 MP_ISend             1624                 411297.
 MP_IRecv             1624                 411457.
 MP_Recv                 8                   7424.
 -------------------------------------------------------------------------------


 -------------------------------------------------------------------------------
 -                                                                             -
 -                           R E F E R E N C E S                               -
 -                                                                             -
 -------------------------------------------------------------------------------
 
 CP2K version 9.0 (Development Version), the CP2K developers group (2020).
 CP2K is freely available from https://www.cp2k.org/ .

 Kuehne,Thomas D.; Iannuzzi,Marcella; Del Ben,Mauro;
 Rybkin,Vladimir V.; Seewald,Patrick; Stein,Frederick; Laino,Teodoro;
 Khaliullin,Rustam Z.; Schuett,Ole; Schiffmann,Florian; Golze,Dorothea;
 Wilhelm,Jan; Chulkov,Sergey; Bani-Hashemian,Mohammad Hossein;
 Weber,Valery; Borstnik,Urban; Taillefumier,Mathieu;
 Jakobovits,Alice Shoshana; Lazzaro,Alfio; Pabst,Hans; Mueller,Tiziano;
 Schade,Robert; Guidon,Manuel; Andermatt,Samuel; Holmberg,Nico;
 Schenter,Gregory K.; Hehn,Anna; Bussy,Augustin; Belleflamme,Fabian;
 Tabacchi,Gloria; Gloess,Andreas; Lass,Michael; Bethune,Iain;
 Mundy,Christopher J.; Plessl,Christian; Watkins,Matt;
 VandeVondele,Joost; Krack,Matthias; Hutter,Juerg. 
 The Journal of Chemical Physics, 152 (19), (2020). 
 CP2K: An electronic structure and molecular dynamics software package -
 Quickstep: Efficient and accurate electronic structure calculations.
 https://doi.org/10.1063/5.0007045

 Schuett, Ole; Messmer, Peter; Hutter, Juerg; VandeVondele, Joost. 
 Electronic Structure Calculations on Graphics Processing Units, John
 Wiley & Sons, Ltd, 173-190 (2016). 
 GPU-Accelerated Sparse Matrix-Matrix Multiplication for
 Linear Scaling Density Functional Theory.
 https://doi.org/10.1002/9781118670712.ch8

 Heinecke, A; Henry, G; Hutchinson, M; Pabst, H. 
 Proceedings of Intl. Supercomputing Conference, 981-991 (2016). 
 LIBXSMM: Accelerating Small Matrix Multiplications
 by Runtime Code Generation.
 https://doi.org/10.1109/SC.2016.83

 Borstnik, U; VandeVondele, J; Weber, V; Hutter, J. 
 PARALLEL COMPUTING, 40 (5-6), 47-58 (2014). 
 Sparse matrix multiplication: The distributed block-compressed sparse
 row library.
 https://doi.org/10.1016/j.parco.2014.03.012

 Hutter, J; Iannuzzi, M; Schiffmann, F; VandeVondele, J. 
 WIREs Comput Mol Sci., 4 (1), 15-25 (2014). 
 CP2K: atomistic simulations of condensed matter systems.
 https://doi.org/10.1002/wcms.1159

 Krack, M. 
 THEORETICAL CHEMISTRY ACCOUNTS, 114 (1-3), 145-152 (2005). 
 Pseudopotentials for H to Kr optimized for gradient-corrected
 exchange-correlation functionals.
 https://doi.org/10.1007/s00214-005-0655-y

 VandeVondele, J; Krack, M; Mohamed, F; Parrinello, M; Chassaing, T;
 Hutter, J. COMPUTER PHYSICS COMMUNICATIONS, 167 (2), 103-128 (2005). 
 QUICKSTEP: Fast and accurate density functional calculations using a
 mixed Gaussian and plane waves approach.
 https://doi.org/10.1016/j.cpc.2004.12.014

 Frigo, M; Johnson, SG. 
 PROCEEDINGS OF THE IEEE, 93 (2), 216-231 (2005). 
 The design and implementation of FFTW3.
 https://doi.org/10.1109/JPROC.2004.840301

 VandeVondele, J; Hutter, J. 
 JOURNAL OF CHEMICAL PHYSICS, 118 (10), 4365-4369 (2003). 
 An efficient orbital transformation method for electronic structure
 calculations.
 https://doi.org/10.1063/1.1543154

 Hartwigsen, C; Goedecker, S; Hutter, J. 
 PHYSICAL REVIEW B, 58 (7), 3641-3662 (1998). 
 Relativistic separable dual-space Gaussian pseudopotentials from H to Rn.
 https://doi.org/10.1103/PhysRevB.58.3641

 Lippert, G; Hutter, J; Parrinello, M. 
 MOLECULAR PHYSICS, 92 (3), 477-487 (1997). 
 A hybrid Gaussian and plane wave density functional scheme.
 https://doi.org/10.1080/002689797170220

 Perdew, JP; Burke, K; Ernzerhof, M. 
 PHYSICAL REVIEW LETTERS, 77 (18), 3865-3868 (1996). 
 Generalized gradient approximation made simple.
 https://doi.org/10.1103/PhysRevLett.77.3865

 Goedecker, S; Teter, M; Hutter, J. 
 PHYSICAL REVIEW B, 54 (3), 1703-1710 (1996). 
 Separable dual-space Gaussian pseudopotentials.
 https://doi.org/10.1103/PhysRevB.54.1703


 -------------------------------------------------------------------------------
 -                                                                             -
 -                                T I M I N G                                  -
 -                                                                             -
 -------------------------------------------------------------------------------
 SUBROUTINE                       CALLS  ASD         SELF TIME        TOTAL TIME
                                MAXIMUM       AVERAGE  MAXIMUM  AVERAGE  MAXIMUM
 CP2K                                 1  1.0    0.006    0.030   17.920   17.921
 qs_energies                          1  2.0    0.000    0.000   17.764   17.765
 scf_env_do_scf                       1  3.0    0.000    0.000   17.482   17.482
 scf_env_do_scf_inner_loop           28  4.0    0.001    0.003   15.659   15.660
 qs_ks_update_qs_env                 31  5.0    0.000    0.000   13.010   13.023
 rebuild_ks_matrix                   28  6.0    0.000    0.000   13.003   13.016
 qs_ks_build_kohn_sham_matrix        28  7.0    0.005    0.006   13.003   13.016
 pw_transfer                        538  9.6    0.047    0.057    9.362   10.850
 fft_wrap_pw1pw2                    482 10.7    0.006    0.008    9.258   10.750
 fft_wrap_pw1pw2_300                311 11.8    0.377    0.411    8.853   10.264
 fft3d_ps                           482 12.7    3.253    3.538    7.547    9.328
 qs_vxc_create                       28  8.0    0.001    0.001    9.009    9.051
 xc_vxc_pw_create                    28  9.0    0.070    0.076    9.009    9.051
 xc_rho_set_and_dset_create          28 10.0    0.029    0.031    4.907    5.780
 mp_alltoall_z22v                   482 14.7    3.586    5.725    3.586    5.725
 yz_to_x                            229 13.1    0.287    0.374    2.442    4.202
 qs_rho_update_rho                   29  5.0    0.000    0.000    3.407    3.407
 calculate_rho_elec                  29  6.0    0.031    0.033    3.407    3.407
 xc_functional_eval                  28 11.0    0.000    0.001    2.475    3.348
 pbe_lda_eval                        28 12.0    2.475    3.348    2.475    3.348
 density_rs2pw                       29  7.0    0.001    0.002    2.724    3.018
 sum_up_and_integrate                28  8.0    0.015    0.017    2.960    2.963
 integrate_v_rspace                  28  9.0    0.001    0.001    2.945    2.950
 rs_pw_transfer                     229  9.5    0.004    0.006    2.265    2.566
 potential_pw2rs                     28 10.0    0.003    0.003    2.118    2.120
 x_to_yz                            253 14.2    0.408    0.485    1.839    2.101
 init_scf_loop                        3  4.0    0.000    0.000    1.822    1.822
 rs_pw_transfer_RS2PW_300            30  8.9    0.277    0.321    0.704    1.000
 mp_waitall_1                     39947 14.0    0.778    0.916    0.778    0.916
 mp_alltoall_d11v                   657 11.6    0.572    0.878    0.572    0.878
 mp_waitany                        1624 11.4    0.531    0.862    0.531    0.862
 grid_collocate_task_list            29  7.0    0.514    0.835    0.514    0.835
 rs_gather_matrices                  28 10.0    0.001    0.006    0.523    0.826
 grid_integrate_task_list            28 10.0    0.303    0.798    0.303    0.798
 pw_scatter_p                       253 13.2    0.701    0.758    0.701    0.758
 dbcsr_multiply_generic             640 10.0    0.019    0.020    0.745    0.757
 qs_scf_new_mos                      28  5.0    0.000    0.000    0.740    0.747
 qs_scf_loop_do_ot                   28  6.0    0.000    0.000    0.740    0.747
 pw_gather_p                        229 12.1    0.608    0.715    0.608    0.715
 ot_scf_mini                         28  7.0    0.000    0.000    0.703    0.711
 rs_pw_transfer_PW2RS_300            28 12.0    0.283    0.311    0.540    0.574
 rs_pw_transfer_PW2RS_100            28 12.0    0.089    0.102    0.493    0.557
 ot_mini                             28  8.0    0.000    0.000    0.462    0.470
 prepare_preconditioner               3  5.0    0.000    0.000    0.420    0.421
 multiply_cannon                    640 11.0    0.041    0.044    0.359    0.405
 fft_wrap_pw1pw2_100                 57 11.5    0.014    0.018    0.314    0.402
 make_preconditioner                  3  6.0    0.000    0.000    0.397    0.397
 make_full_all                        3  7.0    0.000    0.000    0.378    0.378
 -------------------------------------------------------------------------------

 The number of warnings for this run is : 1
 
 -------------------------------------------------------------------------------
  **** **** ******  **  PROGRAM ENDED AT                 2021-05-18 14:42:53.695
 ***** ** ***  *** **   PROGRAM RAN ON                                   tcopt10
 **    ****   ******    PROGRAM RAN BY                                    hutter
 ***** **    ** ** **   PROGRAM PROCESS ID                                 23397
  **** **  *******  **  PROGRAM STOPPED IN            /data/hutter/run/delta/new
