 DBCSR| CPU Multiplication driver                                           XSMM
 DBCSR| Multrec recursion limit                                              512
 DBCSR| Multiplication stack size                                           1000
 DBCSR| Maximum elements for images                                    UNLIMITED
 DBCSR| Multiplicative factor virtual images                                   1
 DBCSR| Use multiplication densification                                       T
 DBCSR| Multiplication size stacks                                             3
 DBCSR| Use memory pool for CPU allocation                                     F
 DBCSR| Number of 3D layers                                               SINGLE
 DBCSR| Use MPI memory allocation                                              F
 DBCSR| Use RMA algorithm                                                      F
 DBCSR| Use Communication thread                                               T
 DBCSR| Communication thread load                                             87
 DBCSR| MPI: My node id                                                        0
 DBCSR| MPI: Number of nodes                                                  24
 DBCSR| OMP: Current number of threads                                         1
 DBCSR| OMP: Max number of threads                                             1
 DBCSR| Split modifier for TAS multiplication algorithm                  1.0E+00


  **** **** ******  **  PROGRAM STARTED AT               2021-05-18 14:33:46.022
 ***** ** ***  *** **   PROGRAM STARTED ON                               tcopt10
 **    ****   ******    PROGRAM STARTED BY                                hutter
 ***** **    ** ** **   PROGRAM PROCESS ID                                 18920
  **** **  *******  **  PROGRAM STARTED IN            /data/hutter/run/delta/new

 CP2K| version string:                    CP2K version 9.0 (Development Version)
 CP2K| source code revision number:                                  git:4b756b0
 CP2K| cp2kflags: omp libint fftw3 libxc elpa parallel mpi3 scalapack xsmm spgli
 CP2K|            b sirius libvori libbqb
 CP2K| is freely available from                            https://www.cp2k.org/
 CP2K| Program compiled at                         Wed May  5 15:51:41 CEST 2021
 CP2K| Program compiled on                                               tcopt10
 CP2K| Program compiled for                                                local
 CP2K| Data directory path                 /data/hutter/GITHUB/CURRENT/cp2k/data
 CP2K| Input file name                                               NF3-ref.inp

 GLOBAL| Force Environment number                                              1
 GLOBAL| Basis set file name                                      ../PBE_UCBASIS
 GLOBAL| Potential file name                                        ../POTENTIAL
 GLOBAL| MM Potential file name                                     MM_POTENTIAL
 GLOBAL| Coordinate file name                                      __STD_INPUT__
 GLOBAL| Method name                                                        CP2K
 GLOBAL| Project name                                                     refNF3
 GLOBAL| Preferred FFT library                                             FFTW3
 GLOBAL| Preferred diagonalization lib.                                       SL
 GLOBAL| Run type                                                         ENERGY
 GLOBAL| All-to-all communication in single precision                          F
 GLOBAL| FFTs using library dependent lengths                                  F
 GLOBAL| Grid backend                                                       AUTO
 GLOBAL| Global print level                                                  LOW
 GLOBAL| MPI I/O enabled                                                       T
 GLOBAL| Total number of message passing processes                            24
 GLOBAL| Number of threads for this process                                    1
 GLOBAL| This output is from process                                           0
 GLOBAL| CPU model name                          AMD EPYC 7401 24-Core Processor
 GLOBAL| CPUID                                                              1002

 MEMORY| system memory details [Kb]
 MEMORY|                        rank 0           min           max       average
 MEMORY| MemTotal            263969868     263969868     263969868     263969868
 MEMORY| MemFree             218558328     218558328     218558328     218558328
 MEMORY| Buffers                    36            36            36            36
 MEMORY| Cached               37777572      37777572      37777572      37777572
 MEMORY| Slab                  3026692       3026692       3026692       3026692
 MEMORY| SReclaimable          1718580       1718580       1718580       1718580
 MEMORY| MemLikelyFree       258054516     258054516     258054516     258054516


 GENERATE|  Preliminary Number of Bonds generated:                             0
 GENERATE|  Achieved consistency in connectivity generation.

 *******************************************************************************
 *******************************************************************************
 **                                                                           **
 **     #####                         ##              ##                      **
 **    ##   ##            ##          ##              ##                      **
 **   ##     ##                       ##            ######                    **
 **   ##     ##  ##   ##  ##   #####  ##  ##   ####   ##    #####    #####    **
 **   ##     ##  ##   ##  ##  ##      ## ##   ##      ##   ##   ##  ##   ##   **
 **   ##  ## ##  ##   ##  ##  ##      ####     ###    ##   ######   ######    **
 **    ##  ###   ##   ##  ##  ##      ## ##      ##   ##   ##       ##        **
 **     #######   #####   ##   #####  ##  ##  ####    ##    #####   ##        **
 **           ##                                                    ##        **
 **                                                                           **
 **                                                ... make the atoms dance   **
 **                                                                           **
 **            Copyright (C) by CP2K developers group (2000-2021)             **
 **                      J. Chem. Phys. 152, 194103 (2020)                    **
 **                                                                           **
 *******************************************************************************


 TOTAL NUMBERS AND MAXIMUM NUMBERS

  Total number of            - Atomic kinds:                                   2
                             - Atoms:                                          4
                             - Shell sets:                                     8
                             - Shells:                                       112
                             - Primitive Cartesian functions:                 48
                             - Cartesian basis functions:                    624
                             - Spherical basis functions:                    464

  Maximum angular momentum of- Orbital basis functions:                        4
                             - Local part of the GTH pseudopotential:          2
                             - Non-local part of the GTH pseudopotential:      0


 SCF PARAMETERS         Density guess:                                    ATOMIC
                        --------------------------------------------------------
                        max_scf:                                              10
                        max_scf_history:                                       0
                        max_diis:                                              4
                        --------------------------------------------------------
                        eps_scf:                                        1.00E-07
                        eps_scf_history:                                0.00E+00
                        eps_diis:                                       1.00E-01
                        eps_eigval:                                     1.00E-05
                        --------------------------------------------------------
                        level_shift [a.u.]:                                 0.00
                        --------------------------------------------------------
                        Outer loop SCF in use 
                        No variables optimised in outer loop
                        eps_scf                                         1.00E-07
                        max_scf                                               10
                        No outer loop optimization
                        step_size                                       5.00E-01

 Number of electrons:                                                         26
 Number of occupied orbitals:                                                 13
 Number of molecular orbitals:                                                13

 Number of orbital functions:                                                464
 Number of independent orbital functions:                                    464

 Extrapolation method: initial_guess


 SCF WAVEFUNCTION OPTIMIZATION

  ----------------------------------- OT ---------------------------------------
  Minimizer      : DIIS                : direct inversion
                                         in the iterative subspace
                                         using   7 DIIS vectors
                                         safer DIIS on
  Preconditioner : FULL_ALL            : diagonalization, state selective
  Precond_solver : DEFAULT
  stepsize       :    0.15000000                  energy_gap     :    0.08000000
  eps_taylor     :   0.10000E-15                  max_taylor     :             4
  ----------------------------------- OT ---------------------------------------

  Step     Update method      Time    Convergence         Total energy    Change
  ------------------------------------------------------------------------------
     1 OT DIIS     0.15E+00    0.6     0.06469244       -80.4987534726 -8.05E+01
     2 OT DIIS     0.15E+00    0.6     0.05043558       -80.9605843764 -4.62E-01
     3 OT DIIS     0.15E+00    0.6     0.02880890       -81.7852420023 -8.25E-01
     4 OT DIIS     0.15E+00    0.6     0.02542531       -81.9300126692 -1.45E-01
     5 OT DIIS     0.15E+00    0.6     0.02035669       -82.0673323128 -1.37E-01
     6 OT DIIS     0.15E+00    0.6     0.02000391       -82.1090524331 -4.17E-02
     7 OT SD       0.15E+00    0.6     0.02428448       -82.1768576744 -6.78E-02
     8 OT DIIS     0.15E+00    0.6     0.04166288       -82.2384811979 -6.16E-02
     9 OT DIIS     0.15E+00    0.6     0.02588075       -82.2447644759 -6.28E-03
    10 OT DIIS     0.15E+00    0.6     0.02110060       -82.3147936511 -7.00E-02

  Leaving inner SCF loop after reaching    10 steps.


  Electronic density on regular grids:        -25.9999999924        0.0000000076
  Core density on regular grids:               26.0000000000       -0.0000000000
  Total charge density on r-space grids:        0.0000000076
  Total charge density g-space grids:           0.0000000076

  Overlap energy of the core charge distribution:               0.00000000000607
  Self energy of the core charge distribution:               -217.90734901164225
  Core Hamiltonian energy:                                     61.40521752183638
  Hartree energy:                                              90.51448359005816
  Exchange-correlation energy:                                -16.32714575137772

  Total energy:                                               -82.31479365111936

  outer SCF iter =    1 RMS gradient =   0.21E-01 energy =        -82.3147936511

  ----------------------------------- OT ---------------------------------------
  Minimizer      : DIIS                : direct inversion
                                         in the iterative subspace
                                         using   7 DIIS vectors
                                         safer DIIS on
  Preconditioner : FULL_ALL            : diagonalization, state selective
  Precond_solver : DEFAULT
  stepsize       :    0.15000000                  energy_gap     :    0.08000000
  eps_taylor     :   0.10000E-15                  max_taylor     :             4
  ----------------------------------- OT ---------------------------------------

  Step     Update method      Time    Convergence         Total energy    Change
  ------------------------------------------------------------------------------
     1 OT DIIS     0.15E+00    1.3     0.01909637       -82.3634133263 -4.86E-02
     2 OT DIIS     0.15E+00    0.6     0.02094486       -82.4459680178 -8.26E-02
     3 OT DIIS     0.15E+00    0.6     0.00835897       -82.5026940696 -5.67E-02
     4 OT DIIS     0.15E+00    0.6     0.00228567       -82.5149565502 -1.23E-02
     5 OT DIIS     0.15E+00    0.6     0.00052523       -82.5159642237 -1.01E-03
     6 OT DIIS     0.15E+00    0.6     0.00020979       -82.5160973006 -1.33E-04
     7 OT DIIS     0.15E+00    0.6     0.00008725       -82.5161135524 -1.63E-05
     8 OT DIIS     0.15E+00    0.6     0.00005266       -82.5161153072 -1.75E-06
     9 OT DIIS     0.15E+00    0.6     0.00001261       -82.5161159492 -6.42E-07
    10 OT DIIS     0.15E+00    0.6     0.00000216       -82.5161160281 -7.89E-08

  Leaving inner SCF loop after reaching    10 steps.


  Electronic density on regular grids:        -25.9999999959        0.0000000041
  Core density on regular grids:               26.0000000000       -0.0000000000
  Total charge density on r-space grids:        0.0000000041
  Total charge density g-space grids:           0.0000000041

  Overlap energy of the core charge distribution:               0.00000000000607
  Self energy of the core charge distribution:               -217.90734901164225
  Core Hamiltonian energy:                                     61.01221042099914
  Hartree energy:                                              90.67416386758158
  Exchange-correlation energy:                                -16.29514130506288

  Total energy:                                               -82.51611602811836

  outer SCF iter =    2 RMS gradient =   0.22E-05 energy =        -82.5161160281

  ----------------------------------- OT ---------------------------------------
  Minimizer      : DIIS                : direct inversion
                                         in the iterative subspace
                                         using   7 DIIS vectors
                                         safer DIIS on
  Preconditioner : FULL_ALL            : diagonalization, state selective
  Precond_solver : DEFAULT
  stepsize       :    0.15000000                  energy_gap     :    0.08000000
  eps_taylor     :   0.10000E-15                  max_taylor     :             4
  ----------------------------------- OT ---------------------------------------

  Step     Update method      Time    Convergence         Total energy    Change
  ------------------------------------------------------------------------------
     1 OT DIIS     0.15E+00    1.3     0.00000068       -82.5161160312 -3.11E-09
     2 OT DIIS     0.15E+00    0.6     0.00000052       -82.5161160314 -1.71E-10
     3 OT DIIS     0.15E+00    0.6     0.00000021       -82.5161160315 -5.94E-11
     4 OT DIIS     0.15E+00    0.6     0.00000002       -82.5161160315 -1.84E-11

  *** SCF run converged in     4 steps ***


  Electronic density on regular grids:        -25.9999999959        0.0000000041
  Core density on regular grids:               26.0000000000       -0.0000000000
  Total charge density on r-space grids:        0.0000000041
  Total charge density g-space grids:           0.0000000041

  Overlap energy of the core charge distribution:               0.00000000000607
  Self energy of the core charge distribution:               -217.90734901164225
  Core Hamiltonian energy:                                     61.01223446099389
  Hartree energy:                                              90.67414926688230
  Exchange-correlation energy:                                -16.29515074771253

  Total energy:                                               -82.51611603147256

  outer SCF iter =    3 RMS gradient =   0.22E-07 energy =        -82.5161160315
  outer SCF loop converged in   3 iterations or   24 steps


 ENERGY| Total FORCE_EVAL ( QS ) energy [a.u.]:              -82.516116031472563

 -------------------------------------------------------------------------------
 -                                                                             -
 -                                DBCSR STATISTICS                             -
 -                                                                             -
 -------------------------------------------------------------------------------
 COUNTER                                    TOTAL       BLAS       SMM       ACC
 flops    13 x    13 x    13               755768       0.0%    100.0%      0.0%
 flops   232 x    13 x    13              9645168       0.0%    100.0%      0.0%
 flops   116 x    13 x    13              9645168       0.0%    100.0%      0.0%
 flops    13 x    13 x   116             15526368       0.0%    100.0%      0.0%
 flops   116 x   116 x    13             87464000       0.0%    100.0%      0.0%
 flops   232 x    13 x   116            151137792       0.0%    100.0%      0.0%
 flops   116 x    13 x   116            531781120       0.0%    100.0%      0.0%
 flops inhomo. stacks                           0       0.0%      0.0%      0.0%
 flops total                       805.955384E+06       0.0%    100.0%      0.0%
 flops max/rank                    393.625960E+06       0.0%    100.0%      0.0%
 matmuls inhomo. stacks                         0       0.0%      0.0%      0.0%
 matmuls total                               2923       0.0%    100.0%      0.0%
 number of processed stacks                  2601       0.0%    100.0%      0.0%
 average stack size                                     0.0       1.1       0.0
 marketing flops                   858.905728E+06
 -------------------------------------------------------------------------------
 # multiplications                            544
 max memory usage/rank             342.380544E+06
 # max total images/rank                        3
 # max 3D layers                                1
 # MPI messages exchanged                  248064
 MPI messages size (bytes):
  total size                         1.148213E+09
  min size                           0.000000E+00
  max size                         215.296000E+03
  average size                       4.628696E+03
 MPI breakdown and total messages size (bytes):
             size <=      128              231922                        0
       128 < size <=     8192                1745                  2359240
      8192 < size <=    32768                7077                 95209088
     32768 < size <=   131072                4880                525322240
    131072 < size <=  4194304                2440                525322240
   4194304 < size <= 16777216                   0                        0
  16777216 < size                               0                        0
 -------------------------------------------------------------------------------

 *** WARNING in dbcsr_mm.F:294 :: Using a non-square number of MPI ranks ***
 *** might lead to poor performance. Used ranks: 24 Suggested: 25 49     ***

 -------------------------------------------------------------------------------
 -                                                                             -
 -                      DBCSR MESSAGE PASSING PERFORMANCE                      -
 -                                                                             -
 -------------------------------------------------------------------------------
 ROUTINE             CALLS      AVE VOLUME [Bytes]
 MP_Bcast                8                     12.
 MP_Allreduce         2867                      8.
 MP_Alltoall          2316                   9481.
 MP_ISend            22858                   5647.
 MP_IRecv            22880                   2791.
 -------------------------------------------------------------------------------

 -------------------------------------------------------------------------------
 -                                                                             -
 -                                GRID STATISTICS                              -
 -                                                                             -
 -------------------------------------------------------------------------------
 LP    KERNEL             BACKEND                              COUNT     PERCENT
 5     collocate ortho    REF                                  17400      22.97%
 2     collocate ortho    REF                                  16775      22.14%
 5     integrate ortho    REF                                  16704      22.05%
 2     integrate ortho    REF                                  16104      21.26%
 8     collocate ortho    REF                                   4425       5.84%
 8     integrate ortho    REF                                   4248       5.61%
 0     collocate general  REF                                     96       0.13%
 -------------------------------------------------------------------------------

 MEMORY| Estimated peak process memory [MiB]                                 327

 -------------------------------------------------------------------------------
 -                                                                             -
 -                         MESSAGE PASSING PERFORMANCE                         -
 -                                                                             -
 -------------------------------------------------------------------------------

 ROUTINE             CALLS      AVE VOLUME [Bytes]
 MP_Group                4
 MP_Bcast              382                 600890.
 MP_Allreduce         1293                    492.
 MP_Sync                33
 MP_Alltoall           475                9624547.
 MP_ISendRecv         3381                 191232.
 MP_Wait              4931
 MP_comm_split          29
 MP_ISend             1400                 468370.
 MP_IRecv             1400                 468555.
 MP_Recv                 8                  11136.
 -------------------------------------------------------------------------------


 -------------------------------------------------------------------------------
 -                                                                             -
 -                           R E F E R E N C E S                               -
 -                                                                             -
 -------------------------------------------------------------------------------
 
 CP2K version 9.0 (Development Version), the CP2K developers group (2020).
 CP2K is freely available from https://www.cp2k.org/ .

 Kuehne,Thomas D.; Iannuzzi,Marcella; Del Ben,Mauro;
 Rybkin,Vladimir V.; Seewald,Patrick; Stein,Frederick; Laino,Teodoro;
 Khaliullin,Rustam Z.; Schuett,Ole; Schiffmann,Florian; Golze,Dorothea;
 Wilhelm,Jan; Chulkov,Sergey; Bani-Hashemian,Mohammad Hossein;
 Weber,Valery; Borstnik,Urban; Taillefumier,Mathieu;
 Jakobovits,Alice Shoshana; Lazzaro,Alfio; Pabst,Hans; Mueller,Tiziano;
 Schade,Robert; Guidon,Manuel; Andermatt,Samuel; Holmberg,Nico;
 Schenter,Gregory K.; Hehn,Anna; Bussy,Augustin; Belleflamme,Fabian;
 Tabacchi,Gloria; Gloess,Andreas; Lass,Michael; Bethune,Iain;
 Mundy,Christopher J.; Plessl,Christian; Watkins,Matt;
 VandeVondele,Joost; Krack,Matthias; Hutter,Juerg. 
 The Journal of Chemical Physics, 152 (19), (2020). 
 CP2K: An electronic structure and molecular dynamics software package -
 Quickstep: Efficient and accurate electronic structure calculations.
 https://doi.org/10.1063/5.0007045

 Schuett, Ole; Messmer, Peter; Hutter, Juerg; VandeVondele, Joost. 
 Electronic Structure Calculations on Graphics Processing Units, John
 Wiley & Sons, Ltd, 173-190 (2016). 
 GPU-Accelerated Sparse Matrix-Matrix Multiplication for
 Linear Scaling Density Functional Theory.
 https://doi.org/10.1002/9781118670712.ch8

 Heinecke, A; Henry, G; Hutchinson, M; Pabst, H. 
 Proceedings of Intl. Supercomputing Conference, 981-991 (2016). 
 LIBXSMM: Accelerating Small Matrix Multiplications
 by Runtime Code Generation.
 https://doi.org/10.1109/SC.2016.83

 Borstnik, U; VandeVondele, J; Weber, V; Hutter, J. 
 PARALLEL COMPUTING, 40 (5-6), 47-58 (2014). 
 Sparse matrix multiplication: The distributed block-compressed sparse
 row library.
 https://doi.org/10.1016/j.parco.2014.03.012

 Hutter, J; Iannuzzi, M; Schiffmann, F; VandeVondele, J. 
 WIREs Comput Mol Sci., 4 (1), 15-25 (2014). 
 CP2K: atomistic simulations of condensed matter systems.
 https://doi.org/10.1002/wcms.1159

 Krack, M. 
 THEORETICAL CHEMISTRY ACCOUNTS, 114 (1-3), 145-152 (2005). 
 Pseudopotentials for H to Kr optimized for gradient-corrected
 exchange-correlation functionals.
 https://doi.org/10.1007/s00214-005-0655-y

 VandeVondele, J; Krack, M; Mohamed, F; Parrinello, M; Chassaing, T;
 Hutter, J. COMPUTER PHYSICS COMMUNICATIONS, 167 (2), 103-128 (2005). 
 QUICKSTEP: Fast and accurate density functional calculations using a
 mixed Gaussian and plane waves approach.
 https://doi.org/10.1016/j.cpc.2004.12.014

 Frigo, M; Johnson, SG. 
 PROCEEDINGS OF THE IEEE, 93 (2), 216-231 (2005). 
 The design and implementation of FFTW3.
 https://doi.org/10.1109/JPROC.2004.840301

 VandeVondele, J; Hutter, J. 
 JOURNAL OF CHEMICAL PHYSICS, 118 (10), 4365-4369 (2003). 
 An efficient orbital transformation method for electronic structure
 calculations.
 https://doi.org/10.1063/1.1543154

 Hartwigsen, C; Goedecker, S; Hutter, J. 
 PHYSICAL REVIEW B, 58 (7), 3641-3662 (1998). 
 Relativistic separable dual-space Gaussian pseudopotentials from H to Rn.
 https://doi.org/10.1103/PhysRevB.58.3641

 Lippert, G; Hutter, J; Parrinello, M. 
 MOLECULAR PHYSICS, 92 (3), 477-487 (1997). 
 A hybrid Gaussian and plane wave density functional scheme.
 https://doi.org/10.1080/002689797170220

 Perdew, JP; Burke, K; Ernzerhof, M. 
 PHYSICAL REVIEW LETTERS, 77 (18), 3865-3868 (1996). 
 Generalized gradient approximation made simple.
 https://doi.org/10.1103/PhysRevLett.77.3865

 Goedecker, S; Teter, M; Hutter, J. 
 PHYSICAL REVIEW B, 54 (3), 1703-1710 (1996). 
 Separable dual-space Gaussian pseudopotentials.
 https://doi.org/10.1103/PhysRevB.54.1703


 -------------------------------------------------------------------------------
 -                                                                             -
 -                                T I M I N G                                  -
 -                                                                             -
 -------------------------------------------------------------------------------
 SUBROUTINE                       CALLS  ASD         SELF TIME        TOTAL TIME
                                MAXIMUM       AVERAGE  MAXIMUM  AVERAGE  MAXIMUM
 CP2K                                 1  1.0    0.005    0.024   15.413   15.414
 qs_energies                          1  2.0    0.000    0.000   15.180   15.180
 scf_env_do_scf                       1  3.0    0.000    0.000   14.922   14.923
 scf_env_do_scf_inner_loop           24  4.0    0.001    0.003   13.136   13.136
 qs_ks_update_qs_env                 27  5.0    0.000    0.000   10.923   10.935
 rebuild_ks_matrix                   24  6.0    0.000    0.000   10.918   10.929
 qs_ks_build_kohn_sham_matrix        24  7.0    0.004    0.005   10.918   10.929
 pw_transfer                        462  9.6    0.040    0.050    8.156    9.577
 fft_wrap_pw1pw2                    414 10.7    0.005    0.006    8.066    9.488
 fft_wrap_pw1pw2_300                267 11.8    0.322    0.353    7.712    9.060
 fft3d_ps                           414 12.7    2.794    3.103    6.598    8.277
 qs_vxc_create                       24  8.0    0.001    0.001    7.470    7.506
 xc_vxc_pw_create                    24  9.0    0.059    0.067    7.470    7.506
 mp_alltoall_z22v                   414 14.7    3.193    5.137    3.193    5.137
 xc_rho_set_and_dset_create          24 10.0    0.025    0.028    3.863    4.734
 yz_to_x                            197 13.1    0.248    0.319    2.175    3.794
 qs_rho_update_rho                   25  5.0    0.000    0.000    3.034    3.034
 calculate_rho_elec                  25  6.0    0.027    0.028    3.034    3.034
 density_rs2pw                       25  7.0    0.001    0.001    2.462    2.666
 xc_functional_eval                  24 11.0    0.000    0.000    1.713    2.587
 pbe_lda_eval                        24 12.0    1.712    2.587    1.712    2.587
 sum_up_and_integrate                24  8.0    0.013    0.014    2.571    2.574
 integrate_v_rspace                  24  9.0    0.001    0.001    2.558    2.562
 rs_pw_transfer                     197  9.5    0.004    0.005    2.127    2.357
 potential_pw2rs                     24 10.0    0.002    0.002    1.896    1.898
 x_to_yz                            217 14.2    0.351    0.415    1.617    1.850
 init_scf_loop                        3  4.0    0.000    0.000    1.786    1.786
 rs_pw_transfer_RS2PW_300            26  8.9    0.261    0.318    0.718    0.943
 mp_waitany                        1400 11.4    0.561    0.817    0.561    0.817
 grid_collocate_task_list            25  7.0    0.428    0.795    0.428    0.795
 mp_waitall_1                     33995 13.9    0.660    0.790    0.660    0.790
 mp_alltoall_d11v                   625 11.5    0.498    0.710    0.498    0.710
 rs_gather_matrices                  24 10.0    0.001    0.005    0.451    0.660
 pw_scatter_p                       217 13.2    0.603    0.653    0.603    0.653
 dbcsr_multiply_generic             544 10.0    0.016    0.017    0.637    0.647
 qs_scf_new_mos                      24  5.0    0.000    0.000    0.634    0.640
 qs_scf_loop_do_ot                   24  6.0    0.000    0.000    0.634    0.640
 grid_integrate_task_list            24 10.0    0.211    0.639    0.211    0.639
 pw_gather_p                        197 12.1    0.523    0.619    0.523    0.619
 ot_scf_mini                         24  7.0    0.000    0.000    0.606    0.612
 rs_pw_transfer_PW2RS_300            24 12.0    0.290    0.321    0.543    0.576
 rs_pw_transfer_PW2RS_100            24 12.0    0.074    0.083    0.419    0.476
 prepare_preconditioner               3  5.0    0.000    0.000    0.431    0.432
 make_preconditioner                  3  6.0    0.000    0.000    0.408    0.410
 ot_mini                             24  8.0    0.000    0.000    0.389    0.396
 make_full_all                        3  7.0    0.000    0.000    0.389    0.389
 multiply_cannon                    544 11.0    0.035    0.037    0.311    0.352
 fft_wrap_pw1pw2_100                 49 11.5    0.012    0.013    0.258    0.332
 mp_sum_d                           960  6.8    0.205    0.315    0.205    0.315
 -------------------------------------------------------------------------------

 The number of warnings for this run is : 1
 
 -------------------------------------------------------------------------------
  **** **** ******  **  PROGRAM ENDED AT                 2021-05-18 14:34:02.070
 ***** ** ***  *** **   PROGRAM RAN ON                                   tcopt10
 **    ****   ******    PROGRAM RAN BY                                    hutter
 ***** **    ** ** **   PROGRAM PROCESS ID                                 18920
  **** **  *******  **  PROGRAM STOPPED IN            /data/hutter/run/delta/new
