 DBCSR| CPU Multiplication driver                                           XSMM
 DBCSR| Multrec recursion limit                                              512
 DBCSR| Multiplication stack size                                           1000
 DBCSR| Maximum elements for images                                    UNLIMITED
 DBCSR| Multiplicative factor virtual images                                   1
 DBCSR| Use multiplication densification                                       T
 DBCSR| Multiplication size stacks                                             3
 DBCSR| Use memory pool for CPU allocation                                     F
 DBCSR| Number of 3D layers                                               SINGLE
 DBCSR| Use MPI memory allocation                                              F
 DBCSR| Use RMA algorithm                                                      F
 DBCSR| Use Communication thread                                               T
 DBCSR| Communication thread load                                             87
 DBCSR| MPI: My node id                                                        0
 DBCSR| MPI: Number of nodes                                                  24
 DBCSR| OMP: Current number of threads                                         1
 DBCSR| OMP: Max number of threads                                             1
 DBCSR| Split modifier for TAS multiplication algorithm                  1.0E+00


  **** **** ******  **  PROGRAM STARTED AT               2021-05-18 14:35:13.076
 ***** ** ***  *** **   PROGRAM STARTED ON                               tcopt10
 **    ****   ******    PROGRAM STARTED BY                                hutter
 ***** **    ** ** **   PROGRAM PROCESS ID                                 19635
  **** **  *******  **  PROGRAM STARTED IN            /data/hutter/run/delta/new

 CP2K| version string:                    CP2K version 9.0 (Development Version)
 CP2K| source code revision number:                                  git:4b756b0
 CP2K| cp2kflags: omp libint fftw3 libxc elpa parallel mpi3 scalapack xsmm spgli
 CP2K|            b sirius libvori libbqb
 CP2K| is freely available from                            https://www.cp2k.org/
 CP2K| Program compiled at                         Wed May  5 15:51:41 CEST 2021
 CP2K| Program compiled on                                               tcopt10
 CP2K| Program compiled for                                                local
 CP2K| Data directory path                 /data/hutter/GITHUB/CURRENT/cp2k/data
 CP2K| Input file name                                               NH3-ref.inp

 GLOBAL| Force Environment number                                              1
 GLOBAL| Basis set file name                                      ../PBE_UCBASIS
 GLOBAL| Potential file name                                        ../POTENTIAL
 GLOBAL| MM Potential file name                                     MM_POTENTIAL
 GLOBAL| Coordinate file name                                      __STD_INPUT__
 GLOBAL| Method name                                                        CP2K
 GLOBAL| Project name                                                     refNH3
 GLOBAL| Preferred FFT library                                             FFTW3
 GLOBAL| Preferred diagonalization lib.                                       SL
 GLOBAL| Run type                                                         ENERGY
 GLOBAL| All-to-all communication in single precision                          F
 GLOBAL| FFTs using library dependent lengths                                  F
 GLOBAL| Grid backend                                                       AUTO
 GLOBAL| Global print level                                                  LOW
 GLOBAL| MPI I/O enabled                                                       T
 GLOBAL| Total number of message passing processes                            24
 GLOBAL| Number of threads for this process                                    1
 GLOBAL| This output is from process                                           0
 GLOBAL| CPU model name                          AMD EPYC 7401 24-Core Processor
 GLOBAL| CPUID                                                              1002

 MEMORY| system memory details [Kb]
 MEMORY|                        rank 0           min           max       average
 MEMORY| MemTotal            263969868     263969868     263969868     263969868
 MEMORY| MemFree             218552296     218552296     218552296     218552296
 MEMORY| Buffers                    36            36            36            36
 MEMORY| Cached               37778864      37778864      37778864      37778864
 MEMORY| Slab                  3027876       3027876       3027876       3027876
 MEMORY| SReclaimable          1718156       1718156       1718156       1718156
 MEMORY| MemLikelyFree       258049352     258049352     258049352     258049352


 GENERATE|  Preliminary Number of Bonds generated:                             2
 GENERATE|  Achieved consistency in connectivity generation.
 GENERATE|  Number of Bonds generated:                                         2
 GENERATE|  Preliminary Number of Bends generated:                             1
 GENERATE|  Number of Bends generated:                                         1
 GENERATE|  Number of UB generated:                                            1
 GENERATE|  Preliminary Number of Torsions generated:                          0

 *******************************************************************************
 *******************************************************************************
 **                                                                           **
 **     #####                         ##              ##                      **
 **    ##   ##            ##          ##              ##                      **
 **   ##     ##                       ##            ######                    **
 **   ##     ##  ##   ##  ##   #####  ##  ##   ####   ##    #####    #####    **
 **   ##     ##  ##   ##  ##  ##      ## ##   ##      ##   ##   ##  ##   ##   **
 **   ##  ## ##  ##   ##  ##  ##      ####     ###    ##   ######   ######    **
 **    ##  ###   ##   ##  ##  ##      ## ##      ##   ##   ##       ##        **
 **     #######   #####   ##   #####  ##  ##  ####    ##    #####   ##        **
 **           ##                                                    ##        **
 **                                                                           **
 **                                                ... make the atoms dance   **
 **                                                                           **
 **            Copyright (C) by CP2K developers group (2000-2021)             **
 **                      J. Chem. Phys. 152, 194103 (2020)                    **
 **                                                                           **
 *******************************************************************************


 TOTAL NUMBERS AND MAXIMUM NUMBERS

  Total number of            - Atomic kinds:                                   2
                             - Atoms:                                          4
                             - Shell sets:                                     8
                             - Shells:                                        88
                             - Primitive Cartesian functions:                 48
                             - Cartesian basis functions:                    408
                             - Spherical basis functions:                    320

  Maximum angular momentum of- Orbital basis functions:                        4
                             - Local part of the GTH pseudopotential:          2
                             - Non-local part of the GTH pseudopotential:      0


 SCF PARAMETERS         Density guess:                                    ATOMIC
                        --------------------------------------------------------
                        max_scf:                                              10
                        max_scf_history:                                       0
                        max_diis:                                              4
                        --------------------------------------------------------
                        eps_scf:                                        1.00E-07
                        eps_scf_history:                                0.00E+00
                        eps_diis:                                       1.00E-01
                        eps_eigval:                                     1.00E-05
                        --------------------------------------------------------
                        level_shift [a.u.]:                                 0.00
                        --------------------------------------------------------
                        Outer loop SCF in use 
                        No variables optimised in outer loop
                        eps_scf                                         1.00E-07
                        max_scf                                               10
                        No outer loop optimization
                        step_size                                       5.00E-01

 Number of electrons:                                                          8
 Number of occupied orbitals:                                                  4
 Number of molecular orbitals:                                                 4

 Number of orbital functions:                                                320
 Number of independent orbital functions:                                    320

 Extrapolation method: initial_guess


 SCF WAVEFUNCTION OPTIMIZATION

  ----------------------------------- OT ---------------------------------------
  Minimizer      : DIIS                : direct inversion
                                         in the iterative subspace
                                         using   7 DIIS vectors
                                         safer DIIS on
  Preconditioner : FULL_ALL            : diagonalization, state selective
  Precond_solver : DEFAULT
  stepsize       :    0.15000000                  energy_gap     :    0.08000000
  eps_taylor     :   0.10000E-15                  max_taylor     :             4
  ----------------------------------- OT ---------------------------------------

  Step     Update method      Time    Convergence         Total energy    Change
  ------------------------------------------------------------------------------
     1 OT DIIS     0.15E+00    0.5     0.11242005       -10.6262860383 -1.06E+01
     2 OT DIIS     0.15E+00    0.6     0.09269995       -11.1043482644 -4.78E-01
     3 OT DIIS     0.15E+00    0.6     0.04959220       -11.6243767960 -5.20E-01
     4 OT DIIS     0.15E+00    0.6     0.01944397       -11.7213434931 -9.70E-02
     5 OT DIIS     0.15E+00    0.6     0.01793379       -11.7302874901 -8.94E-03
     6 OT DIIS     0.15E+00    0.6     0.00319677       -11.7405529680 -1.03E-02
     7 OT DIIS     0.15E+00    0.6     0.00214718       -11.7410374619 -4.84E-04
     8 OT DIIS     0.15E+00    0.6     0.00097171       -11.7413152522 -2.78E-04
     9 OT DIIS     0.15E+00    0.6     0.00040708       -11.7413636542 -4.84E-05
    10 OT DIIS     0.15E+00    0.6     0.00012422       -11.7413752399 -1.16E-05

  Leaving inner SCF loop after reaching    10 steps.


  Electronic density on regular grids:         -8.0000000000        0.0000000000
  Core density on regular grids:                8.0000000000       -0.0000000000
  Total charge density on r-space grids:       -0.0000000000
  Total charge density g-space grids:          -0.0000000000

  Overlap energy of the core charge distribution:               0.00000015782141
  Self energy of the core charge distribution:                -29.06642059771573
  Core Hamiltonian energy:                                      8.80136221091653
  Hartree energy:                                              12.12396366937195
  Exchange-correlation energy:                                 -3.60028068030982

  Total energy:                                               -11.74137523991566

  outer SCF iter =    1 RMS gradient =   0.12E-03 energy =        -11.7413752399

  ----------------------------------- OT ---------------------------------------
  Minimizer      : DIIS                : direct inversion
                                         in the iterative subspace
                                         using   7 DIIS vectors
                                         safer DIIS on
  Preconditioner : FULL_ALL            : diagonalization, state selective
  Precond_solver : DEFAULT
  stepsize       :    0.15000000                  energy_gap     :    0.08000000
  eps_taylor     :   0.10000E-15                  max_taylor     :             4
  ----------------------------------- OT ---------------------------------------

  Step     Update method      Time    Convergence         Total energy    Change
  ------------------------------------------------------------------------------
     1 OT DIIS     0.15E+00    1.2     0.00006025       -11.7413774903 -2.25E-06
     2 OT DIIS     0.15E+00    0.6     0.00002472       -11.7413779562 -4.66E-07
     3 OT DIIS     0.15E+00    0.6     0.00001283       -11.7413780351 -7.89E-08
     4 OT DIIS     0.15E+00    0.6     0.00000093       -11.7413780464 -1.13E-08
     5 OT DIIS     0.15E+00    0.6     0.00000014       -11.7413780465 -8.64E-11
     6 OT DIIS     0.15E+00    0.6     0.00000003       -11.7413780465 -2.72E-12

  *** SCF run converged in     6 steps ***


  Electronic density on regular grids:         -8.0000000000        0.0000000000
  Core density on regular grids:                8.0000000000       -0.0000000000
  Total charge density on r-space grids:       -0.0000000000
  Total charge density g-space grids:          -0.0000000000

  Overlap energy of the core charge distribution:               0.00000015782141
  Self energy of the core charge distribution:                -29.06642059771573
  Core Hamiltonian energy:                                      8.80116079044607
  Hartree energy:                                              12.12410625795725
  Exchange-correlation energy:                                 -3.60022465498304

  Total energy:                                               -11.74137804647404

  outer SCF iter =    2 RMS gradient =   0.29E-07 energy =        -11.7413780465
  outer SCF loop converged in   2 iterations or   16 steps


 ENERGY| Total FORCE_EVAL ( QS ) energy [a.u.]:              -11.741378046474043

 -------------------------------------------------------------------------------
 -                                                                             -
 -                                DBCSR STATISTICS                             -
 -                                                                             -
 -------------------------------------------------------------------------------
 COUNTER                                    TOTAL       BLAS       SMM       ACC
 flops     4 x     4 x     4                14208       0.0%    100.0%      0.0%
 flops     4 x     4 x   116               244992       0.0%    100.0%      0.0%
 flops    68 x     4 x     4               356864       0.0%    100.0%      0.0%
 flops     4 x     4 x    68               430848       0.0%    100.0%      0.0%
 flops   184 x     4 x     4               482816       0.0%    100.0%      0.0%
 flops   116 x    68 x     4              1072768       0.0%    100.0%      0.0%
 flops   116 x   116 x     4              1830016       0.0%    100.0%      0.0%
 flops    68 x   116 x     4              2145536       0.0%    100.0%      0.0%
 flops    68 x    68 x     4              3773184       0.0%    100.0%      0.0%
 flops   116 x     4 x   116              4951808       0.0%    100.0%      0.0%
 flops   184 x     4 x   116              6147072       0.0%    100.0%      0.0%
 flops   116 x     4 x    68              8708352       0.0%    100.0%      0.0%
 flops   184 x     4 x    68             10810368       0.0%    100.0%      0.0%
 flops    68 x     4 x   116             13251840       0.0%    100.0%      0.0%
 flops    68 x     4 x    68             23304960       0.0%    100.0%      0.0%
 flops inhomo. stacks                           0       0.0%      0.0%      0.0%
 flops total                        77.525632E+06       0.0%    100.0%      0.0%
 flops max/rank                     43.329792E+06       0.0%    100.0%      0.0%
 matmuls inhomo. stacks                         0       0.0%      0.0%      0.0%
 matmuls total                               1959       0.0%    100.0%      0.0%
 number of processed stacks                  1959       0.0%    100.0%      0.0%
 average stack size                                     0.0       1.0       0.0
 marketing flops                    82.651016E+06
 -------------------------------------------------------------------------------
 # multiplications                            360
 max memory usage/rank             331.546624E+06
 # max total images/rank                        3
 # max 3D layers                                1
 # MPI messages exchanged                  164160
 MPI messages size (bytes):
  total size                       349.533952E+06
  min size                           0.000000E+00
  max size                         170.752000E+03
  average size                       2.129227E+03
 MPI breakdown and total messages size (bytes):
             size <=      128              154506                   145152
       128 < size <=     8192                4734                 13516800
      8192 < size <=    32768                   0                        0
     32768 < size <=   131072                4510                265863680
    131072 < size <=  4194304                 410                 70008320
   4194304 < size <= 16777216                   0                        0
  16777216 < size                               0                        0
 -------------------------------------------------------------------------------

 *** WARNING in dbcsr_mm.F:294 :: Using a non-square number of MPI ranks ***
 *** might lead to poor performance. Used ranks: 24 Suggested: 25 49     ***

 -------------------------------------------------------------------------------
 -                                                                             -
 -                      DBCSR MESSAGE PASSING PERFORMANCE                      -
 -                                                                             -
 -------------------------------------------------------------------------------
 ROUTINE             CALLS      AVE VOLUME [Bytes]
 MP_Bcast               16                     12.
 MP_Allreduce         1922                      8.
 MP_Alltoall          1516                   5886.
 MP_ISend            15128                   2860.
 MP_IRecv            15128                   1259.
 -------------------------------------------------------------------------------

 -------------------------------------------------------------------------------
 -                                                                             -
 -                                GRID STATISTICS                              -
 -                                                                             -
 -------------------------------------------------------------------------------
 LP    KERNEL             BACKEND                              COUNT     PERCENT
 3     collocate ortho    REF                                  12342      15.08%
 3     integrate ortho    REF                                  11616      14.19%
 0     collocate ortho    REF                                  11356      13.87%
 0     integrate ortho    REF                                  10688      13.05%
 4     collocate ortho    REF                                   5338       6.52%
 4     integrate ortho    REF                                   5024       6.14%
 1     collocate ortho    REF                                   4998       6.10%
 1     integrate ortho    REF                                   4704       5.75%
 6     collocate ortho    REF                                   3400       4.15%
 6     integrate ortho    REF                                   3200       3.91%
 5     collocate ortho    REF                                   1496       1.83%
 7     collocate ortho    REF                                   1428       1.74%
 5     integrate ortho    REF                                   1408       1.72%
 2     collocate ortho    REF                                   1394       1.70%
 7     integrate ortho    REF                                   1344       1.64%
 2     integrate ortho    REF                                   1312       1.60%
 8     collocate ortho    REF                                    374       0.46%
 8     integrate ortho    REF                                    352       0.43%
 0     collocate general  REF                                     96       0.12%
 -------------------------------------------------------------------------------

 MEMORY| Estimated peak process memory [MiB]                                 317

 -------------------------------------------------------------------------------
 -                                                                             -
 -                         MESSAGE PASSING PERFORMANCE                         -
 -                                                                             -
 -------------------------------------------------------------------------------

 ROUTINE             CALLS      AVE VOLUME [Bytes]
 MP_Group                4
 MP_Bcast              174                1318635.
 MP_Allreduce          731                    822.
 MP_Sync                20
 MP_Alltoall           323                9437398.
 MP_ISendRecv         2277                 191232.
 MP_Wait              3331
 MP_comm_split          16
 MP_ISend              952                 411241.
 MP_IRecv              952                 411513.
 MP_Recv                 3                   2560.
 -------------------------------------------------------------------------------


 -------------------------------------------------------------------------------
 -                                                                             -
 -                           R E F E R E N C E S                               -
 -                                                                             -
 -------------------------------------------------------------------------------
 
 CP2K version 9.0 (Development Version), the CP2K developers group (2020).
 CP2K is freely available from https://www.cp2k.org/ .

 Kuehne,Thomas D.; Iannuzzi,Marcella; Del Ben,Mauro;
 Rybkin,Vladimir V.; Seewald,Patrick; Stein,Frederick; Laino,Teodoro;
 Khaliullin,Rustam Z.; Schuett,Ole; Schiffmann,Florian; Golze,Dorothea;
 Wilhelm,Jan; Chulkov,Sergey; Bani-Hashemian,Mohammad Hossein;
 Weber,Valery; Borstnik,Urban; Taillefumier,Mathieu;
 Jakobovits,Alice Shoshana; Lazzaro,Alfio; Pabst,Hans; Mueller,Tiziano;
 Schade,Robert; Guidon,Manuel; Andermatt,Samuel; Holmberg,Nico;
 Schenter,Gregory K.; Hehn,Anna; Bussy,Augustin; Belleflamme,Fabian;
 Tabacchi,Gloria; Gloess,Andreas; Lass,Michael; Bethune,Iain;
 Mundy,Christopher J.; Plessl,Christian; Watkins,Matt;
 VandeVondele,Joost; Krack,Matthias; Hutter,Juerg. 
 The Journal of Chemical Physics, 152 (19), (2020). 
 CP2K: An electronic structure and molecular dynamics software package -
 Quickstep: Efficient and accurate electronic structure calculations.
 https://doi.org/10.1063/5.0007045

 Schuett, Ole; Messmer, Peter; Hutter, Juerg; VandeVondele, Joost. 
 Electronic Structure Calculations on Graphics Processing Units, John
 Wiley & Sons, Ltd, 173-190 (2016). 
 GPU-Accelerated Sparse Matrix-Matrix Multiplication for
 Linear Scaling Density Functional Theory.
 https://doi.org/10.1002/9781118670712.ch8

 Heinecke, A; Henry, G; Hutchinson, M; Pabst, H. 
 Proceedings of Intl. Supercomputing Conference, 981-991 (2016). 
 LIBXSMM: Accelerating Small Matrix Multiplications
 by Runtime Code Generation.
 https://doi.org/10.1109/SC.2016.83

 Borstnik, U; VandeVondele, J; Weber, V; Hutter, J. 
 PARALLEL COMPUTING, 40 (5-6), 47-58 (2014). 
 Sparse matrix multiplication: The distributed block-compressed sparse
 row library.
 https://doi.org/10.1016/j.parco.2014.03.012

 Hutter, J; Iannuzzi, M; Schiffmann, F; VandeVondele, J. 
 WIREs Comput Mol Sci., 4 (1), 15-25 (2014). 
 CP2K: atomistic simulations of condensed matter systems.
 https://doi.org/10.1002/wcms.1159

 Krack, M. 
 THEORETICAL CHEMISTRY ACCOUNTS, 114 (1-3), 145-152 (2005). 
 Pseudopotentials for H to Kr optimized for gradient-corrected
 exchange-correlation functionals.
 https://doi.org/10.1007/s00214-005-0655-y

 VandeVondele, J; Krack, M; Mohamed, F; Parrinello, M; Chassaing, T;
 Hutter, J. COMPUTER PHYSICS COMMUNICATIONS, 167 (2), 103-128 (2005). 
 QUICKSTEP: Fast and accurate density functional calculations using a
 mixed Gaussian and plane waves approach.
 https://doi.org/10.1016/j.cpc.2004.12.014

 Frigo, M; Johnson, SG. 
 PROCEEDINGS OF THE IEEE, 93 (2), 216-231 (2005). 
 The design and implementation of FFTW3.
 https://doi.org/10.1109/JPROC.2004.840301

 VandeVondele, J; Hutter, J. 
 JOURNAL OF CHEMICAL PHYSICS, 118 (10), 4365-4369 (2003). 
 An efficient orbital transformation method for electronic structure
 calculations.
 https://doi.org/10.1063/1.1543154

 Hartwigsen, C; Goedecker, S; Hutter, J. 
 PHYSICAL REVIEW B, 58 (7), 3641-3662 (1998). 
 Relativistic separable dual-space Gaussian pseudopotentials from H to Rn.
 https://doi.org/10.1103/PhysRevB.58.3641

 Lippert, G; Hutter, J; Parrinello, M. 
 MOLECULAR PHYSICS, 92 (3), 477-487 (1997). 
 A hybrid Gaussian and plane wave density functional scheme.
 https://doi.org/10.1080/002689797170220

 Perdew, JP; Burke, K; Ernzerhof, M. 
 PHYSICAL REVIEW LETTERS, 77 (18), 3865-3868 (1996). 
 Generalized gradient approximation made simple.
 https://doi.org/10.1103/PhysRevLett.77.3865

 Goedecker, S; Teter, M; Hutter, J. 
 PHYSICAL REVIEW B, 54 (3), 1703-1710 (1996). 
 Separable dual-space Gaussian pseudopotentials.
 https://doi.org/10.1103/PhysRevB.54.1703


 -------------------------------------------------------------------------------
 -                                                                             -
 -                                T I M I N G                                  -
 -                                                                             -
 -------------------------------------------------------------------------------
 SUBROUTINE                       CALLS  ASD         SELF TIME        TOTAL TIME
                                MAXIMUM       AVERAGE  MAXIMUM  AVERAGE  MAXIMUM
 CP2K                                 1  1.0    0.006    0.029   10.105   10.106
 qs_energies                          1  2.0    0.000    0.000    9.879    9.879
 scf_env_do_scf                       1  3.0    0.000    0.000    9.630    9.630
 scf_env_do_scf_inner_loop           16  4.0    0.001    0.002    8.598    8.598
 qs_ks_update_qs_env                 18  5.0    0.000    0.000    7.239    7.245
 rebuild_ks_matrix                   16  6.0    0.000    0.000    7.236    7.242
 qs_ks_build_kohn_sham_matrix        16  7.0    0.003    0.004    7.235    7.242
 pw_transfer                        310  9.6    0.027    0.034    5.362    6.093
 fft_wrap_pw1pw2                    278 10.7    0.003    0.004    5.301    6.024
 fft_wrap_pw1pw2_300                179 11.8    0.221    0.241    5.059    5.804
 qs_vxc_create                       16  8.0    0.000    0.001    5.090    5.114
 xc_vxc_pw_create                    16  9.0    0.040    0.044    5.089    5.114
 fft3d_ps                           278 12.7    1.871    2.090    4.311    4.946
 xc_rho_set_and_dset_create          16 10.0    0.017    0.019    2.797    3.266
 mp_alltoall_z22v                   278 14.7    2.033    2.760    2.033    2.760
 yz_to_x                            133 13.1    0.164    0.215    1.380    2.064
 qs_rho_update_rho                   17  5.0    0.000    0.000    1.984    1.984
 calculate_rho_elec                  17  6.0    0.018    0.019    1.984    1.984
 xc_functional_eval                  16 11.0    0.000    0.000    1.407    1.876
 pbe_lda_eval                        16 12.0    1.406    1.876    1.406    1.876
 density_rs2pw                       17  7.0    0.001    0.001    1.593    1.703
 sum_up_and_integrate                16  8.0    0.009    0.010    1.562    1.564
 integrate_v_rspace                  16  9.0    0.000    0.001    1.553    1.555
 rs_pw_transfer                     133  9.4    0.002    0.003    1.319    1.400
 potential_pw2rs                     16 10.0    0.001    0.002    1.237    1.239
 x_to_yz                            145 14.2    0.235    0.279    1.052    1.203
 init_scf_loop                        2  4.0    0.000    0.000    1.031    1.031
 mp_waitall_1                     22539 13.9    0.434    0.507    0.434    0.507
 rs_pw_transfer_RS2PW_300            18  8.9    0.170    0.203    0.402    0.483
 grid_collocate_task_list            17  7.0    0.284    0.442    0.284    0.442
 pw_scatter_p                       145 13.2    0.403    0.436    0.403    0.436
 pw_gather_p                        133 12.1    0.352    0.413    0.352    0.413
 mp_waitany                         952 11.4    0.295    0.401    0.295    0.401
 dbcsr_multiply_generic             360 10.0    0.011    0.011    0.368    0.373
 qs_scf_new_mos                      16  5.0    0.000    0.000    0.361    0.364
 qs_scf_loop_do_ot                   16  6.0    0.000    0.000    0.361    0.364
 ot_scf_mini                         16  7.0    0.000    0.000    0.344    0.348
 rs_pw_transfer_PW2RS_300            16 12.0    0.168    0.186    0.320    0.344
 rs_pw_transfer_PW2RS_100            16 12.0    0.052    0.059    0.286    0.326
 grid_integrate_task_list            16 10.0    0.145    0.306    0.145    0.306
 mp_alltoall_d11v                   405 11.4    0.191    0.266    0.191    0.266
 rs_gather_matrices                  16 10.0    0.000    0.002    0.170    0.245
 fft_wrap_pw1pw2_100                 33 11.5    0.008    0.009    0.185    0.237
 ot_mini                             16  8.0    0.000    0.000    0.232    0.236
 -------------------------------------------------------------------------------

 The number of warnings for this run is : 1
 
 -------------------------------------------------------------------------------
  **** **** ******  **  PROGRAM ENDED AT                 2021-05-18 14:35:23.814
 ***** ** ***  *** **   PROGRAM RAN ON                                   tcopt10
 **    ****   ******    PROGRAM RAN BY                                    hutter
 ***** **    ** ** **   PROGRAM PROCESS ID                                 19635
  **** **  *******  **  PROGRAM STOPPED IN            /data/hutter/run/delta/new
