 DBCSR| CPU Multiplication driver                                           XSMM
 DBCSR| Multrec recursion limit                                              512
 DBCSR| Multiplication stack size                                           1000
 DBCSR| Maximum elements for images                                    UNLIMITED
 DBCSR| Multiplicative factor virtual images                                   1
 DBCSR| Use multiplication densification                                       T
 DBCSR| Multiplication size stacks                                             3
 DBCSR| Use memory pool for CPU allocation                                     F
 DBCSR| Number of 3D layers                                               SINGLE
 DBCSR| Use MPI memory allocation                                              F
 DBCSR| Use RMA algorithm                                                      F
 DBCSR| Use Communication thread                                               T
 DBCSR| Communication thread load                                             87
 DBCSR| MPI: My node id                                                        0
 DBCSR| MPI: Number of nodes                                                  24
 DBCSR| OMP: Current number of threads                                         1
 DBCSR| OMP: Max number of threads                                             1
 DBCSR| Split modifier for TAS multiplication algorithm                  1.0E+00


  **** **** ******  **  PROGRAM STARTED AT               2021-05-18 14:36:30.312
 ***** ** ***  *** **   PROGRAM STARTED ON                               tcopt10
 **    ****   ******    PROGRAM STARTED BY                                hutter
 ***** **    ** ** **   PROGRAM PROCESS ID                                 20336
  **** **  *******  **  PROGRAM STARTED IN            /data/hutter/run/delta/new

 CP2K| version string:                    CP2K version 9.0 (Development Version)
 CP2K| source code revision number:                                  git:4b756b0
 CP2K| cp2kflags: omp libint fftw3 libxc elpa parallel mpi3 scalapack xsmm spgli
 CP2K|            b sirius libvori libbqb
 CP2K| is freely available from                            https://www.cp2k.org/
 CP2K| Program compiled at                         Wed May  5 15:51:41 CEST 2021
 CP2K| Program compiled on                                               tcopt10
 CP2K| Program compiled for                                                local
 CP2K| Data directory path                 /data/hutter/GITHUB/CURRENT/cp2k/data
 CP2K| Input file name                                              NH4F-ref.inp

 GLOBAL| Force Environment number                                              1
 GLOBAL| Basis set file name                                      ../PBE_UCBASIS
 GLOBAL| Potential file name                                        ../POTENTIAL
 GLOBAL| MM Potential file name                                     MM_POTENTIAL
 GLOBAL| Coordinate file name                                      __STD_INPUT__
 GLOBAL| Method name                                                        CP2K
 GLOBAL| Project name                                                    refNH4F
 GLOBAL| Preferred FFT library                                             FFTW3
 GLOBAL| Preferred diagonalization lib.                                       SL
 GLOBAL| Run type                                                         ENERGY
 GLOBAL| All-to-all communication in single precision                          F
 GLOBAL| FFTs using library dependent lengths                                  F
 GLOBAL| Grid backend                                                       AUTO
 GLOBAL| Global print level                                                  LOW
 GLOBAL| MPI I/O enabled                                                       T
 GLOBAL| Total number of message passing processes                            24
 GLOBAL| Number of threads for this process                                    1
 GLOBAL| This output is from process                                           0
 GLOBAL| CPU model name                          AMD EPYC 7401 24-Core Processor
 GLOBAL| CPUID                                                              1002

 MEMORY| system memory details [Kb]
 MEMORY|                        rank 0           min           max       average
 MEMORY| MemTotal            263969868     263969868     263969868     263969868
 MEMORY| MemFree             218546252     218546252     218546252     218546252
 MEMORY| Buffers                    36            36            36            36
 MEMORY| Cached               37779492      37779492      37779492      37779492
 MEMORY| Slab                  3027128       3027128       3027128       3027128
 MEMORY| SReclaimable          1718860       1718860       1718860       1718860
 MEMORY| MemLikelyFree       258044640     258044640     258044640     258044640


 GENERATE|  Preliminary Number of Bonds generated:                             3
 GENERATE|  Achieved consistency in connectivity generation.
 GENERATE|  Number of Bonds generated:                                         3
 GENERATE|  Preliminary Number of Bends generated:                             3
 GENERATE|  Number of Bends generated:                                         3
 GENERATE|  Number of UB generated:                                            3
 GENERATE|  Preliminary Number of Torsions generated:                          0
 GENERATE|  Number of Impropers generated:                                     1

 *******************************************************************************
 *******************************************************************************
 **                                                                           **
 **     #####                         ##              ##                      **
 **    ##   ##            ##          ##              ##                      **
 **   ##     ##                       ##            ######                    **
 **   ##     ##  ##   ##  ##   #####  ##  ##   ####   ##    #####    #####    **
 **   ##     ##  ##   ##  ##  ##      ## ##   ##      ##   ##   ##  ##   ##   **
 **   ##  ## ##  ##   ##  ##  ##      ####     ###    ##   ######   ######    **
 **    ##  ###   ##   ##  ##  ##      ## ##      ##   ##   ##       ##        **
 **     #######   #####   ##   #####  ##  ##  ####    ##    #####   ##        **
 **           ##                                                    ##        **
 **                                                                           **
 **                                                ... make the atoms dance   **
 **                                                                           **
 **            Copyright (C) by CP2K developers group (2000-2021)             **
 **                      J. Chem. Phys. 152, 194103 (2020)                    **
 **                                                                           **
 *******************************************************************************


 TOTAL NUMBERS AND MAXIMUM NUMBERS

  Total number of            - Atomic kinds:                                   3
                             - Atoms:                                          6
                             - Shell sets:                                    12
                             - Shells:                                       136
                             - Primitive Cartesian functions:                 72
                             - Cartesian basis functions:                    648
                             - Spherical basis functions:                    504

  Maximum angular momentum of- Orbital basis functions:                        4
                             - Local part of the GTH pseudopotential:          2
                             - Non-local part of the GTH pseudopotential:      0


 SCF PARAMETERS         Density guess:                                    ATOMIC
                        --------------------------------------------------------
                        max_scf:                                              10
                        max_scf_history:                                       0
                        max_diis:                                              4
                        --------------------------------------------------------
                        eps_scf:                                        1.00E-07
                        eps_scf_history:                                0.00E+00
                        eps_diis:                                       1.00E-01
                        eps_eigval:                                     1.00E-05
                        --------------------------------------------------------
                        level_shift [a.u.]:                                 0.00
                        --------------------------------------------------------
                        Outer loop SCF in use 
                        No variables optimised in outer loop
                        eps_scf                                         1.00E-07
                        max_scf                                               10
                        No outer loop optimization
                        step_size                                       5.00E-01

 Number of electrons:                                                         16
 Number of occupied orbitals:                                                  8
 Number of molecular orbitals:                                                 8

 Number of orbital functions:                                                504
 Number of independent orbital functions:                                    504

 Extrapolation method: initial_guess


 SCF WAVEFUNCTION OPTIMIZATION

  ----------------------------------- OT ---------------------------------------
  Minimizer      : DIIS                : direct inversion
                                         in the iterative subspace
                                         using   7 DIIS vectors
                                         safer DIIS on
  Preconditioner : FULL_ALL            : diagonalization, state selective
  Precond_solver : DEFAULT
  stepsize       :    0.15000000                  energy_gap     :    0.08000000
  eps_taylor     :   0.10000E-15                  max_taylor     :             4
  ----------------------------------- OT ---------------------------------------

  Step     Update method      Time    Convergence         Total energy    Change
  ------------------------------------------------------------------------------
     1 OT DIIS     0.15E+00    0.7     0.05983556       -35.7624714733 -3.58E+01
     2 OT DIIS     0.15E+00    0.6     0.04437336       -36.1479579471 -3.85E-01
     3 OT DIIS     0.15E+00    0.6     0.01106950       -36.5761210590 -4.28E-01
     4 OT DIIS     0.15E+00    0.6     0.00597178       -36.6025419357 -2.64E-02
     5 OT DIIS     0.15E+00    0.6     0.00236060       -36.6104205943 -7.88E-03
     6 OT DIIS     0.15E+00    0.6     0.00112048       -36.6115911635 -1.17E-03
     7 OT DIIS     0.15E+00    0.6     0.00040774       -36.6118889729 -2.98E-04
     8 OT DIIS     0.15E+00    0.6     0.00010820       -36.6119249318 -3.60E-05
     9 OT DIIS     0.15E+00    0.6     0.00007393       -36.6119298815 -4.95E-06
    10 OT DIIS     0.15E+00    0.6     0.00001639       -36.6119312026 -1.32E-06

  Leaving inner SCF loop after reaching    10 steps.


  Electronic density on regular grids:        -15.9999999965        0.0000000035
  Core density on regular grids:               16.0000000000       -0.0000000000
  Total charge density on r-space grids:        0.0000000035
  Total charge density g-space grids:           0.0000000035

  Overlap energy of the core charge distribution:               0.00000017094679
  Self energy of the core charge distribution:                -94.82600284316732
  Core Hamiltonian energy:                                     27.46391318258985
  Hartree energy:                                              39.38416426964072
  Exchange-correlation energy:                                 -8.63400598264510

  Total energy:                                               -36.61193120263506

  outer SCF iter =    1 RMS gradient =   0.16E-04 energy =        -36.6119312026

  ----------------------------------- OT ---------------------------------------
  Minimizer      : DIIS                : direct inversion
                                         in the iterative subspace
                                         using   7 DIIS vectors
                                         safer DIIS on
  Preconditioner : FULL_ALL            : diagonalization, state selective
  Precond_solver : DEFAULT
  stepsize       :    0.15000000                  energy_gap     :    0.08000000
  eps_taylor     :   0.10000E-15                  max_taylor     :             4
  ----------------------------------- OT ---------------------------------------

  Step     Update method      Time    Convergence         Total energy    Change
  ------------------------------------------------------------------------------
     1 OT DIIS     0.15E+00    1.4     0.00000606       -36.6119313289 -1.26E-07
     2 OT DIIS     0.15E+00    0.6     0.00000268       -36.6119313431 -1.42E-08
     3 OT DIIS     0.15E+00    0.6     0.00000148       -36.6119313456 -2.46E-09
     4 OT DIIS     0.15E+00    0.6     0.00000011       -36.6119313461 -5.77E-10
     5 OT DIIS     0.15E+00    0.6     0.00000004       -36.6119313461 -2.27E-12

  *** SCF run converged in     5 steps ***


  Electronic density on regular grids:        -15.9999999965        0.0000000035
  Core density on regular grids:               16.0000000000       -0.0000000000
  Total charge density on r-space grids:        0.0000000035
  Total charge density g-space grids:           0.0000000035

  Overlap energy of the core charge distribution:               0.00000017094679
  Self energy of the core charge distribution:                -94.82600284316732
  Core Hamiltonian energy:                                     27.46431730264332
  Hartree energy:                                              39.38384059965470
  Exchange-correlation energy:                                 -8.63408657622176

  Total energy:                                               -36.61193134614426

  outer SCF iter =    2 RMS gradient =   0.44E-07 energy =        -36.6119313461
  outer SCF loop converged in   2 iterations or   15 steps


 ENERGY| Total FORCE_EVAL ( QS ) energy [a.u.]:              -36.611931346144260

 -------------------------------------------------------------------------------
 -                                                                             -
 -                                DBCSR STATISTICS                             -
 -                                                                             -
 -------------------------------------------------------------------------------
 COUNTER                                    TOTAL       BLAS       SMM       ACC
 flops     8 x     8 x     8                91136       0.0%    100.0%      0.0%
 flops     8 x     8 x   116              1841152       0.0%    100.0%      0.0%
 flops     8 x     8 x    68              2158592       0.0%    100.0%      0.0%
 flops   232 x     8 x     8              2286592       0.0%    100.0%      0.0%
 flops   136 x     8 x     8              2680832       0.0%    100.0%      0.0%
 flops    68 x   116 x     8              8077312       0.0%    100.0%      0.0%
 flops   116 x    68 x     8              8077312       0.0%    100.0%      0.0%
 flops   116 x   116 x     8             10334208       0.0%    100.0%      0.0%
 flops    68 x    68 x     8             11837440       0.0%    100.0%      0.0%
 flops   232 x     8 x   116             29280256       0.0%    100.0%      0.0%
 flops   232 x     8 x    68             34328576       0.0%    100.0%      0.0%
 flops   136 x     8 x   116             34328576       0.0%    100.0%      0.0%
 flops   116 x     8 x   116             37892096       0.0%    100.0%      0.0%
 flops   136 x     8 x    68             40247296       0.0%    100.0%      0.0%
 flops   116 x     8 x    68             44425216       0.0%    100.0%      0.0%
 flops    68 x     8 x   116             44425216       0.0%    100.0%      0.0%
 flops    68 x     8 x    68             52084736       0.0%    100.0%      0.0%
 flops inhomo. stacks                           0       0.0%      0.0%      0.0%
 flops total                       364.396544E+06       0.0%    100.0%      0.0%
 flops max/rank                    162.637824E+06       0.0%    100.0%      0.0%
 matmuls inhomo. stacks                         0       0.0%      0.0%      0.0%
 matmuls total                               3224       0.0%    100.0%      0.0%
 number of processed stacks                  2288       0.0%    100.0%      0.0%
 average stack size                                     0.0       1.4       0.0
 marketing flops                   391.227424E+06
 -------------------------------------------------------------------------------
 # multiplications                            324
 max memory usage/rank             342.077440E+06
 # max total images/rank                        3
 # max 3D layers                                1
 # MPI messages exchanged                  147744
 MPI messages size (bytes):
  total size                       833.106944E+06
  min size                           0.000000E+00
  max size                         215.296000E+03
  average size                       5.638854E+03
 MPI breakdown and total messages size (bytes):
             size <=      128              133766                        0
       128 < size <=     8192                5515                 24865280
      8192 < size <=    32768                1443                 15711744
     32768 < size <=   131072                6240                624599040
    131072 < size <=  4194304                 780                167930880
   4194304 < size <= 16777216                   0                        0
  16777216 < size                               0                        0
 -------------------------------------------------------------------------------

 *** WARNING in dbcsr_mm.F:294 :: Using a non-square number of MPI ranks ***
 *** might lead to poor performance. Used ranks: 24 Suggested: 25 49     ***

 -------------------------------------------------------------------------------
 -                                                                             -
 -                      DBCSR MESSAGE PASSING PERFORMANCE                      -
 -                                                                             -
 -------------------------------------------------------------------------------
 ROUTINE             CALLS      AVE VOLUME [Bytes]
 MP_Bcast               18                     12.
 MP_Allreduce         1738                      8.
 MP_Alltoall          1430                   9577.
 MP_ISend            13616                   6154.
 MP_IRecv            13616                   3335.
 -------------------------------------------------------------------------------

 -------------------------------------------------------------------------------
 -                                                                             -
 -                                GRID STATISTICS                              -
 -                                                                             -
 -------------------------------------------------------------------------------
 LP    KERNEL             BACKEND                              COUNT     PERCENT
 3     collocate ortho    REF                                  19616      13.12%
 3     integrate ortho    REF                                  18390      12.30%
 0     collocate ortho    REF                                  17808      11.91%
 0     integrate ortho    REF                                  16695      11.16%
 4     collocate ortho    REF                                  11984       8.01%
 4     integrate ortho    REF                                  11235       7.51%
 1     collocate ortho    REF                                  11056       7.39%
 1     integrate ortho    REF                                  10365       6.93%
 6     collocate ortho    REF                                   5504       3.68%
 6     integrate ortho    REF                                   5160       3.45%
 5     collocate ortho    REF                                   3648       2.44%
 5     integrate ortho    REF                                   3420       2.29%
 2     collocate ortho    REF                                   3376       2.26%
 7     collocate ortho    REF                                   3216       2.15%
 2     integrate ortho    REF                                   3165       2.12%
 7     integrate ortho    REF                                   3015       2.02%
 8     collocate ortho    REF                                    912       0.61%
 8     integrate ortho    REF                                    855       0.57%
 0     collocate general  REF                                    144       0.10%
 -------------------------------------------------------------------------------

 MEMORY| Estimated peak process memory [MiB]                                 327

 -------------------------------------------------------------------------------
 -                                                                             -
 -                         MESSAGE PASSING PERFORMANCE                         -
 -                                                                             -
 -------------------------------------------------------------------------------

 ROUTINE             CALLS      AVE VOLUME [Bytes]
 MP_Group                4
 MP_Bcast              250                1376328.
 MP_Allreduce          886                    691.
 MP_Sync                20
 MP_Alltoall           304                9487604.
 MP_ISendRecv         2139                 191232.
 MP_Wait              3131
 MP_comm_split          16
 MP_ISend              896                 468318.
 MP_IRecv              896                 468608.
 MP_Recv                 3                   8064.
 -------------------------------------------------------------------------------


 -------------------------------------------------------------------------------
 -                                                                             -
 -                           R E F E R E N C E S                               -
 -                                                                             -
 -------------------------------------------------------------------------------
 
 CP2K version 9.0 (Development Version), the CP2K developers group (2020).
 CP2K is freely available from https://www.cp2k.org/ .

 Kuehne,Thomas D.; Iannuzzi,Marcella; Del Ben,Mauro;
 Rybkin,Vladimir V.; Seewald,Patrick; Stein,Frederick; Laino,Teodoro;
 Khaliullin,Rustam Z.; Schuett,Ole; Schiffmann,Florian; Golze,Dorothea;
 Wilhelm,Jan; Chulkov,Sergey; Bani-Hashemian,Mohammad Hossein;
 Weber,Valery; Borstnik,Urban; Taillefumier,Mathieu;
 Jakobovits,Alice Shoshana; Lazzaro,Alfio; Pabst,Hans; Mueller,Tiziano;
 Schade,Robert; Guidon,Manuel; Andermatt,Samuel; Holmberg,Nico;
 Schenter,Gregory K.; Hehn,Anna; Bussy,Augustin; Belleflamme,Fabian;
 Tabacchi,Gloria; Gloess,Andreas; Lass,Michael; Bethune,Iain;
 Mundy,Christopher J.; Plessl,Christian; Watkins,Matt;
 VandeVondele,Joost; Krack,Matthias; Hutter,Juerg. 
 The Journal of Chemical Physics, 152 (19), (2020). 
 CP2K: An electronic structure and molecular dynamics software package -
 Quickstep: Efficient and accurate electronic structure calculations.
 https://doi.org/10.1063/5.0007045

 Schuett, Ole; Messmer, Peter; Hutter, Juerg; VandeVondele, Joost. 
 Electronic Structure Calculations on Graphics Processing Units, John
 Wiley & Sons, Ltd, 173-190 (2016). 
 GPU-Accelerated Sparse Matrix-Matrix Multiplication for
 Linear Scaling Density Functional Theory.
 https://doi.org/10.1002/9781118670712.ch8

 Heinecke, A; Henry, G; Hutchinson, M; Pabst, H. 
 Proceedings of Intl. Supercomputing Conference, 981-991 (2016). 
 LIBXSMM: Accelerating Small Matrix Multiplications
 by Runtime Code Generation.
 https://doi.org/10.1109/SC.2016.83

 Borstnik, U; VandeVondele, J; Weber, V; Hutter, J. 
 PARALLEL COMPUTING, 40 (5-6), 47-58 (2014). 
 Sparse matrix multiplication: The distributed block-compressed sparse
 row library.
 https://doi.org/10.1016/j.parco.2014.03.012

 Hutter, J; Iannuzzi, M; Schiffmann, F; VandeVondele, J. 
 WIREs Comput Mol Sci., 4 (1), 15-25 (2014). 
 CP2K: atomistic simulations of condensed matter systems.
 https://doi.org/10.1002/wcms.1159

 Krack, M. 
 THEORETICAL CHEMISTRY ACCOUNTS, 114 (1-3), 145-152 (2005). 
 Pseudopotentials for H to Kr optimized for gradient-corrected
 exchange-correlation functionals.
 https://doi.org/10.1007/s00214-005-0655-y

 VandeVondele, J; Krack, M; Mohamed, F; Parrinello, M; Chassaing, T;
 Hutter, J. COMPUTER PHYSICS COMMUNICATIONS, 167 (2), 103-128 (2005). 
 QUICKSTEP: Fast and accurate density functional calculations using a
 mixed Gaussian and plane waves approach.
 https://doi.org/10.1016/j.cpc.2004.12.014

 Frigo, M; Johnson, SG. 
 PROCEEDINGS OF THE IEEE, 93 (2), 216-231 (2005). 
 The design and implementation of FFTW3.
 https://doi.org/10.1109/JPROC.2004.840301

 VandeVondele, J; Hutter, J. 
 JOURNAL OF CHEMICAL PHYSICS, 118 (10), 4365-4369 (2003). 
 An efficient orbital transformation method for electronic structure
 calculations.
 https://doi.org/10.1063/1.1543154

 Hartwigsen, C; Goedecker, S; Hutter, J. 
 PHYSICAL REVIEW B, 58 (7), 3641-3662 (1998). 
 Relativistic separable dual-space Gaussian pseudopotentials from H to Rn.
 https://doi.org/10.1103/PhysRevB.58.3641

 Lippert, G; Hutter, J; Parrinello, M. 
 MOLECULAR PHYSICS, 92 (3), 477-487 (1997). 
 A hybrid Gaussian and plane wave density functional scheme.
 https://doi.org/10.1080/002689797170220

 Perdew, JP; Burke, K; Ernzerhof, M. 
 PHYSICAL REVIEW LETTERS, 77 (18), 3865-3868 (1996). 
 Generalized gradient approximation made simple.
 https://doi.org/10.1103/PhysRevLett.77.3865

 Goedecker, S; Teter, M; Hutter, J. 
 PHYSICAL REVIEW B, 54 (3), 1703-1710 (1996). 
 Separable dual-space Gaussian pseudopotentials.
 https://doi.org/10.1103/PhysRevB.54.1703


 -------------------------------------------------------------------------------
 -                                                                             -
 -                                T I M I N G                                  -
 -                                                                             -
 -------------------------------------------------------------------------------
 SUBROUTINE                       CALLS  ASD         SELF TIME        TOTAL TIME
                                MAXIMUM       AVERAGE  MAXIMUM  AVERAGE  MAXIMUM
 CP2K                                 1  1.0    0.006    0.030   10.068   10.069
 qs_energies                          1  2.0    0.000    0.000    9.715    9.715
 scf_env_do_scf                       1  3.0    0.000    0.000    9.436    9.436
 scf_env_do_scf_inner_loop           15  4.0    0.001    0.002    8.171    8.171
 qs_ks_update_qs_env                 17  5.0    0.000    0.000    6.921    6.924
 rebuild_ks_matrix                   15  6.0    0.000    0.000    6.917    6.921
 qs_ks_build_kohn_sham_matrix        15  7.0    0.003    0.003    6.917    6.921
 pw_transfer                        291  9.6    0.025    0.032    5.096    6.013
 fft_wrap_pw1pw2                    261 10.7    0.003    0.004    5.039    5.954
 fft_wrap_pw1pw2_300                168 11.8    0.206    0.225    4.817    5.755
 fft3d_ps                           261 12.7    1.768    1.911    4.109    5.008
 qs_vxc_create                       15  8.0    0.000    0.001    4.853    4.878
 xc_vxc_pw_create                    15  9.0    0.037    0.041    4.853    4.877
 xc_rho_set_and_dset_create          15 10.0    0.017    0.018    2.676    3.199
 mp_alltoall_z22v                   261 14.7    1.953    2.895    1.953    2.895
 yz_to_x                            125 13.1    0.157    0.227    1.299    2.193
 qs_rho_update_rho                   16  5.0    0.000    0.000    1.956    1.956
 calculate_rho_elec                  16  6.0    0.017    0.018    1.956    1.956
 xc_functional_eval                  15 11.0    0.000    0.000    1.309    1.829
 pbe_lda_eval                        15 12.0    1.309    1.829    1.309    1.829
 density_rs2pw                       16  7.0    0.001    0.001    1.498    1.561
 sum_up_and_integrate                15  8.0    0.009    0.009    1.494    1.497
 integrate_v_rspace                  15  9.0    0.000    0.001    1.485    1.489
 rs_pw_transfer                     125  9.4    0.002    0.003    1.291    1.345
 init_scf_loop                        2  4.0    0.000    0.000    1.264    1.264
 x_to_yz                            136 14.2    0.221    0.264    1.033    1.186
 potential_pw2rs                     15 10.0    0.001    0.002    1.163    1.164
 mp_waitall_1                     20379 13.9    0.434    0.525    0.434    0.525
 rs_pw_transfer_RS2PW_300            17  8.9    0.197    0.227    0.388    0.445
 pw_scatter_p                       136 13.2    0.380    0.412    0.380    0.412
 grid_collocate_task_list            16  7.0    0.370    0.401    0.370    0.401
 dbcsr_multiply_generic             324 10.0    0.010    0.010    0.381    0.391
 pw_gather_p                        125 12.1    0.331    0.391    0.331    0.391
 rs_pw_transfer_PW2RS_300            15 12.0    0.186    0.205    0.347    0.371
 qs_scf_new_mos                      15  5.0    0.000    0.000    0.362    0.365
 qs_scf_loop_do_ot                   15  6.0    0.000    0.000    0.362    0.365
 ot_scf_mini                         15  7.0    0.000    0.000    0.345    0.349
 mp_waitany                         896 11.3    0.257    0.319    0.257    0.319
 prepare_preconditioner               2  5.0    0.000    0.000    0.314    0.315
 grid_integrate_task_list            15 10.0    0.264    0.308    0.264    0.308
 make_preconditioner                  2  6.0    0.000    0.000    0.299    0.300
 rs_pw_transfer_PW2RS_100            15 12.0    0.046    0.052    0.266    0.297
 qs_init_subsys                       1  2.0    0.001    0.001    0.291    0.291
 qs_env_setup                         1  3.0    0.000    0.000    0.289    0.289
 qs_env_rebuild_pw_env                2  3.5    0.000    0.000    0.288    0.289
 pw_env_rebuild                       1  5.0    0.000    0.000    0.288    0.289
 make_full_all                        2  7.0    0.000    0.000    0.287    0.287
 ot_mini                             15  8.0    0.000    0.000    0.226    0.230
 multiply_cannon                    324 11.0    0.021    0.023    0.186    0.221
 cp_fm_syevd                         16 10.0    0.000    0.000    0.217    0.218
 fft_wrap_pw1pw2_100                 31 11.5    0.008    0.009    0.170    0.216
 cp_fm_redistribute_end              16 11.0    0.109    0.209    0.110    0.209
 compute_max_radius                   1  6.0    0.201    0.205    0.201    0.205
 cp_fm_syevd_base                    16 10.6    0.099    0.204    0.099    0.204
 -------------------------------------------------------------------------------

 The number of warnings for this run is : 1
 
 -------------------------------------------------------------------------------
  **** **** ******  **  PROGRAM ENDED AT                 2021-05-18 14:36:41.016
 ***** ** ***  *** **   PROGRAM RAN ON                                   tcopt10
 **    ****   ******    PROGRAM RAN BY                                    hutter
 ***** **    ** ** **   PROGRAM PROCESS ID                                 20336
  **** **  *******  **  PROGRAM STOPPED IN            /data/hutter/run/delta/new
