
  **** **** ******  **  PROGRAM STARTED AT               2021-05-18 16:09:33.239
 ***** ** ***  *** **   PROGRAM STARTED ON                               tcopt10
 **    ****   ******    PROGRAM STARTED BY                                hutter
 ***** **    ** ** **   PROGRAM PROCESS ID                                 30999
  **** **  *******  **  PROGRAM STARTED IN            /data/hutter/run/delta/new

 CP2K| version string:                    CP2K version 9.0 (Development Version)
 CP2K| source code revision number:                                  git:4b756b0
 CP2K| cp2kflags: omp libint fftw3 libxc elpa parallel mpi3 scalapack xsmm spgli
 CP2K|            b sirius libvori libbqb
 CP2K| is freely available from                            https://www.cp2k.org/
 CP2K| Program compiled at                         Wed May  5 15:51:41 CEST 2021
 CP2K| Program compiled on                                               tcopt10
 CP2K| Program compiled for                                                local
 CP2K| Data directory path                 /data/hutter/GITHUB/CURRENT/cp2k/data
 CP2K| Input file name                                               opt-all.inp

 GLOBAL| Method name                                              OPTIMIZE_BASIS
 GLOBAL| Project name                                                     molopt
 GLOBAL| Preferred FFT library                                             FFTW3
 GLOBAL| Preferred diagonalization lib.                                       SL
 GLOBAL| Run type                                                   ENERGY_FORCE
 GLOBAL| All-to-all communication in single precision                          F
 GLOBAL| FFTs using library dependent lengths                                  F
 GLOBAL| Grid backend                                                       AUTO
 GLOBAL| Global print level                                               MEDIUM
 GLOBAL| MPI I/O enabled                                                       T
 GLOBAL| Total number of message passing processes                            48
 GLOBAL| Number of threads for this process                                    1
 GLOBAL| This output is from process                                           0
 GLOBAL| CPU model name                          AMD EPYC 7401 24-Core Processor
 GLOBAL| CPUID                                                              1002

 MEMORY| system memory details [Kb]
 MEMORY|                        rank 0           min           max       average
 MEMORY| MemTotal            263969868     263969868     263969868     263969868
 MEMORY| MemFree             216425544     216425544     216425544     216425544
 MEMORY| Buffers                    36            36            36            36
 MEMORY| Cached               37957956      37957956      37957956      37957956
 MEMORY| Slab                  3030540       3030540       3030540       3030540
 MEMORY| SReclaimable          1720228       1720228       1720228       1720228
 MEMORY| MemLikelyFree       256103764     256103764     256103764     256103764


 *** Fundamental physical constants (SI units) ***

 *** Literature: B. J. Mohr and B. N. Taylor,
 ***             CODATA recommended values of the fundamental physical
 ***             constants: 2006, Web Version 5.1
 ***             http://physics.nist.gov/constants

 Speed of light in vacuum [m/s]                             2.99792458000000E+08
 Magnetic constant or permeability of vacuum [N/A**2]       1.25663706143592E-06
 Electric constant or permittivity of vacuum [F/m]          8.85418781762039E-12
 Planck constant (h) [J*s]                                  6.62606896000000E-34
 Planck constant (h-bar) [J*s]                              1.05457162825177E-34
 Elementary charge [C]                                      1.60217648700000E-19
 Electron mass [kg]                                         9.10938215000000E-31
 Electron g factor [ ]                                     -2.00231930436220E+00
 Proton mass [kg]                                           1.67262163700000E-27
 Fine-structure constant                                    7.29735253760000E-03
 Rydberg constant [1/m]                                     1.09737315685270E+07
 Avogadro constant [1/mol]                                  6.02214179000000E+23
 Boltzmann constant [J/K]                                   1.38065040000000E-23
 Atomic mass unit [kg]                                      1.66053878200000E-27
 Bohr radius [m]                                            5.29177208590000E-11

 *** Conversion factors ***

 [u] -> [a.u.]                                              1.82288848426455E+03
 [Angstrom] -> [Bohr] = [a.u.]                              1.88972613288564E+00
 [a.u.] = [Bohr] -> [Angstrom]                              5.29177208590000E-01
 [a.u.] -> [s]                                              2.41888432650478E-17
 [a.u.] -> [fs]                                             2.41888432650478E-02
 [a.u.] -> [J]                                              4.35974393937059E-18
 [a.u.] -> [N]                                              8.23872205491840E-08
 [a.u.] -> [K]                                              3.15774647902944E+05
 [a.u.] -> [kJ/mol]                                         2.62549961709828E+03
 [a.u.] -> [kcal/mol]                                       6.27509468713739E+02
 [a.u.] -> [Pa]                                             2.94210107994716E+13
 [a.u.] -> [bar]                                            2.94210107994716E+08
 [a.u.] -> [atm]                                            2.90362800883016E+08
 [a.u.] -> [eV]                                             2.72113838565563E+01
 [a.u.] -> [Hz]                                             6.57968392072181E+15
 [a.u.] -> [1/cm] (wave numbers)                            2.19474631370540E+05
 [a.u./Bohr**2] -> [1/cm]                                   5.14048714338585E+03
 
 DBCSR| CPU Multiplication driver                                           XSMM
 DBCSR| Multrec recursion limit                                              512
 DBCSR| Multiplication stack size                                           1000
 DBCSR| Maximum elements for images                                    UNLIMITED
 DBCSR| Multiplicative factor virtual images                                   1
 DBCSR| Use multiplication densification                                       T
 DBCSR| Multiplication size stacks                                             3
 DBCSR| Use memory pool for CPU allocation                                     F
 DBCSR| Number of 3D layers                                               SINGLE
 DBCSR| Use MPI memory allocation                                              F
 DBCSR| Use RMA algorithm                                                      F
 DBCSR| Use Communication thread                                               T
 DBCSR| Communication thread load                                             87
 DBCSR| MPI: My node id                                                        0
 DBCSR| MPI: Number of nodes                                                  48
 DBCSR| OMP: Current number of threads                                         1
 DBCSR| OMP: Max number of threads                                             1
 DBCSR| Split modifier for TAS multiplication algorithm                  1.0E+00

 BASOPT| Total number of calculations    132

 BASOPT| Content of basis combination      1
 BASOPT|     Element:    H    Basis set:    TZV2P-MOLOPT-PBE-GTH-Q1
 BASOPT|     Element:    B    Basis set:    TZV2P-MOLOPT-PBE-GTH-Q3
 BASOPT|     Element:    C    Basis set:    TZV2P-MOLOPT-PBE-GTH-Q4
 BASOPT|     Element:    N    Basis set:    TZV2P-MOLOPT-PBE-GTH-Q5
 BASOPT|     Element:    O    Basis set:    TZV2P-MOLOPT-PBE-GTH-Q6
 BASOPT|     Element:    F    Basis set:    TZV2P-MOLOPT-PBE-GTH-Q7

 BASOPT| Content of basis combination      2
 BASOPT|     Element:    H    Basis set:    TZVP-MOLOPT-PBE-GTH-q1
 BASOPT|     Element:    B    Basis set:    TZVP-MOLOPT-PBE-GTH-q3
 BASOPT|     Element:    C    Basis set:    TZVP-MOLOPT-PBE-GTH-q4
 BASOPT|     Element:    N    Basis set:    TZVP-MOLOPT-PBE-GTH-q5
 BASOPT|     Element:    O    Basis set:    TZVP-MOLOPT-PBE-GTH-q6
 BASOPT|     Element:    F    Basis set:    TZVP-MOLOPT-PBE-GTH-q7

 BASOPT| Content of basis combination      3
 BASOPT|     Element:    H    Basis set:    DZVP-MOLOPT-PBE-GTH-q1
 BASOPT|     Element:    B    Basis set:    DZVP-MOLOPT-PBE-GTH-q3
 BASOPT|     Element:    C    Basis set:    DZVP-MOLOPT-PBE-GTH-q4
 BASOPT|     Element:    N    Basis set:    DZVP-MOLOPT-PBE-GTH-q5
 BASOPT|     Element:    O    Basis set:    DZVP-MOLOPT-PBE-GTH-q6
 BASOPT|     Element:    F    Basis set:    DZVP-MOLOPT-PBE-GTH-q7

 BASOPT| Information at iteration number:       0
 BASOPT| Training set | Combination | Rho difference | Condition num. | Time
 BASOPT| -----------------------------------------------------------------------
 BASOPT|        1     |       1     | 0.49974405E-03 | 0.18187907E+07 |    0.278
 BASOPT|        1     |       2     | 0.91062667E-03 | 0.23865965E+04 |    0.132
 BASOPT|        1     |       3     | 0.10756993E-02 | 0.17364167E+04 |    0.116
 BASOPT|        2     |       1     | 0.10140036E-02 | 0.12794948E+06 |    0.202
 BASOPT|        2     |       2     | 0.21214824E-02 | 0.61070114E+04 |    0.107
 BASOPT|        2     |       3     | 0.30033697E-02 | 0.16410781E+04 |    0.092
 BASOPT|        3     |       1     | 0.13047178E-02 | 0.66732938E+06 |    1.282
 BASOPT|        3     |       2     | 0.27889258E-02 | 0.46349164E+04 |    0.645
 BASOPT|        3     |       3     | 0.35161647E-02 | 0.28418029E+04 |    0.536
 BASOPT|        4     |       1     | 0.72919973E-03 | 0.54968145E+06 |    0.463
 BASOPT|        4     |       2     | 0.13325075E-02 | 0.62554060E+04 |    0.222
 BASOPT|        4     |       3     | 0.20154142E-02 | 0.11493469E+04 |    0.191
 BASOPT|        5     |       1     | 0.75944973E-03 | 0.27166802E+04 |    0.135
 BASOPT|        5     |       2     | 0.16419440E-02 | 0.61751484E+03 |    0.071
 BASOPT|        5     |       3     | 0.21129095E-02 | 0.34175192E+03 |    0.059
 BASOPT|        6     |       1     | 0.77463454E-03 | 0.96264913E+05 |    0.200
 BASOPT|        6     |       2     | 0.14421053E-02 | 0.39798641E+04 |    0.100
 BASOPT|        6     |       3     | 0.19697715E-02 | 0.91771575E+03 |    0.086
 BASOPT|        7     |       1     | 0.80201278E-03 | 0.74540731E+06 |    0.271
 BASOPT|        7     |       2     | 0.20223406E-02 | 0.15161851E+04 |    0.132
 BASOPT|        7     |       3     | 0.23325494E-02 | 0.10828491E+04 |    0.115
 BASOPT|        8     |       1     | 0.29109237E-03 | 0.42777121E+04 |    0.055
 BASOPT|        8     |       2     | 0.54399233E-03 | 0.39046700E+03 |    0.025
 BASOPT|        8     |       3     | 0.62163996E-03 | 0.38939345E+03 |    0.024
 BASOPT|        9     |       1     | 0.67059728E-03 | 0.83004559E+06 |    0.078
 BASOPT|        9     |       2     | 0.11096808E-02 | 0.17215405E+05 |    0.040
 BASOPT|        9     |       3     | 0.15147892E-02 | 0.48240735E+03 |    0.033
 BASOPT|       10     |       1     | 0.72252601E-03 | 0.19603243E+07 |    0.151
 BASOPT|       10     |       2     | 0.12841074E-02 | 0.40452690E+04 |    0.079
 BASOPT|       10     |       3     | 0.13861734E-02 | 0.12837823E+04 |    0.068
 BASOPT|       11     |       1     | 0.57179953E-03 | 0.30976911E+07 |    0.266
 BASOPT|       11     |       2     | 0.11669754E-02 | 0.58175990E+04 |    0.127
 BASOPT|       11     |       3     | 0.13585374E-02 | 0.69169803E+03 |    0.111
 BASOPT|       12     |       1     | 0.16308961E-02 | 0.36677897E+07 |    0.697
 BASOPT|       12     |       2     | 0.32129508E-02 | 0.16753163E+05 |    0.354
 BASOPT|       12     |       3     | 0.40172663E-02 | 0.26038151E+04 |    0.302
 BASOPT|       13     |       1     | 0.13780473E-02 | 0.12249832E+07 |    0.430
 BASOPT|       13     |       2     | 0.25818666E-02 | 0.92648872E+04 |    0.215
 BASOPT|       13     |       3     | 0.31335687E-02 | 0.11463775E+04 |    0.185
 BASOPT|       14     |       1     | 0.15458929E-02 | 0.37243950E+08 |    0.859
 BASOPT|       14     |       2     | 0.29884625E-02 | 0.35731481E+05 |    0.453
 BASOPT|       14     |       3     | 0.36249314E-02 | 0.30725946E+04 |    0.388
 BASOPT|       15     |       1     | 0.17846493E-02 | 0.26519910E+09 |    1.658
 BASOPT|       15     |       2     | 0.36403507E-02 | 0.98906139E+05 |    0.847
 BASOPT|       15     |       3     | 0.41664786E-02 | 0.40213258E+04 |    0.707
 BASOPT|       16     |       1     | 0.14158025E-02 | 0.26692986E+09 |    1.044
 BASOPT|       16     |       2     | 0.28379418E-02 | 0.92783035E+05 |    0.590
 BASOPT|       16     |       3     | 0.32149253E-02 | 0.36990514E+04 |    0.516
 BASOPT|       17     |       1     | 0.13127778E-02 | 0.32854855E+04 |    0.202
 BASOPT|       17     |       2     | 0.27624922E-02 | 0.98151500E+03 |    0.117
 BASOPT|       17     |       3     | 0.30664946E-02 | 0.46901046E+03 |    0.104
 BASOPT|       18     |       1     | 0.86172482E-03 | 0.20360922E+05 |    0.132
 BASOPT|       18     |       2     | 0.17407738E-02 | 0.14709532E+04 |    0.069
 BASOPT|       18     |       3     | 0.19744797E-02 | 0.55195348E+03 |    0.064
 BASOPT|       19     |       1     | 0.95599058E-03 | 0.26909160E+05 |    0.132
 BASOPT|       19     |       2     | 0.21211347E-02 | 0.18058244E+04 |    0.071
 BASOPT|       19     |       3     | 0.24244926E-02 | 0.64826185E+03 |    0.060
 BASOPT|       20     |       1     | 0.13112831E-02 | 0.13166428E+07 |    0.196
 BASOPT|       20     |       2     | 0.24871986E-02 | 0.13522927E+05 |    0.098
 BASOPT|       20     |       3     | 0.31374874E-02 | 0.83172048E+03 |    0.085
 BASOPT|       21     |       1     | 0.94393155E-03 | 0.15194423E+06 |    0.113
 BASOPT|       21     |       2     | 0.15316297E-02 | 0.15389349E+04 |    0.058
 BASOPT|       21     |       3     | 0.18110629E-02 | 0.63658974E+03 |    0.051
 BASOPT|       22     |       1     | 0.85648282E-03 | 0.13091386E+06 |    0.141
 BASOPT|       22     |       2     | 0.17234946E-02 | 0.26818488E+04 |    0.070
 BASOPT|       22     |       3     | 0.19027815E-02 | 0.56505455E+03 |    0.062
 BASOPT|       23     |       1     | 0.35711006E-03 | 0.33052734E+05 |    0.078
 BASOPT|       23     |       2     | 0.65937874E-03 | 0.21365842E+04 |    0.039
 BASOPT|       23     |       3     | 0.73670265E-03 | 0.37420549E+03 |    0.033
 BASOPT|       24     |       1     | 0.78467844E-03 | 0.19562788E+04 |    0.029
 BASOPT|       24     |       2     | 0.11904949E-02 | 0.64211392E+03 |    0.014
 BASOPT|       24     |       3     | 0.30803522E-02 | 0.18737217E+03 |    0.012
 BASOPT|       25     |       1     | 0.55233277E-03 | 0.17679046E+04 |    0.021
 BASOPT|       25     |       2     | 0.86727496E-03 | 0.18594054E+03 |    0.014
 BASOPT|       25     |       3     | 0.91685111E-03 | 0.17735915E+03 |    0.014
 BASOPT|       26     |       1     | 0.14246548E-02 | 0.18035827E+06 |    0.232
 BASOPT|       26     |       2     | 0.26502966E-02 | 0.18346952E+04 |    0.120
 BASOPT|       26     |       3     | 0.30878324E-02 | 0.96351919E+03 |    0.101
 BASOPT|       27     |       1     | 0.82837800E-03 | 0.10359918E+05 |    0.072
 BASOPT|       27     |       2     | 0.14539754E-02 | 0.10226379E+04 |    0.042
 BASOPT|       27     |       3     | 0.17501926E-02 | 0.46840403E+03 |    0.033
 BASOPT|       28     |       1     | 0.10142879E-02 | 0.58351973E+05 |    0.063
 BASOPT|       28     |       2     | 0.18399956E-02 | 0.69480286E+03 |    0.035
 BASOPT|       28     |       3     | 0.20795123E-02 | 0.48611857E+03 |    0.030
 BASOPT|       29     |       1     | 0.92171503E-03 | 0.77026030E+05 |    0.028
 BASOPT|       29     |       2     | 0.15281913E-02 | 0.56591635E+03 |    0.015
 BASOPT|       29     |       3     | 0.16155606E-02 | 0.40882394E+03 |    0.013
 BASOPT|       30     |       1     | 0.43299606E-03 | 0.59186233E+05 |    0.008
 BASOPT|       30     |       2     | 0.63225380E-03 | 0.27055541E+03 |    0.005
 BASOPT|       30     |       3     | 0.63865007E-03 | 0.24342547E+03 |    0.004
 BASOPT|       31     |       1     | 0.69264346E-03 | 0.12930273E+05 |    0.053
 BASOPT|       31     |       2     | 0.97460688E-03 | 0.20782797E+04 |    0.028
 BASOPT|       31     |       3     | 0.14549850E-02 | 0.86620357E+03 |    0.024
 BASOPT|       32     |       1     | 0.55310139E-03 | 0.22983381E+04 |    0.014
 BASOPT|       32     |       2     | 0.99098337E-03 | 0.27728533E+03 |    0.008
 BASOPT|       32     |       3     | 0.10623947E-02 | 0.20568463E+03 |    0.007
 BASOPT|       33     |       1     | 0.86430722E-03 | 0.84703020E+05 |    0.052
 BASOPT|       33     |       2     | 0.12585287E-02 | 0.12664795E+04 |    0.027
 BASOPT|       33     |       3     | 0.28636187E-02 | 0.45960777E+03 |    0.023
 BASOPT|       34     |       1     | 0.14083849E-02 | 0.14833432E+06 |    0.090
 BASOPT|       34     |       2     | 0.25072907E-02 | 0.21876425E+04 |    0.052
 BASOPT|       34     |       3     | 0.31036199E-02 | 0.13673939E+04 |    0.044
 BASOPT|       35     |       1     | 0.15160888E-02 | 0.12717359E+06 |    0.168
 BASOPT|       35     |       2     | 0.27842388E-02 | 0.41553149E+04 |    0.092
 BASOPT|       35     |       3     | 0.35463900E-02 | 0.23421439E+04 |    0.075
 BASOPT|       36     |       1     | 0.10960845E-02 | 0.39019014E+05 |    0.043
 BASOPT|       36     |       2     | 0.17792241E-02 | 0.12994055E+04 |    0.024
 BASOPT|       36     |       3     | 0.21944576E-02 | 0.80759703E+03 |    0.022
 BASOPT|       37     |       1     | 0.11503884E-02 | 0.30248644E+06 |    0.070
 BASOPT|       37     |       2     | 0.17509389E-02 | 0.22133713E+04 |    0.034
 BASOPT|       37     |       3     | 0.20520911E-02 | 0.11699123E+04 |    0.029
 BASOPT|       38     |       1     | 0.16392905E-02 | 0.45458133E+06 |    0.147
 BASOPT|       38     |       2     | 0.28031926E-02 | 0.19702271E+04 |    0.084
 BASOPT|       38     |       3     | 0.30066154E-02 | 0.10998755E+04 |    0.069
 BASOPT|       39     |       1     | 0.85264745E-03 | 0.25695850E+05 |    0.031
 BASOPT|       39     |       2     | 0.11922049E-02 | 0.19278487E+04 |    0.014
 BASOPT|       39     |       3     | 0.22314540E-02 | 0.98119450E+03 |    0.013
 BASOPT|       40     |       1     | 0.98699704E-03 | 0.16984424E+05 |    0.143
 BASOPT|       40     |       2     | 0.22553229E-02 | 0.20812025E+04 |    0.073
 BASOPT|       40     |       3     | 0.27448490E-02 | 0.94311513E+03 |    0.060
 BASOPT|       41     |       1     | 0.12516303E-02 | 0.64799897E+04 |    0.115
 BASOPT|       41     |       2     | 0.24557324E-02 | 0.25892569E+04 |    0.065
 BASOPT|       41     |       3     | 0.27034222E-02 | 0.12147628E+04 |    0.056
 BASOPT|       42     |       1     | 0.11813094E-02 | 0.20067209E+06 |    0.049
 BASOPT|       42     |       2     | 0.19099075E-02 | 0.10301940E+04 |    0.026
 BASOPT|       42     |       3     | 0.20431061E-02 | 0.70326581E+03 |    0.023
 BASOPT|       43     |       1     | 0.12391207E-02 | 0.34602683E+06 |    0.148
 BASOPT|       43     |       2     | 0.24604447E-02 | 0.11369372E+04 |    0.074
 BASOPT|       43     |       3     | 0.26998598E-02 | 0.78474447E+03 |    0.065
 BASOPT|       44     |       1     | 0.86456999E-03 | 0.37962022E+04 |    0.052
 BASOPT|       44     |       2     | 0.16172264E-02 | 0.42100343E+03 |    0.042
 BASOPT|       44     |       3     | 0.17544269E-02 | 0.34610165E+03 |    0.035
 BASOPT| -----------------------------------------------------------------------
 BASOPT| Total residuum value: -.11177650E+05

 BASOPT| Information at iteration number:     100
 BASOPT| Training set | Combination | Rho difference | Condition num. | Time
 BASOPT| -----------------------------------------------------------------------
 BASOPT|        1     |       1     | 0.49974407E-03 | 0.18187907E+07 |   28.647
 BASOPT|        1     |       2     | 0.91062667E-03 | 0.23865965E+04 |   13.699
 BASOPT|        1     |       3     | 0.10756993E-02 | 0.17364167E+04 |   11.892
 BASOPT|        2     |       1     | 0.10140036E-02 | 0.12794948E+06 |   21.353
 BASOPT|        2     |       2     | 0.21214824E-02 | 0.61070114E+04 |   11.364
 BASOPT|        2     |       3     | 0.30033697E-02 | 0.16410781E+04 |    9.340
 BASOPT|        3     |       1     | 0.13047179E-02 | 0.66732938E+06 |  130.250
 BASOPT|        3     |       2     | 0.27889258E-02 | 0.46349164E+04 |   65.419
 BASOPT|        3     |       3     | 0.35161647E-02 | 0.28418029E+04 |   54.817
 BASOPT|        4     |       1     | 0.72919990E-03 | 0.54968145E+06 |   47.440
 BASOPT|        4     |       2     | 0.13325075E-02 | 0.62554060E+04 |   22.254
 BASOPT|        4     |       3     | 0.20154142E-02 | 0.11493469E+04 |   19.348
 BASOPT|        5     |       1     | 0.75944973E-03 | 0.27166802E+04 |   12.859
 BASOPT|        5     |       2     | 0.16419440E-02 | 0.61751484E+03 |    6.918
 BASOPT|        5     |       3     | 0.21129095E-02 | 0.34175192E+03 |    5.720
 BASOPT|        6     |       1     | 0.77110368E-03 | 0.97056038E+05 |   20.761
 BASOPT|        6     |       2     | 0.14286024E-02 | 0.39890345E+04 |   10.186
 BASOPT|        6     |       3     | 0.19697715E-02 | 0.91771575E+03 |    8.825
 BASOPT|        7     |       1     | 0.80201275E-03 | 0.74540731E+06 |   27.723
 BASOPT|        7     |       2     | 0.20223406E-02 | 0.15161851E+04 |   14.459
 BASOPT|        7     |       3     | 0.23325494E-02 | 0.10828491E+04 |   12.464
 BASOPT|        8     |       1     | 0.29109237E-03 | 0.42777121E+04 |    5.530
 BASOPT|        8     |       2     | 0.54399233E-03 | 0.39046700E+03 |    2.648
 BASOPT|        8     |       3     | 0.62163996E-03 | 0.38939345E+03 |    2.538
 BASOPT|        9     |       1     | 0.67439836E-03 | 0.11243046E+07 |    8.189
 BASOPT|        9     |       2     | 0.10982536E-02 | 0.16326864E+05 |    4.316
 BASOPT|        9     |       3     | 0.15147892E-02 | 0.48240735E+03 |    3.564
 BASOPT|       10     |       1     | 0.72625663E-03 | 0.19842921E+07 |   15.925
 BASOPT|       10     |       2     | 0.12829887E-02 | 0.40119943E+04 |    7.845
 BASOPT|       10     |       3     | 0.13861734E-02 | 0.12837823E+04 |    7.027
 BASOPT|       11     |       1     | 0.57152112E-03 | 0.31548012E+07 |   27.468
 BASOPT|       11     |       2     | 0.11674572E-02 | 0.57810677E+04 |   12.917
 BASOPT|       11     |       3     | 0.13585374E-02 | 0.69169803E+03 |   11.470
 BASOPT|       12     |       1     | 0.16261288E-02 | 0.24262547E+07 |   70.059
 BASOPT|       12     |       2     | 0.32092757E-02 | 0.16738560E+05 |   35.884
 BASOPT|       12     |       3     | 0.40172663E-02 | 0.26038151E+04 |   30.514
 BASOPT|       13     |       1     | 0.13780856E-02 | 0.12235595E+07 |   43.274
 BASOPT|       13     |       2     | 0.25657609E-02 | 0.89545033E+04 |   21.178
 BASOPT|       13     |       3     | 0.31335687E-02 | 0.11463775E+04 |   18.141
 BASOPT|       14     |       1     | 0.15609767E-02 | 0.36138409E+07 |   89.394
 BASOPT|       14     |       2     | 0.29807356E-02 | 0.33341092E+05 |   49.744
 BASOPT|       14     |       3     | 0.36249314E-02 | 0.30725946E+04 |   43.510
 BASOPT|       15     |       1     | 0.18121375E-02 | 0.52281831E+07 |  159.082
 BASOPT|       15     |       2     | 0.36247371E-02 | 0.83628254E+05 |   84.599
 BASOPT|       15     |       3     | 0.41664786E-02 | 0.40213258E+04 |   70.955
 BASOPT|       16     |       1     | 0.14561942E-02 | 0.49360469E+07 |  105.269
 BASOPT|       16     |       2     | 0.28238303E-02 | 0.78189386E+05 |   60.901
 BASOPT|       16     |       3     | 0.32149252E-02 | 0.36990514E+04 |   51.856
 BASOPT|       17     |       1     | 0.13111124E-02 | 0.32854855E+04 |   20.594
 BASOPT|       17     |       2     | 0.27587200E-02 | 0.98151500E+03 |   11.380
 BASOPT|       17     |       3     | 0.30664946E-02 | 0.46901046E+03 |    9.554
 BASOPT|       18     |       1     | 0.86031335E-03 | 0.21120299E+05 |   13.545
 BASOPT|       18     |       2     | 0.17411467E-02 | 0.14775716E+04 |    7.125
 BASOPT|       18     |       3     | 0.19744797E-02 | 0.55195348E+03 |    6.069
 BASOPT|       19     |       1     | 0.95385166E-03 | 0.26732206E+05 |   14.034
 BASOPT|       19     |       2     | 0.21219063E-02 | 0.18172476E+04 |    7.329
 BASOPT|       19     |       3     | 0.24244926E-02 | 0.64826185E+03 |    6.281
 BASOPT|       20     |       1     | 0.13042407E-02 | 0.14396977E+07 |   20.427
 BASOPT|       20     |       2     | 0.24778872E-02 | 0.13009300E+05 |   10.324
 BASOPT|       20     |       3     | 0.31374874E-02 | 0.83172048E+03 |    8.870
 BASOPT|       21     |       1     | 0.94438064E-03 | 0.14951316E+06 |   11.181
 BASOPT|       21     |       2     | 0.15322422E-02 | 0.15484285E+04 |    5.575
 BASOPT|       21     |       3     | 0.18110629E-02 | 0.63658974E+03 |    4.926
 BASOPT|       22     |       1     | 0.85331820E-03 | 0.12945379E+06 |   15.072
 BASOPT|       22     |       2     | 0.17240256E-02 | 0.26891140E+04 |    7.413
 BASOPT|       22     |       3     | 0.19027815E-02 | 0.56505455E+03 |    6.449
 BASOPT|       23     |       1     | 0.36381206E-03 | 0.33052734E+05 |    8.348
 BASOPT|       23     |       2     | 0.66007116E-03 | 0.21365842E+04 |    4.254
 BASOPT|       23     |       3     | 0.73670265E-03 | 0.37420549E+03 |    3.468
 BASOPT|       24     |       1     | 0.79375927E-03 | 0.19577931E+04 |    2.952
 BASOPT|       24     |       2     | 0.11931357E-02 | 0.64209188E+03 |    1.557
 BASOPT|       24     |       3     | 0.30803522E-02 | 0.18737217E+03 |    1.386
 BASOPT|       25     |       1     | 0.55233277E-03 | 0.17679046E+04 |    1.629
 BASOPT|       25     |       2     | 0.86727496E-03 | 0.18594054E+03 |    1.039
 BASOPT|       25     |       3     | 0.91685111E-03 | 0.17735915E+03 |    0.907
 BASOPT|       26     |       1     | 0.14223619E-02 | 0.18023775E+06 |   23.962
 BASOPT|       26     |       2     | 0.26452809E-02 | 0.18458783E+04 |   12.357
 BASOPT|       26     |       3     | 0.30878324E-02 | 0.96351919E+03 |   10.144
 BASOPT|       27     |       1     | 0.82856879E-03 | 0.10430821E+05 |    7.328
 BASOPT|       27     |       2     | 0.14541788E-02 | 0.10314295E+04 |    3.933
 BASOPT|       27     |       3     | 0.17501926E-02 | 0.46840403E+03 |    3.205
 BASOPT|       28     |       1     | 0.10142879E-02 | 0.58351973E+05 |    6.470
 BASOPT|       28     |       2     | 0.18399956E-02 | 0.69480286E+03 |    3.549
 BASOPT|       28     |       3     | 0.20795123E-02 | 0.48611857E+03 |    2.853
 BASOPT|       29     |       1     | 0.92171504E-03 | 0.77026030E+05 |    2.735
 BASOPT|       29     |       2     | 0.15281913E-02 | 0.56591635E+03 |    1.540
 BASOPT|       29     |       3     | 0.16155606E-02 | 0.40882394E+03 |    1.307
 BASOPT|       30     |       1     | 0.43299606E-03 | 0.59186233E+05 |    0.878
 BASOPT|       30     |       2     | 0.63225380E-03 | 0.27055541E+03 |    0.459
 BASOPT|       30     |       3     | 0.63865007E-03 | 0.24342547E+03 |    0.446
 BASOPT|       31     |       1     | 0.69368624E-03 | 0.12922000E+05 |    5.326
 BASOPT|       31     |       2     | 0.97000346E-03 | 0.20788971E+04 |    2.725
 BASOPT|       31     |       3     | 0.14549850E-02 | 0.86620357E+03 |    2.468
 BASOPT|       32     |       1     | 0.55310139E-03 | 0.22983381E+04 |    1.319
 BASOPT|       32     |       2     | 0.99098337E-03 | 0.27728533E+03 |    0.764
 BASOPT|       32     |       3     | 0.10623947E-02 | 0.20568463E+03 |    0.742
 BASOPT|       33     |       1     | 0.86690156E-03 | 0.82274975E+05 |    5.169
 BASOPT|       33     |       2     | 0.12582755E-02 | 0.12680003E+04 |    2.691
 BASOPT|       33     |       3     | 0.28636187E-02 | 0.45960777E+03 |    2.413
 BASOPT|       34     |       1     | 0.14083849E-02 | 0.14833432E+06 |    9.210
 BASOPT|       34     |       2     | 0.25072907E-02 | 0.21876425E+04 |    5.158
 BASOPT|       34     |       3     | 0.31036199E-02 | 0.13673939E+04 |    4.315
 BASOPT|       35     |       1     | 0.15160888E-02 | 0.12717359E+06 |   17.001
 BASOPT|       35     |       2     | 0.27842388E-02 | 0.41553149E+04 |    9.241
 BASOPT|       35     |       3     | 0.35463900E-02 | 0.23421439E+04 |    7.530
 BASOPT|       36     |       1     | 0.10960845E-02 | 0.39019014E+05 |    4.175
 BASOPT|       36     |       2     | 0.17792241E-02 | 0.12994055E+04 |    2.251
 BASOPT|       36     |       3     | 0.21944576E-02 | 0.80759703E+03 |    1.987
 BASOPT|       37     |       1     | 0.11503884E-02 | 0.30248644E+06 |    7.268
 BASOPT|       37     |       2     | 0.17509389E-02 | 0.22133713E+04 |    3.435
 BASOPT|       37     |       3     | 0.20520911E-02 | 0.11699123E+04 |    2.848
 BASOPT|       38     |       1     | 0.16392905E-02 | 0.45458133E+06 |   15.099
 BASOPT|       38     |       2     | 0.28031926E-02 | 0.19702271E+04 |    7.649
 BASOPT|       38     |       3     | 0.30066154E-02 | 0.10998755E+04 |    6.591
 BASOPT|       39     |       1     | 0.85264745E-03 | 0.25695850E+05 |    2.853
 BASOPT|       39     |       2     | 0.11922049E-02 | 0.19278487E+04 |    1.213
 BASOPT|       39     |       3     | 0.22314540E-02 | 0.98119450E+03 |    1.001
 BASOPT|       40     |       1     | 0.98699704E-03 | 0.16984424E+05 |   14.140
 BASOPT|       40     |       2     | 0.22553229E-02 | 0.20812025E+04 |    6.873
 BASOPT|       40     |       3     | 0.27448490E-02 | 0.94311513E+03 |    6.004
 BASOPT|       41     |       1     | 0.12516303E-02 | 0.64799897E+04 |   11.273
 BASOPT|       41     |       2     | 0.24557324E-02 | 0.25892569E+04 |    6.338
 BASOPT|       41     |       3     | 0.27034222E-02 | 0.12147628E+04 |    5.279
 BASOPT|       42     |       1     | 0.11813094E-02 | 0.20067209E+06 |    5.038
 BASOPT|       42     |       2     | 0.19099075E-02 | 0.10301940E+04 |    2.356
 BASOPT|       42     |       3     | 0.20431061E-02 | 0.70326581E+03 |    2.311
 BASOPT|       43     |       1     | 0.12391207E-02 | 0.34602683E+06 |   13.993
 BASOPT|       43     |       2     | 0.24604447E-02 | 0.11369372E+04 |    7.063
 BASOPT|       43     |       3     | 0.26998598E-02 | 0.78474447E+03 |    6.660
 BASOPT|       44     |       1     | 0.86456999E-03 | 0.37962022E+04 |    5.339
 BASOPT|       44     |       2     | 0.16172264E-02 | 0.42100343E+03 |    3.221
 BASOPT|       44     |       3     | 0.17544269E-02 | 0.34610165E+03 |    2.727
 BASOPT| -----------------------------------------------------------------------
 BASOPT| Total residuum value: -.11177751E+05

 BASOPT| Information at iteration number:     200
 BASOPT| Training set | Combination | Rho difference | Condition num. | Time
 BASOPT| -----------------------------------------------------------------------
 BASOPT|        1     |       1     | 0.49974407E-03 | 0.18187907E+07 |   57.358
 BASOPT|        1     |       2     | 0.91062667E-03 | 0.23865965E+04 |   27.657
 BASOPT|        1     |       3     | 0.10756993E-02 | 0.17364167E+04 |   23.743
 BASOPT|        2     |       1     | 0.10104978E-02 | 0.12837335E+06 |   42.513
 BASOPT|        2     |       2     | 0.21145134E-02 | 0.61283951E+04 |   22.622
 BASOPT|        2     |       3     | 0.29999923E-02 | 0.16679679E+04 |   18.579
 BASOPT|        3     |       1     | 0.13047179E-02 | 0.66732938E+06 |  259.308
 BASOPT|        3     |       2     | 0.27889258E-02 | 0.46349164E+04 |  130.223
 BASOPT|        3     |       3     | 0.35161647E-02 | 0.28418029E+04 |  109.113
 BASOPT|        4     |       1     | 0.72919990E-03 | 0.54968145E+06 |   94.434
 BASOPT|        4     |       2     | 0.13325075E-02 | 0.62554060E+04 |   44.298
 BASOPT|        4     |       3     | 0.20154142E-02 | 0.11493469E+04 |   38.505
 BASOPT|        5     |       1     | 0.75944973E-03 | 0.27166802E+04 |   25.587
 BASOPT|        5     |       2     | 0.16419440E-02 | 0.61751484E+03 |   13.775
 BASOPT|        5     |       3     | 0.21129095E-02 | 0.34175192E+03 |   11.387
 BASOPT|        6     |       1     | 0.78247623E-03 | 0.96590018E+05 |   41.288
 BASOPT|        6     |       2     | 0.14676884E-02 | 0.40013808E+04 |   20.284
 BASOPT|        6     |       3     | 0.20032621E-02 | 0.92091071E+03 |   17.535
 BASOPT|        7     |       1     | 0.80201275E-03 | 0.74540731E+06 |   55.180
 BASOPT|        7     |       2     | 0.20223406E-02 | 0.15161851E+04 |   28.743
 BASOPT|        7     |       3     | 0.23325494E-02 | 0.10828491E+04 |   24.823
 BASOPT|        8     |       1     | 0.29109237E-03 | 0.42777121E+04 |   11.009
 BASOPT|        8     |       2     | 0.54399233E-03 | 0.39046700E+03 |    5.279
 BASOPT|        8     |       3     | 0.62163996E-03 | 0.38939345E+03 |    5.065
 BASOPT|        9     |       1     | 0.67059737E-03 | 0.83004559E+06 |   16.272
 BASOPT|        9     |       2     | 0.11096808E-02 | 0.17215405E+05 |    8.564
 BASOPT|        9     |       3     | 0.15147892E-02 | 0.48240735E+03 |    7.119
 BASOPT|       10     |       1     | 0.72252594E-03 | 0.19603243E+07 |   31.705
 BASOPT|       10     |       2     | 0.12841074E-02 | 0.40452690E+04 |   15.615
 BASOPT|       10     |       3     | 0.13861734E-02 | 0.12837823E+04 |   13.986
 BASOPT|       11     |       1     | 0.57179943E-03 | 0.30976911E+07 |   54.706
 BASOPT|       11     |       2     | 0.11669754E-02 | 0.58175990E+04 |   25.738
 BASOPT|       11     |       3     | 0.13585374E-02 | 0.69169803E+03 |   22.855
 BASOPT|       12     |       1     | 0.16308961E-02 | 0.36677897E+07 |  139.477
 BASOPT|       12     |       2     | 0.32129508E-02 | 0.16753163E+05 |   71.433
 BASOPT|       12     |       3     | 0.40172663E-02 | 0.26038151E+04 |   60.715
 BASOPT|       13     |       1     | 0.13780473E-02 | 0.12249832E+07 |   86.135
 BASOPT|       13     |       2     | 0.25818666E-02 | 0.92648872E+04 |   42.157
 BASOPT|       13     |       3     | 0.31335687E-02 | 0.11463775E+04 |   36.109
 BASOPT|       14     |       1     | 0.15458942E-02 | 0.37243950E+08 |  175.967
 BASOPT|       14     |       2     | 0.29884624E-02 | 0.35731481E+05 |   96.926
 BASOPT|       14     |       3     | 0.36249314E-02 | 0.30725946E+04 |   84.632
 BASOPT|       15     |       1     | 0.17865513E-02 | 0.26407502E+09 |  316.923
 BASOPT|       15     |       2     | 0.36437320E-02 | 0.98904477E+05 |  168.468
 BASOPT|       15     |       3     | 0.41685607E-02 | 0.40246262E+04 |  141.196
 BASOPT|       16     |       1     | 0.14157747E-02 | 0.26692986E+09 |  209.558
 BASOPT|       16     |       2     | 0.28379418E-02 | 0.92783035E+05 |  120.084
 BASOPT|       16     |       3     | 0.32149252E-02 | 0.36990514E+04 |  102.228
 BASOPT|       17     |       1     | 0.13127778E-02 | 0.32854855E+04 |   41.124
 BASOPT|       17     |       2     | 0.27624922E-02 | 0.98151500E+03 |   22.771
 BASOPT|       17     |       3     | 0.30664946E-02 | 0.46901046E+03 |   19.275
 BASOPT|       18     |       1     | 0.86172482E-03 | 0.20360922E+05 |   26.960
 BASOPT|       18     |       2     | 0.17407738E-02 | 0.14709532E+04 |   14.185
 BASOPT|       18     |       3     | 0.19744797E-02 | 0.55195348E+03 |   12.082
 BASOPT|       19     |       1     | 0.95409695E-03 | 0.26955435E+05 |   27.908
 BASOPT|       19     |       2     | 0.21310510E-02 | 0.18193253E+04 |   14.606
 BASOPT|       19     |       3     | 0.24268155E-02 | 0.65239116E+03 |   12.501
 BASOPT|       20     |       1     | 0.13112831E-02 | 0.13166428E+07 |   40.666
 BASOPT|       20     |       2     | 0.24871986E-02 | 0.13522927E+05 |   20.554
 BASOPT|       20     |       3     | 0.31374874E-02 | 0.83172048E+03 |   17.665
 BASOPT|       21     |       1     | 0.94393154E-03 | 0.15194423E+06 |   22.263
 BASOPT|       21     |       2     | 0.15316297E-02 | 0.15389349E+04 |   11.106
 BASOPT|       21     |       3     | 0.18110629E-02 | 0.63658974E+03 |    9.810
 BASOPT|       22     |       1     | 0.85717203E-03 | 0.13040365E+06 |   29.970
 BASOPT|       22     |       2     | 0.17253282E-02 | 0.26881864E+04 |   14.760
 BASOPT|       22     |       3     | 0.19029988E-02 | 0.57007993E+03 |   12.840
 BASOPT|       23     |       1     | 0.35711006E-03 | 0.33052734E+05 |   16.622
 BASOPT|       23     |       2     | 0.65937874E-03 | 0.21365842E+04 |    8.475
 BASOPT|       23     |       3     | 0.73670265E-03 | 0.37420549E+03 |    6.906
 BASOPT|       24     |       1     | 0.79283345E-03 | 0.19882731E+04 |    5.877
 BASOPT|       24     |       2     | 0.12168727E-02 | 0.65543173E+03 |    3.099
 BASOPT|       24     |       3     | 0.31067855E-02 | 0.19159693E+03 |    2.761
 BASOPT|       25     |       1     | 0.55233277E-03 | 0.17679046E+04 |    3.233
 BASOPT|       25     |       2     | 0.86727496E-03 | 0.18594054E+03 |    2.057
 BASOPT|       25     |       3     | 0.91685111E-03 | 0.17735915E+03 |    1.802
 BASOPT|       26     |       1     | 0.14281837E-02 | 0.17867391E+06 |   47.702
 BASOPT|       26     |       2     | 0.26671863E-02 | 0.18673940E+04 |   24.594
 BASOPT|       26     |       3     | 0.31066906E-02 | 0.96984656E+03 |   20.173
 BASOPT|       27     |       1     | 0.83217506E-03 | 0.10423311E+05 |   14.570
 BASOPT|       27     |       2     | 0.14720074E-02 | 0.10432314E+04 |    7.824
 BASOPT|       27     |       3     | 0.17689485E-02 | 0.47253588E+03 |    6.372
 BASOPT|       28     |       1     | 0.10175450E-02 | 0.57947258E+05 |   12.878
 BASOPT|       28     |       2     | 0.18376482E-02 | 0.71161175E+03 |    7.062
 BASOPT|       28     |       3     | 0.20726440E-02 | 0.49535904E+03 |    5.675
 BASOPT|       29     |       1     | 0.92111160E-03 | 0.76508756E+05 |    5.443
 BASOPT|       29     |       2     | 0.15277139E-02 | 0.57527905E+03 |    3.070
 BASOPT|       29     |       3     | 0.16148320E-02 | 0.41293574E+03 |    2.600
 BASOPT|       30     |       1     | 0.43299606E-03 | 0.59186233E+05 |    1.713
 BASOPT|       30     |       2     | 0.63225380E-03 | 0.27055541E+03 |    0.911
 BASOPT|       30     |       3     | 0.63865007E-03 | 0.24342547E+03 |    0.885
 BASOPT|       31     |       1     | 0.69264346E-03 | 0.12930273E+05 |   10.591
 BASOPT|       31     |       2     | 0.97460688E-03 | 0.20782797E+04 |    5.424
 BASOPT|       31     |       3     | 0.14549850E-02 | 0.86620357E+03 |    4.915
 BASOPT|       32     |       1     | 0.55310139E-03 | 0.22983381E+04 |    2.627
 BASOPT|       32     |       2     | 0.99098337E-03 | 0.27728533E+03 |    1.521
 BASOPT|       32     |       3     | 0.10623947E-02 | 0.20568463E+03 |    1.478
 BASOPT|       33     |       1     | 0.86430723E-03 | 0.84703020E+05 |   10.311
 BASOPT|       33     |       2     | 0.12585287E-02 | 0.12664795E+04 |    5.367
 BASOPT|       33     |       3     | 0.28636187E-02 | 0.45960777E+03 |    4.796
 BASOPT|       34     |       1     | 0.14195779E-02 | 0.14872886E+06 |   18.331
 BASOPT|       34     |       2     | 0.25406191E-02 | 0.22257203E+04 |   10.266
 BASOPT|       34     |       3     | 0.31386803E-02 | 0.13837486E+04 |    8.592
 BASOPT|       35     |       1     | 0.15293308E-02 | 0.12591760E+06 |   33.839
 BASOPT|       35     |       2     | 0.28185242E-02 | 0.42365241E+04 |   18.399
 BASOPT|       35     |       3     | 0.35866910E-02 | 0.23727160E+04 |   14.996
 BASOPT|       36     |       1     | 0.11074346E-02 | 0.39073043E+05 |    8.303
 BASOPT|       36     |       2     | 0.17995046E-02 | 0.13251269E+04 |    4.480
 BASOPT|       36     |       3     | 0.22156265E-02 | 0.81708147E+03 |    3.953
 BASOPT|       37     |       1     | 0.11503884E-02 | 0.30248644E+06 |   14.456
 BASOPT|       37     |       2     | 0.17509389E-02 | 0.22133713E+04 |    6.831
 BASOPT|       37     |       3     | 0.20520911E-02 | 0.11699123E+04 |    5.631
 BASOPT|       38     |       1     | 0.16392905E-02 | 0.45458133E+06 |   30.022
 BASOPT|       38     |       2     | 0.28031926E-02 | 0.19702271E+04 |   15.223
 BASOPT|       38     |       3     | 0.30066154E-02 | 0.10998755E+04 |   13.126
 BASOPT|       39     |       1     | 0.85264745E-03 | 0.25695850E+05 |    5.676
 BASOPT|       39     |       2     | 0.11922049E-02 | 0.19278487E+04 |    2.414
 BASOPT|       39     |       3     | 0.22314540E-02 | 0.98119450E+03 |    1.991
 BASOPT|       40     |       1     | 0.98699704E-03 | 0.16984424E+05 |   28.128
 BASOPT|       40     |       2     | 0.22553229E-02 | 0.20812025E+04 |   13.676
 BASOPT|       40     |       3     | 0.27448490E-02 | 0.94311513E+03 |   11.950
 BASOPT|       41     |       1     | 0.12516303E-02 | 0.64799897E+04 |   22.466
 BASOPT|       41     |       2     | 0.24557324E-02 | 0.25892569E+04 |   12.635
 BASOPT|       41     |       3     | 0.27034222E-02 | 0.12147628E+04 |   10.502
 BASOPT|       42     |       1     | 0.11813094E-02 | 0.20067209E+06 |   10.030
 BASOPT|       42     |       2     | 0.19099075E-02 | 0.10301940E+04 |    4.684
 BASOPT|       42     |       3     | 0.20431061E-02 | 0.70326581E+03 |    4.599
 BASOPT|       43     |       1     | 0.12391207E-02 | 0.34602683E+06 |   27.772
 BASOPT|       43     |       2     | 0.24604447E-02 | 0.11369372E+04 |   14.056
 BASOPT|       43     |       3     | 0.26998598E-02 | 0.78474447E+03 |   13.250
 BASOPT|       44     |       1     | 0.87161348E-03 | 0.37731369E+04 |   10.631
 BASOPT|       44     |       2     | 0.16199852E-02 | 0.42850319E+03 |    6.401
 BASOPT|       44     |       3     | 0.17559602E-02 | 0.35092171E+03 |    5.422
 BASOPT| -----------------------------------------------------------------------
 BASOPT| Total residuum value: -.11177605E+05

 BASOPT| Information at iteration number:     300
 BASOPT| Training set | Combination | Rho difference | Condition num. | Time
 BASOPT| -----------------------------------------------------------------------
 BASOPT|        1     |       1     | 0.51102589E-03 | 0.49348344E+06 |   85.974
 BASOPT|        1     |       2     | 0.89264907E-03 | 0.23956497E+04 |   41.562
 BASOPT|        1     |       3     | 0.10818255E-02 | 0.16978675E+04 |   35.586
 BASOPT|        2     |       1     | 0.10652267E-02 | 0.87624813E+05 |   63.291
 BASOPT|        2     |       2     | 0.21660698E-02 | 0.59764544E+04 |   33.646
 BASOPT|        2     |       3     | 0.33524962E-02 | 0.15527753E+04 |   27.765
 BASOPT|        3     |       1     | 0.13372272E-02 | 0.66370111E+06 |  388.093
 BASOPT|        3     |       2     | 0.28048084E-02 | 0.46865941E+04 |  195.099
 BASOPT|        3     |       3     | 0.37914620E-02 | 0.27172883E+04 |  163.500
 BASOPT|        4     |       1     | 0.77415402E-03 | 0.18539674E+06 |  141.117
 BASOPT|        4     |       2     | 0.13485897E-02 | 0.68497560E+04 |   66.305
 BASOPT|        4     |       3     | 0.20876333E-02 | 0.10395667E+04 |   57.650
 BASOPT|        5     |       1     | 0.78791742E-03 | 0.25644871E+04 |   38.249
 BASOPT|        5     |       2     | 0.16729514E-02 | 0.61915085E+03 |   20.622
 BASOPT|        5     |       3     | 0.24456897E-02 | 0.34175190E+03 |   17.080
 BASOPT|        6     |       1     | 0.77272276E-03 | 0.78478749E+05 |   61.708
 BASOPT|        6     |       2     | 0.14344413E-02 | 0.39973131E+04 |   30.332
 BASOPT|        6     |       3     | 0.19857378E-02 | 0.90954512E+03 |   26.222
 BASOPT|        7     |       1     | 0.81049666E-03 | 0.62861575E+06 |   82.452
 BASOPT|        7     |       2     | 0.20072303E-02 | 0.15188088E+04 |   42.925
 BASOPT|        7     |       3     | 0.23675002E-02 | 0.10785202E+04 |   37.092
 BASOPT|        8     |       1     | 0.29189687E-03 | 0.37237920E+04 |   16.404
 BASOPT|        8     |       2     | 0.53395574E-03 | 0.39046700E+03 |    7.864
 BASOPT|        8     |       3     | 0.66774266E-03 | 0.38939345E+03 |    7.515
 BASOPT|        9     |       1     | 0.67059737E-03 | 0.83004559E+06 |   24.343
 BASOPT|        9     |       2     | 0.11096808E-02 | 0.17215405E+05 |   12.821
 BASOPT|        9     |       3     | 0.15147892E-02 | 0.48240735E+03 |   10.667
 BASOPT|       10     |       1     | 0.72252594E-03 | 0.19603243E+07 |   47.338
 BASOPT|       10     |       2     | 0.12841074E-02 | 0.40452690E+04 |   23.159
 BASOPT|       10     |       3     | 0.13861734E-02 | 0.12837823E+04 |   20.808
 BASOPT|       11     |       1     | 0.57179943E-03 | 0.30976911E+07 |   81.762
 BASOPT|       11     |       2     | 0.11669754E-02 | 0.58175990E+04 |   38.520
 BASOPT|       11     |       3     | 0.13585374E-02 | 0.69169803E+03 |   34.208
 BASOPT|       12     |       1     | 0.16308961E-02 | 0.36677897E+07 |  208.701
 BASOPT|       12     |       2     | 0.32129508E-02 | 0.16753163E+05 |  106.979
 BASOPT|       12     |       3     | 0.40172663E-02 | 0.26038151E+04 |   90.952
 BASOPT|       13     |       1     | 0.13780473E-02 | 0.12249832E+07 |  128.343
 BASOPT|       13     |       2     | 0.25818666E-02 | 0.92648872E+04 |   63.024
 BASOPT|       13     |       3     | 0.31335687E-02 | 0.11463775E+04 |   53.909
 BASOPT|       14     |       1     | 0.15458942E-02 | 0.37243950E+08 |  260.542
 BASOPT|       14     |       2     | 0.29884624E-02 | 0.35731481E+05 |  142.395
 BASOPT|       14     |       3     | 0.36249314E-02 | 0.30725946E+04 |  124.237
 BASOPT|       15     |       1     | 0.17845991E-02 | 0.26519910E+09 |  470.602
 BASOPT|       15     |       2     | 0.36403507E-02 | 0.98906139E+05 |  250.844
 BASOPT|       15     |       3     | 0.41664786E-02 | 0.40213258E+04 |  210.289
 BASOPT|       16     |       1     | 0.14157747E-02 | 0.26692986E+09 |  302.521
 BASOPT|       16     |       2     | 0.28379418E-02 | 0.92783035E+05 |  172.427
 BASOPT|       16     |       3     | 0.32149252E-02 | 0.36990514E+04 |  146.063
 BASOPT|       17     |       1     | 0.13127778E-02 | 0.32854855E+04 |   61.541
 BASOPT|       17     |       2     | 0.27624922E-02 | 0.98151500E+03 |   34.085
 BASOPT|       17     |       3     | 0.30664946E-02 | 0.46901046E+03 |   28.982
 BASOPT|       18     |       1     | 0.86172482E-03 | 0.20360922E+05 |   40.299
 BASOPT|       18     |       2     | 0.17407738E-02 | 0.14709532E+04 |   21.026
 BASOPT|       18     |       3     | 0.19744797E-02 | 0.55195348E+03 |   17.967
 BASOPT|       19     |       1     | 0.95599058E-03 | 0.26909160E+05 |   41.742
 BASOPT|       19     |       2     | 0.21211347E-02 | 0.18058244E+04 |   21.745
 BASOPT|       19     |       3     | 0.24244926E-02 | 0.64826185E+03 |   18.677
 BASOPT|       20     |       1     | 0.13112831E-02 | 0.13166428E+07 |   60.703
 BASOPT|       20     |       2     | 0.24871986E-02 | 0.13522927E+05 |   30.716
 BASOPT|       20     |       3     | 0.31374874E-02 | 0.83172048E+03 |   26.459
 BASOPT|       21     |       1     | 0.94393154E-03 | 0.15194423E+06 |   33.308
 BASOPT|       21     |       2     | 0.15316297E-02 | 0.15389349E+04 |   16.601
 BASOPT|       21     |       3     | 0.18110629E-02 | 0.63658974E+03 |   14.716
 BASOPT|       22     |       1     | 0.85648282E-03 | 0.13091386E+06 |   44.784
 BASOPT|       22     |       2     | 0.17234946E-02 | 0.26818488E+04 |   22.009
 BASOPT|       22     |       3     | 0.19027815E-02 | 0.56505455E+03 |   19.185
 BASOPT|       23     |       1     | 0.35711006E-03 | 0.33052734E+05 |   24.866
 BASOPT|       23     |       2     | 0.65937874E-03 | 0.21365842E+04 |   12.687
 BASOPT|       23     |       3     | 0.73670265E-03 | 0.37420549E+03 |   10.297
 BASOPT|       24     |       1     | 0.78467844E-03 | 0.19562788E+04 |    8.782
 BASOPT|       24     |       2     | 0.11904949E-02 | 0.64211392E+03 |    4.608
 BASOPT|       24     |       3     | 0.30803522E-02 | 0.18737217E+03 |    4.110
 BASOPT|       25     |       1     | 0.55233277E-03 | 0.17679046E+04 |    4.837
 BASOPT|       25     |       2     | 0.86727496E-03 | 0.18594054E+03 |    3.073
 BASOPT|       25     |       3     | 0.91685111E-03 | 0.17735915E+03 |    2.706
 BASOPT|       26     |       1     | 0.14246548E-02 | 0.18035827E+06 |   71.049
 BASOPT|       26     |       2     | 0.26502966E-02 | 0.18346952E+04 |   36.680
 BASOPT|       26     |       3     | 0.30878324E-02 | 0.96351919E+03 |   30.172
 BASOPT|       27     |       1     | 0.82837800E-03 | 0.10359918E+05 |   21.807
 BASOPT|       27     |       2     | 0.14539754E-02 | 0.10226379E+04 |   11.713
 BASOPT|       27     |       3     | 0.17501926E-02 | 0.46840403E+03 |    9.499
 BASOPT|       28     |       1     | 0.10142879E-02 | 0.58351973E+05 |   19.296
 BASOPT|       28     |       2     | 0.18399956E-02 | 0.69480286E+03 |   10.580
 BASOPT|       28     |       3     | 0.20795123E-02 | 0.48611857E+03 |    8.485
 BASOPT|       29     |       1     | 0.92171504E-03 | 0.77026030E+05 |    8.142
 BASOPT|       29     |       2     | 0.15281913E-02 | 0.56591635E+03 |    4.583
 BASOPT|       29     |       3     | 0.16155606E-02 | 0.40882394E+03 |    3.885
 BASOPT|       30     |       1     | 0.43299606E-03 | 0.59186233E+05 |    2.534
 BASOPT|       30     |       2     | 0.63225380E-03 | 0.27055541E+03 |    1.360
 BASOPT|       30     |       3     | 0.63865007E-03 | 0.24342547E+03 |    1.319
 BASOPT|       31     |       1     | 0.69264346E-03 | 0.12930273E+05 |   15.824
 BASOPT|       31     |       2     | 0.97460688E-03 | 0.20782797E+04 |    8.120
 BASOPT|       31     |       3     | 0.14549850E-02 | 0.86620357E+03 |    7.342
 BASOPT|       32     |       1     | 0.55310139E-03 | 0.22983381E+04 |    3.929
 BASOPT|       32     |       2     | 0.99098337E-03 | 0.27728533E+03 |    2.274
 BASOPT|       32     |       3     | 0.10623947E-02 | 0.20568463E+03 |    2.213
 BASOPT|       33     |       1     | 0.86430723E-03 | 0.84703020E+05 |   15.445
 BASOPT|       33     |       2     | 0.12585287E-02 | 0.12664795E+04 |    8.028
 BASOPT|       33     |       3     | 0.28636187E-02 | 0.45960777E+03 |    7.176
 BASOPT|       34     |       1     | 0.14083849E-02 | 0.14833432E+06 |   27.426
 BASOPT|       34     |       2     | 0.25072907E-02 | 0.21876425E+04 |   15.284
 BASOPT|       34     |       3     | 0.31036199E-02 | 0.13673939E+04 |   12.734
 BASOPT|       35     |       1     | 0.15160888E-02 | 0.12717359E+06 |   50.602
 BASOPT|       35     |       2     | 0.27842388E-02 | 0.41553149E+04 |   27.450
 BASOPT|       35     |       3     | 0.35463900E-02 | 0.23421439E+04 |   22.437
 BASOPT|       36     |       1     | 0.10960845E-02 | 0.39019014E+05 |   12.419
 BASOPT|       36     |       2     | 0.17792241E-02 | 0.12994055E+04 |    6.711
 BASOPT|       36     |       3     | 0.21944576E-02 | 0.80759703E+03 |    5.926
 BASOPT|       37     |       1     | 0.11503884E-02 | 0.30248644E+06 |   21.603
 BASOPT|       37     |       2     | 0.17509389E-02 | 0.22133713E+04 |   10.221
 BASOPT|       37     |       3     | 0.20520911E-02 | 0.11699123E+04 |    8.379
 BASOPT|       38     |       1     | 0.16392905E-02 | 0.45458133E+06 |   44.790
 BASOPT|       38     |       2     | 0.28031926E-02 | 0.19702271E+04 |   22.610
 BASOPT|       38     |       3     | 0.30066154E-02 | 0.10998755E+04 |   19.527
 BASOPT|       39     |       1     | 0.85264745E-03 | 0.25695850E+05 |    8.497
 BASOPT|       39     |       2     | 0.11922049E-02 | 0.19278487E+04 |    3.612
 BASOPT|       39     |       3     | 0.22314540E-02 | 0.98119450E+03 |    2.982
 BASOPT|       40     |       1     | 0.98699704E-03 | 0.16984424E+05 |   42.035
 BASOPT|       40     |       2     | 0.22553229E-02 | 0.20812025E+04 |   20.468
 BASOPT|       40     |       3     | 0.27448490E-02 | 0.94311513E+03 |   17.830
 BASOPT|       41     |       1     | 0.12516303E-02 | 0.64799897E+04 |   33.640
 BASOPT|       41     |       2     | 0.24557324E-02 | 0.25892569E+04 |   18.832
 BASOPT|       41     |       3     | 0.27034222E-02 | 0.12147628E+04 |   15.737
 BASOPT|       42     |       1     | 0.11813094E-02 | 0.20067209E+06 |   15.027
 BASOPT|       42     |       2     | 0.19099075E-02 | 0.10301940E+04 |    7.012
 BASOPT|       42     |       3     | 0.20431061E-02 | 0.70326581E+03 |    6.866
 BASOPT|       43     |       1     | 0.12391207E-02 | 0.34602683E+06 |   41.465
 BASOPT|       43     |       2     | 0.24604447E-02 | 0.11369372E+04 |   20.944
 BASOPT|       43     |       3     | 0.26998598E-02 | 0.78474447E+03 |   19.701
 BASOPT|       44     |       1     | 0.86456999E-03 | 0.37962022E+04 |   15.893
 BASOPT|       44     |       2     | 0.16172264E-02 | 0.42100343E+03 |    9.580
 BASOPT|       44     |       3     | 0.17544269E-02 | 0.34610165E+03 |    8.130
 BASOPT| -----------------------------------------------------------------------
 BASOPT| Total residuum value: -.11177545E+05

 BASOPT| Information at iteration number:     400
 BASOPT| Training set | Combination | Rho difference | Condition num. | Time
 BASOPT| -----------------------------------------------------------------------
 BASOPT|        1     |       1     | 0.49974407E-03 | 0.18187907E+07 |  114.490
 BASOPT|        1     |       2     | 0.91062667E-03 | 0.23865965E+04 |   55.412
 BASOPT|        1     |       3     | 0.10756993E-02 | 0.17364167E+04 |   47.409
 BASOPT|        2     |       1     | 0.10140036E-02 | 0.12794948E+06 |   84.017
 BASOPT|        2     |       2     | 0.21214824E-02 | 0.61070114E+04 |   44.652
 BASOPT|        2     |       3     | 0.30033697E-02 | 0.16410781E+04 |   36.947
 BASOPT|        3     |       1     | 0.13100090E-02 | 0.62123504E+06 |  516.692
 BASOPT|        3     |       2     | 0.27977972E-02 | 0.46351747E+04 |  259.775
 BASOPT|        3     |       3     | 0.35161647E-02 | 0.28418029E+04 |  217.764
 BASOPT|        4     |       1     | 0.72919990E-03 | 0.54968145E+06 |  187.790
 BASOPT|        4     |       2     | 0.13325075E-02 | 0.62554060E+04 |   88.302
 BASOPT|        4     |       3     | 0.20154142E-02 | 0.11493469E+04 |   76.795
 BASOPT|        5     |       1     | 0.75944973E-03 | 0.27166802E+04 |   50.903
 BASOPT|        5     |       2     | 0.16419440E-02 | 0.61751484E+03 |   27.488
 BASOPT|        5     |       3     | 0.21129095E-02 | 0.34175192E+03 |   22.778
 BASOPT|        6     |       1     | 0.77463454E-03 | 0.96264913E+05 |   82.069
 BASOPT|        6     |       2     | 0.14421053E-02 | 0.39798641E+04 |   40.374
 BASOPT|        6     |       3     | 0.19697715E-02 | 0.91771575E+03 |   34.909
 BASOPT|        7     |       1     | 0.80435255E-03 | 0.69203892E+06 |  109.705
 BASOPT|        7     |       2     | 0.20277612E-02 | 0.15156809E+04 |   57.112
 BASOPT|        7     |       3     | 0.23325494E-02 | 0.10828491E+04 |   49.347
 BASOPT|        8     |       1     | 0.29109237E-03 | 0.42777121E+04 |   21.782
 BASOPT|        8     |       2     | 0.54399233E-03 | 0.39046700E+03 |   10.448
 BASOPT|        8     |       3     | 0.62163996E-03 | 0.38939345E+03 |    9.959
 BASOPT|        9     |       1     | 0.67059737E-03 | 0.83004559E+06 |   32.439
 BASOPT|        9     |       2     | 0.11096808E-02 | 0.17215405E+05 |   17.068
 BASOPT|        9     |       3     | 0.15147892E-02 | 0.48240735E+03 |   14.217
 BASOPT|       10     |       1     | 0.72252594E-03 | 0.19603243E+07 |   62.943
 BASOPT|       10     |       2     | 0.12841074E-02 | 0.40452690E+04 |   30.685
 BASOPT|       10     |       3     | 0.13861734E-02 | 0.12837823E+04 |   27.623
 BASOPT|       11     |       1     | 0.57179943E-03 | 0.30976911E+07 |  108.787
 BASOPT|       11     |       2     | 0.11669754E-02 | 0.58175990E+04 |   51.299
 BASOPT|       11     |       3     | 0.13585374E-02 | 0.69169803E+03 |   45.562
 BASOPT|       12     |       1     | 0.16436748E-02 | 0.34639565E+07 |  277.891
 BASOPT|       12     |       2     | 0.32225913E-02 | 0.16759623E+05 |  142.541
 BASOPT|       12     |       3     | 0.40172663E-02 | 0.26038151E+04 |  121.180
 BASOPT|       13     |       1     | 0.13780473E-02 | 0.12249832E+07 |  170.189
 BASOPT|       13     |       2     | 0.25818666E-02 | 0.92648872E+04 |   83.829
 BASOPT|       13     |       3     | 0.31335687E-02 | 0.11463775E+04 |   71.687
 BASOPT|       14     |       1     | 0.15524556E-02 | 0.37101351E+08 |  344.966
 BASOPT|       14     |       2     | 0.29929062E-02 | 0.35732968E+05 |  187.675
 BASOPT|       14     |       3     | 0.36249314E-02 | 0.30725946E+04 |  163.576
 BASOPT|       15     |       1     | 0.17845991E-02 | 0.26519910E+09 |  623.935
 BASOPT|       15     |       2     | 0.36403507E-02 | 0.98906139E+05 |  333.189
 BASOPT|       15     |       3     | 0.41664786E-02 | 0.40213258E+04 |  279.389
 BASOPT|       16     |       1     | 0.14157747E-02 | 0.26692986E+09 |  394.715
 BASOPT|       16     |       2     | 0.28379418E-02 | 0.92783035E+05 |  224.584
 BASOPT|       16     |       3     | 0.32149252E-02 | 0.36990514E+04 |  189.495
 BASOPT|       17     |       1     | 0.13127778E-02 | 0.32854855E+04 |   82.054
 BASOPT|       17     |       2     | 0.27624922E-02 | 0.98151500E+03 |   45.502
 BASOPT|       17     |       3     | 0.30664946E-02 | 0.46901046E+03 |   38.736
 BASOPT|       18     |       1     | 0.86172482E-03 | 0.20360922E+05 |   53.620
 BASOPT|       18     |       2     | 0.17407738E-02 | 0.14709532E+04 |   27.855
 BASOPT|       18     |       3     | 0.19744797E-02 | 0.55195348E+03 |   23.844
 BASOPT|       19     |       1     | 0.95599058E-03 | 0.26909160E+05 |   55.560
 BASOPT|       19     |       2     | 0.21211347E-02 | 0.18058244E+04 |   28.876
 BASOPT|       19     |       3     | 0.24244926E-02 | 0.64826185E+03 |   24.851
 BASOPT|       20     |       1     | 0.13168626E-02 | 0.13160909E+07 |   80.713
 BASOPT|       20     |       2     | 0.24922410E-02 | 0.13520463E+05 |   40.871
 BASOPT|       20     |       3     | 0.31374874E-02 | 0.83172048E+03 |   35.253
 BASOPT|       21     |       1     | 0.94877813E-03 | 0.14326945E+06 |   44.335
 BASOPT|       21     |       2     | 0.15345762E-02 | 0.15339137E+04 |   22.101
 BASOPT|       21     |       3     | 0.18110629E-02 | 0.63658974E+03 |   19.636
 BASOPT|       22     |       1     | 0.85648282E-03 | 0.13091386E+06 |   59.582
 BASOPT|       22     |       2     | 0.17234946E-02 | 0.26818488E+04 |   29.234
 BASOPT|       22     |       3     | 0.19027815E-02 | 0.56505455E+03 |   25.524
 BASOPT|       23     |       1     | 0.35711006E-03 | 0.33052734E+05 |   33.126
 BASOPT|       23     |       2     | 0.65937874E-03 | 0.21365842E+04 |   16.900
 BASOPT|       23     |       3     | 0.73670265E-03 | 0.37420549E+03 |   13.689
 BASOPT|       24     |       1     | 0.78467844E-03 | 0.19562788E+04 |   11.684
 BASOPT|       24     |       2     | 0.11904949E-02 | 0.64211392E+03 |    6.113
 BASOPT|       24     |       3     | 0.30803522E-02 | 0.18737217E+03 |    5.454
 BASOPT|       25     |       1     | 0.55233277E-03 | 0.17679046E+04 |    6.434
 BASOPT|       25     |       2     | 0.86727496E-03 | 0.18594054E+03 |    4.083
 BASOPT|       25     |       3     | 0.91685111E-03 | 0.17735915E+03 |    3.604
 BASOPT|       26     |       1     | 0.14246548E-02 | 0.18035827E+06 |   94.353
 BASOPT|       26     |       2     | 0.26502966E-02 | 0.18346952E+04 |   48.758
 BASOPT|       26     |       3     | 0.30878324E-02 | 0.96351919E+03 |   40.172
 BASOPT|       27     |       1     | 0.82837800E-03 | 0.10359918E+05 |   29.031
 BASOPT|       27     |       2     | 0.14539754E-02 | 0.10226379E+04 |   15.595
 BASOPT|       27     |       3     | 0.17501926E-02 | 0.46840403E+03 |   12.619
 BASOPT|       28     |       1     | 0.10142879E-02 | 0.58351973E+05 |   25.704
 BASOPT|       28     |       2     | 0.18399956E-02 | 0.69480286E+03 |   14.092
 BASOPT|       28     |       3     | 0.20795123E-02 | 0.48611857E+03 |   11.295
 BASOPT|       29     |       1     | 0.92171504E-03 | 0.77026030E+05 |   10.836
 BASOPT|       29     |       2     | 0.15281913E-02 | 0.56591635E+03 |    6.087
 BASOPT|       29     |       3     | 0.16155606E-02 | 0.40882394E+03 |    5.169
 BASOPT|       30     |       1     | 0.43299606E-03 | 0.59186233E+05 |    3.354
 BASOPT|       30     |       2     | 0.63225380E-03 | 0.27055541E+03 |    1.809
 BASOPT|       30     |       3     | 0.63865007E-03 | 0.24342547E+03 |    1.753
 BASOPT|       31     |       1     | 0.69352539E-03 | 0.12731252E+05 |   21.060
 BASOPT|       31     |       2     | 0.97633281E-03 | 0.20530064E+04 |   10.817
 BASOPT|       31     |       3     | 0.14549850E-02 | 0.86620357E+03 |    9.765
 BASOPT|       32     |       1     | 0.55310139E-03 | 0.22983381E+04 |    5.234
 BASOPT|       32     |       2     | 0.99098337E-03 | 0.27728533E+03 |    3.027
 BASOPT|       32     |       3     | 0.10623947E-02 | 0.20568463E+03 |    2.945
 BASOPT|       33     |       1     | 0.87064283E-03 | 0.84220234E+05 |   20.567
 BASOPT|       33     |       2     | 0.12702639E-02 | 0.12665015E+04 |   10.682
 BASOPT|       33     |       3     | 0.28636187E-02 | 0.45960777E+03 |    9.552
 BASOPT|       34     |       1     | 0.14241157E-02 | 0.13993700E+06 |   36.508
 BASOPT|       34     |       2     | 0.25171727E-02 | 0.21867909E+04 |   20.292
 BASOPT|       34     |       3     | 0.31036199E-02 | 0.13673939E+04 |   16.863
 BASOPT|       35     |       1     | 0.15328213E-02 | 0.12642023E+06 |   67.342
 BASOPT|       35     |       2     | 0.28006316E-02 | 0.41482633E+04 |   36.496
 BASOPT|       35     |       3     | 0.35463900E-02 | 0.23421439E+04 |   29.876
 BASOPT|       36     |       1     | 0.10975261E-02 | 0.38215421E+05 |   16.527
 BASOPT|       36     |       2     | 0.17826386E-02 | 0.12969688E+04 |    8.940
 BASOPT|       36     |       3     | 0.21944576E-02 | 0.80759703E+03 |    7.896
 BASOPT|       37     |       1     | 0.11693234E-02 | 0.25366010E+06 |   28.737
 BASOPT|       37     |       2     | 0.17562164E-02 | 0.22022218E+04 |   13.606
 BASOPT|       37     |       3     | 0.20520911E-02 | 0.11699123E+04 |   11.118
 BASOPT|       38     |       1     | 0.16522517E-02 | 0.37900943E+06 |   59.521
 BASOPT|       38     |       2     | 0.28082936E-02 | 0.19667738E+04 |   29.981
 BASOPT|       38     |       3     | 0.30066154E-02 | 0.10998755E+04 |   25.912
 BASOPT|       39     |       1     | 0.84577230E-03 | 0.25576953E+05 |   11.316
 BASOPT|       39     |       2     | 0.12019384E-02 | 0.19338700E+04 |    4.807
 BASOPT|       39     |       3     | 0.22314540E-02 | 0.98119450E+03 |    3.971
 BASOPT|       40     |       1     | 0.98918085E-03 | 0.16711305E+05 |   55.921
 BASOPT|       40     |       2     | 0.22601271E-02 | 0.20446397E+04 |   27.254
 BASOPT|       40     |       3     | 0.27448490E-02 | 0.94311513E+03 |   23.706
 BASOPT|       41     |       1     | 0.12554431E-02 | 0.64138968E+04 |   44.776
 BASOPT|       41     |       2     | 0.24582893E-02 | 0.25892104E+04 |   25.007
 BASOPT|       41     |       3     | 0.27034222E-02 | 0.12147628E+04 |   20.956
 BASOPT|       42     |       1     | 0.11861028E-02 | 0.16586841E+06 |   20.017
 BASOPT|       42     |       2     | 0.19142570E-02 | 0.10309184E+04 |    9.349
 BASOPT|       42     |       3     | 0.20431061E-02 | 0.70326581E+03 |    9.139
 BASOPT|       43     |       1     | 0.12374184E-02 | 0.30966926E+06 |   55.123
 BASOPT|       43     |       2     | 0.24671069E-02 | 0.11373875E+04 |   27.809
 BASOPT|       43     |       3     | 0.26998598E-02 | 0.78474447E+03 |   26.135
 BASOPT|       44     |       1     | 0.86456999E-03 | 0.37962022E+04 |   21.149
 BASOPT|       44     |       2     | 0.16172264E-02 | 0.42100343E+03 |   12.759
 BASOPT|       44     |       3     | 0.17544269E-02 | 0.34610165E+03 |   10.832
 BASOPT| -----------------------------------------------------------------------
 BASOPT| Total residuum value: -.11177640E+05

 BASOPT| Information at iteration number:     500
 BASOPT| Training set | Combination | Rho difference | Condition num. | Time
 BASOPT| -----------------------------------------------------------------------
 BASOPT|        1     |       1     | 0.49974407E-03 | 0.18187907E+07 |  142.939
 BASOPT|        1     |       2     | 0.91062667E-03 | 0.23865965E+04 |   69.201
 BASOPT|        1     |       3     | 0.10756993E-02 | 0.17364167E+04 |   59.206
 BASOPT|        2     |       1     | 0.10140036E-02 | 0.12794948E+06 |  104.739
 BASOPT|        2     |       2     | 0.21214824E-02 | 0.61070114E+04 |   55.664
 BASOPT|        2     |       3     | 0.30033697E-02 | 0.16410781E+04 |   46.135
 BASOPT|        3     |       1     | 0.13047179E-02 | 0.66732938E+06 |  645.365
 BASOPT|        3     |       2     | 0.27889258E-02 | 0.46349164E+04 |  324.546
 BASOPT|        3     |       3     | 0.35161647E-02 | 0.28418029E+04 |  272.027
 BASOPT|        4     |       1     | 0.72919990E-03 | 0.54968145E+06 |  234.578
 BASOPT|        4     |       2     | 0.13325075E-02 | 0.62554060E+04 |  110.318
 BASOPT|        4     |       3     | 0.20154142E-02 | 0.11493469E+04 |   95.977
 BASOPT|        5     |       1     | 0.75970628E-03 | 0.27002585E+04 |   63.542
 BASOPT|        5     |       2     | 0.16432228E-02 | 0.60750892E+03 |   34.346
 BASOPT|        5     |       3     | 0.21099260E-02 | 0.34000498E+03 |   28.475
 BASOPT|        6     |       1     | 0.77463454E-03 | 0.96264913E+05 |  102.435
 BASOPT|        6     |       2     | 0.14421053E-02 | 0.39798641E+04 |   50.419
 BASOPT|        6     |       3     | 0.19697715E-02 | 0.91771575E+03 |   43.601
 BASOPT|        7     |       1     | 0.80201275E-03 | 0.74540731E+06 |  136.967
 BASOPT|        7     |       2     | 0.20223406E-02 | 0.15161851E+04 |   71.293
 BASOPT|        7     |       3     | 0.23325494E-02 | 0.10828491E+04 |   61.595
 BASOPT|        8     |       1     | 0.29109237E-03 | 0.42777121E+04 |   27.156
 BASOPT|        8     |       2     | 0.54399233E-03 | 0.39046700E+03 |   13.028
 BASOPT|        8     |       3     | 0.62163996E-03 | 0.38939345E+03 |   12.400
 BASOPT|        9     |       1     | 0.67059737E-03 | 0.83004559E+06 |   40.491
 BASOPT|        9     |       2     | 0.11096808E-02 | 0.17215405E+05 |   21.304
 BASOPT|        9     |       3     | 0.15147892E-02 | 0.48240735E+03 |   17.753
 BASOPT|       10     |       1     | 0.72252594E-03 | 0.19603243E+07 |   78.539
 BASOPT|       10     |       2     | 0.12841074E-02 | 0.40452690E+04 |   38.212
 BASOPT|       10     |       3     | 0.13861734E-02 | 0.12837823E+04 |   34.442
 BASOPT|       11     |       1     | 0.57179943E-03 | 0.30976911E+07 |  135.835
 BASOPT|       11     |       2     | 0.11669754E-02 | 0.58175990E+04 |   64.134
 BASOPT|       11     |       3     | 0.13585374E-02 | 0.69169803E+03 |   56.948
 BASOPT|       12     |       1     | 0.16308961E-02 | 0.36677897E+07 |  347.030
 BASOPT|       12     |       2     | 0.32129508E-02 | 0.16753163E+05 |  178.065
 BASOPT|       12     |       3     | 0.40172663E-02 | 0.26038151E+04 |  151.374
 BASOPT|       13     |       1     | 0.13780473E-02 | 0.12249832E+07 |  212.033
 BASOPT|       13     |       2     | 0.25818666E-02 | 0.92648872E+04 |  104.649
 BASOPT|       13     |       3     | 0.31335687E-02 | 0.11463775E+04 |   89.442
 BASOPT|       14     |       1     | 0.15458942E-02 | 0.37243950E+08 |  429.335
 BASOPT|       14     |       2     | 0.29884624E-02 | 0.35731481E+05 |  232.949
 BASOPT|       14     |       3     | 0.36249314E-02 | 0.30725946E+04 |  202.856
 BASOPT|       15     |       1     | 0.17845991E-02 | 0.26519910E+09 |  777.239
 BASOPT|       15     |       2     | 0.36403507E-02 | 0.98906139E+05 |  415.556
 BASOPT|       15     |       3     | 0.41664786E-02 | 0.40213258E+04 |  348.509
 BASOPT|       16     |       1     | 0.14157747E-02 | 0.26692986E+09 |  486.864
 BASOPT|       16     |       2     | 0.28379418E-02 | 0.92783035E+05 |  276.644
 BASOPT|       16     |       3     | 0.32149252E-02 | 0.36990514E+04 |  232.924
 BASOPT|       17     |       1     | 0.13104672E-02 | 0.32815961E+04 |  102.630
 BASOPT|       17     |       2     | 0.27395259E-02 | 0.98098259E+03 |   56.948
 BASOPT|       17     |       3     | 0.30487239E-02 | 0.46467150E+03 |   48.479
 BASOPT|       18     |       1     | 0.86221398E-03 | 0.20332598E+05 |   66.937
 BASOPT|       18     |       2     | 0.17336703E-02 | 0.14689669E+04 |   34.681
 BASOPT|       18     |       3     | 0.19721866E-02 | 0.54969347E+03 |   29.722
 BASOPT|       19     |       1     | 0.95599058E-03 | 0.26909160E+05 |   69.412
 BASOPT|       19     |       2     | 0.21211347E-02 | 0.18058244E+04 |   36.015
 BASOPT|       19     |       3     | 0.24244926E-02 | 0.64826185E+03 |   31.035
 BASOPT|       20     |       1     | 0.13112831E-02 | 0.13166428E+07 |  100.767
 BASOPT|       20     |       2     | 0.24871986E-02 | 0.13522927E+05 |   51.046
 BASOPT|       20     |       3     | 0.31374874E-02 | 0.83172048E+03 |   44.038
 BASOPT|       21     |       1     | 0.94393154E-03 | 0.15194423E+06 |   55.358
 BASOPT|       21     |       2     | 0.15316297E-02 | 0.15389349E+04 |   27.601
 BASOPT|       21     |       3     | 0.18110629E-02 | 0.63658974E+03 |   24.553
 BASOPT|       22     |       1     | 0.85648282E-03 | 0.13091386E+06 |   74.362
 BASOPT|       22     |       2     | 0.17234946E-02 | 0.26818488E+04 |   36.447
 BASOPT|       22     |       3     | 0.19027815E-02 | 0.56505455E+03 |   31.859
 BASOPT|       23     |       1     | 0.35711006E-03 | 0.33052734E+05 |   41.376
 BASOPT|       23     |       2     | 0.65937874E-03 | 0.21365842E+04 |   21.109
 BASOPT|       23     |       3     | 0.73670265E-03 | 0.37420549E+03 |   17.083
 BASOPT|       24     |       1     | 0.78467844E-03 | 0.19562788E+04 |   14.586
 BASOPT|       24     |       2     | 0.11904949E-02 | 0.64211392E+03 |    7.620
 BASOPT|       24     |       3     | 0.30803522E-02 | 0.18737217E+03 |    6.796
 BASOPT|       25     |       1     | 0.54557195E-03 | 0.17610540E+04 |    8.038
 BASOPT|       25     |       2     | 0.86582614E-03 | 0.18024098E+03 |    5.094
 BASOPT|       25     |       3     | 0.91547943E-03 | 0.17242135E+03 |    4.505
 BASOPT|       26     |       1     | 0.14246548E-02 | 0.18035827E+06 |  117.651
 BASOPT|       26     |       2     | 0.26502966E-02 | 0.18346952E+04 |   60.833
 BASOPT|       26     |       3     | 0.30878324E-02 | 0.96351919E+03 |   50.173
 BASOPT|       27     |       1     | 0.82837800E-03 | 0.10359918E+05 |   36.253
 BASOPT|       27     |       2     | 0.14539754E-02 | 0.10226379E+04 |   19.476
 BASOPT|       27     |       3     | 0.17501926E-02 | 0.46840403E+03 |   15.741
 BASOPT|       28     |       1     | 0.10142879E-02 | 0.58351973E+05 |   32.096
 BASOPT|       28     |       2     | 0.18399956E-02 | 0.69480286E+03 |   17.601
 BASOPT|       28     |       3     | 0.20795123E-02 | 0.48611857E+03 |   14.100
 BASOPT|       29     |       1     | 0.92171504E-03 | 0.77026030E+05 |   13.533
 BASOPT|       29     |       2     | 0.15281913E-02 | 0.56591635E+03 |    7.594
 BASOPT|       29     |       3     | 0.16155606E-02 | 0.40882394E+03 |    6.453
 BASOPT|       30     |       1     | 0.43299606E-03 | 0.59186233E+05 |    4.173
 BASOPT|       30     |       2     | 0.63225380E-03 | 0.27055541E+03 |    2.258
 BASOPT|       30     |       3     | 0.63865007E-03 | 0.24342547E+03 |    2.187
 BASOPT|       31     |       1     | 0.69264346E-03 | 0.12930273E+05 |   26.295
 BASOPT|       31     |       2     | 0.97460688E-03 | 0.20782797E+04 |   13.511
 BASOPT|       31     |       3     | 0.14549850E-02 | 0.86620357E+03 |   12.187
 BASOPT|       32     |       1     | 0.55258064E-03 | 0.22923586E+04 |    6.537
 BASOPT|       32     |       2     | 0.98885391E-03 | 0.27096547E+03 |    3.780
 BASOPT|       32     |       3     | 0.10597569E-02 | 0.20266489E+03 |    3.677
 BASOPT|       33     |       1     | 0.86430723E-03 | 0.84703020E+05 |   25.691
 BASOPT|       33     |       2     | 0.12585287E-02 | 0.12664795E+04 |   13.335
 BASOPT|       33     |       3     | 0.28636187E-02 | 0.45960777E+03 |   11.928
 BASOPT|       34     |       1     | 0.14083849E-02 | 0.14833432E+06 |   45.585
 BASOPT|       34     |       2     | 0.25072907E-02 | 0.21876425E+04 |   25.301
 BASOPT|       34     |       3     | 0.31036199E-02 | 0.13673939E+04 |   20.992
 BASOPT|       35     |       1     | 0.15160888E-02 | 0.12717359E+06 |   84.082
 BASOPT|       35     |       2     | 0.27842388E-02 | 0.41553149E+04 |   45.555
 BASOPT|       35     |       3     | 0.35463900E-02 | 0.23421439E+04 |   37.325
 BASOPT|       36     |       1     | 0.10960845E-02 | 0.39019014E+05 |   20.652
 BASOPT|       36     |       2     | 0.17792241E-02 | 0.12994055E+04 |   11.170
 BASOPT|       36     |       3     | 0.21944576E-02 | 0.80759703E+03 |    9.864
 BASOPT|       37     |       1     | 0.11503884E-02 | 0.30248644E+06 |   35.869
 BASOPT|       37     |       2     | 0.17509389E-02 | 0.22133713E+04 |   16.990
 BASOPT|       37     |       3     | 0.20520911E-02 | 0.11699123E+04 |   13.859
 BASOPT|       38     |       1     | 0.16392905E-02 | 0.45458133E+06 |   74.253
 BASOPT|       38     |       2     | 0.28031926E-02 | 0.19702271E+04 |   37.347
 BASOPT|       38     |       3     | 0.30066154E-02 | 0.10998755E+04 |   32.294
 BASOPT|       39     |       1     | 0.85264745E-03 | 0.25695850E+05 |   14.134
 BASOPT|       39     |       2     | 0.11922049E-02 | 0.19278487E+04 |    6.002
 BASOPT|       39     |       3     | 0.22314540E-02 | 0.98119450E+03 |    4.962
 BASOPT|       40     |       1     | 0.98699704E-03 | 0.16984424E+05 |   69.804
 BASOPT|       40     |       2     | 0.22553229E-02 | 0.20812025E+04 |   34.039
 BASOPT|       40     |       3     | 0.27448490E-02 | 0.94311513E+03 |   29.576
 BASOPT|       41     |       1     | 0.12496193E-02 | 0.64774488E+04 |   55.910
 BASOPT|       41     |       2     | 0.24617852E-02 | 0.25556496E+04 |   31.180
 BASOPT|       41     |       3     | 0.27105109E-02 | 0.12035507E+04 |   26.168
 BASOPT|       42     |       1     | 0.11813094E-02 | 0.20067209E+06 |   25.001
 BASOPT|       42     |       2     | 0.19099075E-02 | 0.10301940E+04 |   11.671
 BASOPT|       42     |       3     | 0.20431061E-02 | 0.70326581E+03 |   11.402
 BASOPT|       43     |       1     | 0.12404368E-02 | 0.34582964E+06 |   68.787
 BASOPT|       43     |       2     | 0.24619689E-02 | 0.11347848E+04 |   34.671
 BASOPT|       43     |       3     | 0.27009864E-02 | 0.77629582E+03 |   32.566
 BASOPT|       44     |       1     | 0.86168590E-03 | 0.37834456E+04 |   26.399
 BASOPT|       44     |       2     | 0.16222438E-02 | 0.41448504E+03 |   15.938
 BASOPT|       44     |       3     | 0.17620122E-02 | 0.34087241E+03 |   13.536
 BASOPT| -----------------------------------------------------------------------
 BASOPT| Total residuum value: -.11177662E+05

 BASOPT| Information at iteration number:     600
 BASOPT| Training set | Combination | Rho difference | Condition num. | Time
 BASOPT| -----------------------------------------------------------------------
 BASOPT|        1     |       1     | 0.56052297E-03 | 0.17346051E+06 |  171.522
 BASOPT|        1     |       2     | 0.90914916E-03 | 0.24196859E+04 |   83.114
 BASOPT|        1     |       3     | 0.10765984E-02 | 0.17367975E+04 |   71.034
 BASOPT|        2     |       1     | 0.10142436E-02 | 0.11809548E+06 |  125.443
 BASOPT|        2     |       2     | 0.21338503E-02 | 0.61309444E+04 |   66.667
 BASOPT|        2     |       3     | 0.29718881E-02 | 0.16969369E+04 |   55.320
 BASOPT|        3     |       1     | 0.13826870E-02 | 0.93141724E+05 |  773.968
 BASOPT|        3     |       2     | 0.27860484E-02 | 0.46574255E+04 |  389.229
 BASOPT|        3     |       3     | 0.35141860E-02 | 0.29472888E+04 |  326.225
 BASOPT|        4     |       1     | 0.77069973E-03 | 0.27898556E+06 |  281.328
 BASOPT|        4     |       2     | 0.13049542E-02 | 0.63633192E+04 |  132.374
 BASOPT|        4     |       3     | 0.19681086E-02 | 0.11833923E+04 |  115.167
 BASOPT|        5     |       1     | 0.76210469E-03 | 0.27167358E+04 |   76.171
 BASOPT|        5     |       2     | 0.16524244E-02 | 0.61755566E+03 |   41.207
 BASOPT|        5     |       3     | 0.21277349E-02 | 0.34063828E+03 |   34.173
 BASOPT|        6     |       1     | 0.82086870E-03 | 0.84916228E+05 |  122.764
 BASOPT|        6     |       2     | 0.14503136E-02 | 0.39727896E+04 |   60.460
 BASOPT|        6     |       3     | 0.19473297E-02 | 0.89581159E+03 |   52.285
 BASOPT|        7     |       1     | 0.94795180E-03 | 0.38101173E+05 |  164.254
 BASOPT|        7     |       2     | 0.20166779E-02 | 0.15263030E+04 |   85.492
 BASOPT|        7     |       3     | 0.23212947E-02 | 0.11081888E+04 |   73.873
 BASOPT|        8     |       1     | 0.30611419E-03 | 0.12810675E+04 |   32.526
 BASOPT|        8     |       2     | 0.54391416E-03 | 0.39370947E+03 |   15.605
 BASOPT|        8     |       3     | 0.62917172E-03 | 0.39219457E+03 |   14.837
 BASOPT|        9     |       1     | 0.71255586E-03 | 0.21576210E+06 |   48.575
 BASOPT|        9     |       2     | 0.11129498E-02 | 0.15882297E+05 |   25.555
 BASOPT|        9     |       3     | 0.14525793E-02 | 0.48143528E+03 |   21.295
 BASOPT|       10     |       1     | 0.76901217E-03 | 0.26121490E+06 |   94.121
 BASOPT|       10     |       2     | 0.12870412E-02 | 0.39819802E+04 |   45.737
 BASOPT|       10     |       3     | 0.13738072E-02 | 0.12226781E+04 |   41.257
 BASOPT|       11     |       1     | 0.67652384E-03 | 0.23884568E+06 |  162.843
 BASOPT|       11     |       2     | 0.11653184E-02 | 0.57551228E+04 |   76.924
 BASOPT|       11     |       3     | 0.13885604E-02 | 0.68413488E+03 |   68.299
 BASOPT|       12     |       1     | 0.17249831E-02 | 0.77490425E+06 |  416.113
 BASOPT|       12     |       2     | 0.32240739E-02 | 0.16019966E+05 |  213.601
 BASOPT|       12     |       3     | 0.40632153E-02 | 0.24384540E+04 |  181.584
 BASOPT|       13     |       1     | 0.14506905E-02 | 0.31072821E+06 |  253.863
 BASOPT|       13     |       2     | 0.25850702E-02 | 0.86517927E+04 |  125.443
 BASOPT|       13     |       3     | 0.31209168E-02 | 0.11214966E+04 |  107.213
 BASOPT|       14     |       1     | 0.16671905E-02 | 0.90449437E+06 |  513.739
 BASOPT|       14     |       2     | 0.30033639E-02 | 0.32463078E+05 |  278.246
 BASOPT|       14     |       3     | 0.36616636E-02 | 0.28283762E+04 |  242.220
 BASOPT|       15     |       1     | 0.19194144E-02 | 0.12595676E+07 |  930.584
 BASOPT|       15     |       2     | 0.36597165E-02 | 0.80841062E+05 |  497.921
 BASOPT|       15     |       3     | 0.42055534E-02 | 0.35641032E+04 |  417.609
 BASOPT|       16     |       1     | 0.15608988E-02 | 0.96166002E+06 |  578.919
 BASOPT|       16     |       2     | 0.28470167E-02 | 0.75687012E+05 |  328.689
 BASOPT|       16     |       3     | 0.32378047E-02 | 0.32953743E+04 |  276.308
 BASOPT|       17     |       1     | 0.13255401E-02 | 0.32929393E+04 |  123.029
 BASOPT|       17     |       2     | 0.27711905E-02 | 0.98493703E+03 |   68.285
 BASOPT|       17     |       3     | 0.30595085E-02 | 0.46682381E+03 |   58.158
 BASOPT|       18     |       1     | 0.90592552E-03 | 0.18491733E+05 |   80.238
 BASOPT|       18     |       2     | 0.17407513E-02 | 0.14738820E+04 |   41.505
 BASOPT|       18     |       3     | 0.19988422E-02 | 0.54844564E+03 |   35.599
 BASOPT|       19     |       1     | 0.97861711E-03 | 0.23190812E+05 |   83.219
 BASOPT|       19     |       2     | 0.21341541E-02 | 0.18565666E+04 |   43.149
 BASOPT|       19     |       3     | 0.24430784E-02 | 0.64048582E+03 |   37.217
 BASOPT|       20     |       1     | 0.13697643E-02 | 0.31703356E+06 |  120.829
 BASOPT|       20     |       2     | 0.24916652E-02 | 0.12683300E+05 |   61.232
[...]
 BASOPT|       28     |       1     | 0.10155362E-02 | 0.12571456E+05 |  241.736
 BASOPT|       28     |       2     | 0.18355755E-02 | 0.68276226E+03 |  132.373
 BASOPT|       28     |       3     | 0.20874705E-02 | 0.47821361E+03 |  106.122
 BASOPT|       29     |       1     | 0.97225000E-03 | 0.59004951E+04 |  102.248
 BASOPT|       29     |       2     | 0.15221995E-02 | 0.56739377E+03 |   56.902
 BASOPT|       29     |       3     | 0.15965053E-02 | 0.40320522E+03 |   48.298
 BASOPT|       30     |       1     | 0.49425253E-03 | 0.27320015E+04 |   31.156
 BASOPT|       30     |       2     | 0.64891166E-03 | 0.27060784E+03 |   17.074
 BASOPT|       30     |       3     | 0.65844543E-03 | 0.23775089E+03 |   16.498
 BASOPT|       31     |       1     | 0.69668631E-03 | 0.57538592E+04 |  197.236
 BASOPT|       31     |       2     | 0.99674540E-03 | 0.18494824E+04 |  100.389
 BASOPT|       31     |       3     | 0.15053763E-02 | 0.84790216E+03 |   90.030
 BASOPT|       32     |       1     | 0.59371686E-03 | 0.12486450E+04 |   49.575
 BASOPT|       32     |       2     | 0.98320274E-03 | 0.27299511E+03 |   28.565
 BASOPT|       32     |       3     | 0.10504165E-02 | 0.20164805E+03 |   27.615
 BASOPT|       33     |       1     | 0.98160434E-03 | 0.11440511E+05 |  193.741
 BASOPT|       33     |       2     | 0.14520910E-02 | 0.10051150E+04 |  100.095
 BASOPT|       33     |       3     | 0.29710637E-02 | 0.45594038E+03 |   89.543
 BASOPT|       34     |       1     | 0.14275621E-02 | 0.41893281E+05 |  342.902
 BASOPT|       34     |       2     | 0.25164740E-02 | 0.21612002E+04 |  189.921
 BASOPT|       34     |       3     | 0.30954904E-02 | 0.13540107E+04 |  157.259
 BASOPT|       35     |       1     | 0.15178620E-02 | 0.57517076E+05 |  633.144
 BASOPT|       35     |       2     | 0.27834712E-02 | 0.39485343E+04 |  344.337
 BASOPT|       35     |       3     | 0.35730019E-02 | 0.23484115E+04 |  283.412
 BASOPT|       36     |       1     | 0.11203328E-02 | 0.15790011E+05 |  155.684
 BASOPT|       36     |       2     | 0.17871735E-02 | 0.13007800E+04 |   84.085
 BASOPT|       36     |       3     | 0.21908015E-02 | 0.81627947E+03 |   74.247
 BASOPT|       37     |       1     | 0.12187757E-02 | 0.76741089E+05 |  269.645
 BASOPT|       37     |       2     | 0.17603611E-02 | 0.22621109E+04 |  127.450
 BASOPT|       37     |       3     | 0.20695603E-02 | 0.12231524E+04 |  104.103
 BASOPT|       38     |       1     | 0.17430155E-02 | 0.74861954E+05 |  558.072
 BASOPT|       38     |       2     | 0.28072076E-02 | 0.19837066E+04 |  279.283
 BASOPT|       38     |       3     | 0.29974843E-02 | 0.11407209E+04 |  241.752
 BASOPT|       39     |       1     | 0.87470238E-03 | 0.24448509E+05 |  106.897
 BASOPT|       39     |       2     | 0.12272919E-02 | 0.19419380E+04 |   45.122
 BASOPT|       39     |       3     | 0.22316975E-02 | 0.10175473E+04 |   37.727
 BASOPT|       40     |       1     | 0.10226199E-02 | 0.17610871E+05 |  524.723
 BASOPT|       40     |       2     | 0.22653549E-02 | 0.21367013E+04 |  256.256
 BASOPT|       40     |       3     | 0.28556295E-02 | 0.97778029E+03 |  221.952
 BASOPT|       41     |       1     | 0.12469892E-02 | 0.60879419E+04 |  421.135
 BASOPT|       41     |       2     | 0.24745807E-02 | 0.24989647E+04 |  235.027
 BASOPT|       41     |       3     | 0.27291021E-02 | 0.12596596E+04 |  197.106
 BASOPT|       42     |       1     | 0.13151389E-02 | 0.14386679E+05 |  188.081
 BASOPT|       42     |       2     | 0.19091732E-02 | 0.10355172E+04 |   88.157
 BASOPT|       42     |       3     | 0.20324952E-02 | 0.70897049E+03 |   85.218
 BASOPT|       43     |       1     | 0.13735351E-02 | 0.20475040E+05 |  516.775
 BASOPT|       43     |       2     | 0.24430161E-02 | 0.11287149E+04 |  261.128
 BASOPT|       43     |       3     | 0.26821081E-02 | 0.76995547E+03 |  243.391
 BASOPT|       44     |       1     | 0.84396979E-03 | 0.35853542E+04 |  197.376
 BASOPT|       44     |       2     | 0.16224579E-02 | 0.40711567E+03 |  120.447
 BASOPT|       44     |       3     | 0.17664555E-02 | 0.33874049E+03 |  101.679
 BASOPT| -----------------------------------------------------------------------
 BASOPT| Total residuum value: -.11178511E+05


 -------------------------------------------------------------------------------
 -                                                                             -
 -                                DBCSR STATISTICS                             -
 -                                                                             -
 -------------------------------------------------------------------------------
 COUNTER                                    TOTAL       BLAS       SMM       ACC
 flops    68 x    68 x     1                83232       0.0%    100.0%      0.0%
 flops   116 x    68 x     3               141984       0.0%    100.0%      0.0%
 flops   116 x   116 x     3               242208       0.0%    100.0%      0.0%
 flops    68 x   116 x     3               283968       0.0%    100.0%      0.0%
 flops    68 x    68 x     3               499392       0.0%    100.0%      0.0%
 flops    68 x    68 x     5               693600       0.0%    100.0%      0.0%
 flops   116 x    68 x     4               946560       0.0%    100.0%      0.0%
 flops    68 x   116 x     4               946560       0.0%    100.0%      0.0%
 flops    68 x   116 x     5               946560       0.0%    100.0%      0.0%
 flops   116 x    68 x     5               946560       0.0%    100.0%      0.0%
 flops    68 x    68 x     9               998784       0.0%    100.0%      0.0%
 flops   116 x   116 x     4              1291776       0.0%    100.0%      0.0%
 flops    68 x    68 x    12              1331712       0.0%    100.0%      0.0%
 flops   116 x    68 x     9              1703808       0.0%    100.0%      0.0%
 flops    68 x   116 x     9              2129760       0.0%    100.0%      0.0%
 flops    68 x    68 x     4              2219520       0.0%    100.0%      0.0%
 flops    68 x   116 x    12              3407616       0.0%    100.0%      0.0%
 flops   116 x    68 x    12              3407616       0.0%    100.0%      0.0%
 flops    68 x    68 x    10              3606720       0.0%    100.0%      0.0%
 flops   116 x    68 x     6              5111424       0.0%    100.0%      0.0%
 flops    68 x   116 x     6              5111424       0.0%    100.0%      0.0%
 flops    68 x   116 x    10              5206080       0.0%    100.0%      0.0%
 flops   116 x    68 x    10              5206080       0.0%    100.0%      0.0%
 flops   116 x   116 x     5              6055200       0.0%    100.0%      0.0%
 flops   116 x    68 x     7              6957216       0.0%    100.0%      0.0%
 flops    68 x    68 x     8              7102464       0.0%    100.0%      0.0%
 flops    68 x    68 x     6              7324416       0.0%    100.0%      0.0%
 flops   116 x    68 x     8              7572480       0.0%    100.0%      0.0%
 flops    68 x   116 x     7              7619808       0.0%    100.0%      0.0%
 flops    68 x   116 x     8              8329728       0.0%    100.0%      0.0%
 flops   116 x   116 x     6              8719488       0.0%    100.0%      0.0%
 flops   116 x   116 x     9              8719488       0.0%    100.0%      0.0%
 flops   116 x   116 x     7             10172736       0.0%    100.0%      0.0%
 flops    68 x    68 x    18             10487232       0.0%    100.0%      0.0%
 flops   116 x   116 x    13             10495680       0.0%    100.0%      0.0%
 flops    68 x    68 x     7             12623520       0.0%    100.0%      0.0%
 flops   116 x   116 x     8             16147200       0.0%    100.0%      0.0%
 flops    68 x   116 x    18             17889984       0.0%    100.0%      0.0%
 flops   116 x    68 x    18             17889984       0.0%    100.0%      0.0%
 flops   116 x   116 x    16             19376640       0.0%    100.0%      0.0%
 flops   116 x   116 x    10             25835520       0.0%    100.0%      0.0%
 flops    68 x    68 x    15             27882720       0.0%    100.0%      0.0%
 flops   116 x   116 x    18             40690944       0.0%    100.0%      0.0%
 flops   116 x   116 x    12             43597440       0.0%    100.0%      0.0%
 flops   116 x    68 x    15             44724960       0.0%    100.0%      0.0%
 flops    68 x   116 x    15             44724960       0.0%    100.0%      0.0%
 flops   116 x   116 x    15            101727360       0.0%    100.0%      0.0%
 flops inhomo. stacks                           0       0.0%      0.0%      0.0%
 flops total                       559.130112E+06       0.0%    100.0%      0.0%
 flops max/rank                     86.958144E+06       0.0%    100.0%      0.0%
 matmuls inhomo. stacks                         0       0.0%      0.0%      0.0%
 matmuls total                               2835       0.0%    100.0%      0.0%
 number of processed stacks                   435       0.0%    100.0%      0.0%
 average stack size                                     0.0       6.5       0.0
 marketing flops                   982.821888E+06
 -------------------------------------------------------------------------------
 # multiplications                              3
 max memory usage/rank              12.319412E+09
 # max total images/rank                        1
 # max 3D layers                                1
 # MPI messages exchanged                       0
 -------------------------------------------------------------------------------
 -                                                                             -
 -                      DBCSR MESSAGE PASSING PERFORMANCE                      -
 -                                                                             -
 -------------------------------------------------------------------------------
 ROUTINE             CALLS      AVE VOLUME [Bytes]
 MP_Bcast               48                     12.
 MP_Allreduce          134                     22.
 MP_Alltoall        686943                 581810.
 MP_ISend               12                    160.
 MP_IRecv               12                    160.
 -------------------------------------------------------------------------------

 -------------------------------------------------------------------------------
 -                                                                             -
 -                                GRID STATISTICS                              -
 -                                                                             -
 -------------------------------------------------------------------------------
 LP    KERNEL             BACKEND                              COUNT     PERCENT
 4     collocate ortho    REF                                 125769       8.96%
 4     integrate ortho    REF                                 125769       8.96%
 1     collocate ortho    REF                                 108306       7.72%
 1     integrate ortho    REF                                 108306       7.72%
 5     collocate ortho    REF                                 101922       7.26%
 5     integrate ortho    REF                                 101922       7.26%
 3     collocate ortho    REF                                  97428       6.94%
 3     integrate ortho    REF                                  97428       6.94%
 2     collocate ortho    REF                                  90267       6.43%
 2     integrate ortho    REF                                  90267       6.43%
 0     collocate ortho    REF                                  87792       6.26%
 0     integrate ortho    REF                                  87792       6.26%
 7     collocate ortho    REF                                  34437       2.45%
 7     integrate ortho    REF                                  34437       2.45%
 6     collocate ortho    REF                                  28533       2.03%
 6     integrate ortho    REF                                  28533       2.03%
 8     collocate ortho    REF                                  26688       1.90%
 8     integrate ortho    REF                                  26688       1.90%
 0     collocate general  REF                                    720       0.05%
 -------------------------------------------------------------------------------

 MEMORY| Estimated peak process memory [MiB]                               15028

 -------------------------------------------------------------------------------
 -                                                                             -
 -                         MESSAGE PASSING PERFORMANCE                         -
 -                                                                             -
 -------------------------------------------------------------------------------

 ROUTINE             CALLS      AVE VOLUME [Bytes]
 MP_Bcast             3858                   7926.
 MP_Allreduce        42290                    570.
 MP_Sync              3816
 MP_comm_split           1
 -------------------------------------------------------------------------------


 -------------------------------------------------------------------------------
 -                                                                             -
 -                           R E F E R E N C E S                               -
 -                                                                             -
 -------------------------------------------------------------------------------
 
 CP2K version 9.0 (Development Version), the CP2K developers group (2020).
 CP2K is freely available from https://www.cp2k.org/ .

 Kuehne,Thomas D.; Iannuzzi,Marcella; Del Ben,Mauro;
 Rybkin,Vladimir V.; Seewald,Patrick; Stein,Frederick; Laino,Teodoro;
 Khaliullin,Rustam Z.; Schuett,Ole; Schiffmann,Florian; Golze,Dorothea;
 Wilhelm,Jan; Chulkov,Sergey; Bani-Hashemian,Mohammad Hossein;
 Weber,Valery; Borstnik,Urban; Taillefumier,Mathieu;
 Jakobovits,Alice Shoshana; Lazzaro,Alfio; Pabst,Hans; Mueller,Tiziano;
 Schade,Robert; Guidon,Manuel; Andermatt,Samuel; Holmberg,Nico;
 Schenter,Gregory K.; Hehn,Anna; Bussy,Augustin; Belleflamme,Fabian;
 Tabacchi,Gloria; Gloess,Andreas; Lass,Michael; Bethune,Iain;
 Mundy,Christopher J.; Plessl,Christian; Watkins,Matt;
 VandeVondele,Joost; Krack,Matthias; Hutter,Juerg. 
 The Journal of Chemical Physics, 152 (19), (2020). 
 CP2K: An electronic structure and molecular dynamics software package -
 Quickstep: Efficient and accurate electronic structure calculations.
 https://doi.org/10.1063/5.0007045

 Schuett, Ole; Messmer, Peter; Hutter, Juerg; VandeVondele, Joost. 
 Electronic Structure Calculations on Graphics Processing Units, John
 Wiley & Sons, Ltd, 173-190 (2016). 
 GPU-Accelerated Sparse Matrix-Matrix Multiplication for
 Linear Scaling Density Functional Theory.
 https://doi.org/10.1002/9781118670712.ch8

 Heinecke, A; Henry, G; Hutchinson, M; Pabst, H. 
 Proceedings of Intl. Supercomputing Conference, 981-991 (2016). 
 LIBXSMM: Accelerating Small Matrix Multiplications
 by Runtime Code Generation.
 https://doi.org/10.1109/SC.2016.83

 Borstnik, U; VandeVondele, J; Weber, V; Hutter, J. 
 PARALLEL COMPUTING, 40 (5-6), 47-58 (2014). 
 Sparse matrix multiplication: The distributed block-compressed sparse
 row library.
 https://doi.org/10.1016/j.parco.2014.03.012

 Hutter, J; Iannuzzi, M; Schiffmann, F; VandeVondele, J. 
 WIREs Comput Mol Sci., 4 (1), 15-25 (2014). 
 CP2K: atomistic simulations of condensed matter systems.
 https://doi.org/10.1002/wcms.1159

 Guidon, M; Hutter, J; VandeVondele, J. 
 JOURNAL OF CHEMICAL THEORY AND COMPUTATION, 6 (8), 2348-2364 (2010). 
 Auxiliary Density Matrix Methods for Hartree-Fock Exchange Calculations.
 https://doi.org/10.1021/ct1002225

 VandeVondele, J; Hutter, J. 
 JOURNAL OF CHEMICAL PHYSICS, 127 (11), 114105 (2007). 
 Gaussian basis sets for accurate calculations on molecular systems in
 gas and condensed phases.
 https://doi.org/10.1063/1.2770708

 Krack, M. 
 THEORETICAL CHEMISTRY ACCOUNTS, 114 (1-3), 145-152 (2005). 
 Pseudopotentials for H to Kr optimized for gradient-corrected
 exchange-correlation functionals.
 https://doi.org/10.1007/s00214-005-0655-y

 VandeVondele, J; Krack, M; Mohamed, F; Parrinello, M; Chassaing, T;
 Hutter, J. COMPUTER PHYSICS COMMUNICATIONS, 167 (2), 103-128 (2005). 
 QUICKSTEP: Fast and accurate density functional calculations using a
 mixed Gaussian and plane waves approach.
 https://doi.org/10.1016/j.cpc.2004.12.014

 Frigo, M; Johnson, SG. 
 PROCEEDINGS OF THE IEEE, 93 (2), 216-231 (2005). 
 The design and implementation of FFTW3.
 https://doi.org/10.1109/JPROC.2004.840301

 Hartwigsen, C; Goedecker, S; Hutter, J. 
 PHYSICAL REVIEW B, 58 (7), 3641-3662 (1998). 
 Relativistic separable dual-space Gaussian pseudopotentials from H to Rn.
 https://doi.org/10.1103/PhysRevB.58.3641

 Lippert, G; Hutter, J; Parrinello, M. 
 MOLECULAR PHYSICS, 92 (3), 477-487 (1997). 
 A hybrid Gaussian and plane wave density functional scheme.
 https://doi.org/10.1080/002689797170220

 Perdew, JP; Burke, K; Ernzerhof, M. 
 PHYSICAL REVIEW LETTERS, 77 (18), 3865-3868 (1996). 
 Generalized gradient approximation made simple.
 https://doi.org/10.1103/PhysRevLett.77.3865

 Goedecker, S; Teter, M; Hutter, J. 
 PHYSICAL REVIEW B, 54 (3), 1703-1710 (1996). 
 Separable dual-space Gaussian pseudopotentials.
 https://doi.org/10.1103/PhysRevB.54.1703


 -------------------------------------------------------------------------------
 -                                                                             -
 -                                T I M I N G                                  -
 -                                                                             -
 -------------------------------------------------------------------------------
 SUBROUTINE                       CALLS  ASD         SELF TIME        TOTAL TIME
                                MAXIMUM       AVERAGE  MAXIMUM  AVERAGE  MAXIMUM
 CP2K                                 1  1.0     0.00     0.02 11773.54 11774.10
 run_optimize_basis                   1  2.0     0.00     0.01 11772.84 11773.62
 driver_para_opt_basis                1  3.0     0.00     0.00 11772.81 11773.59
 driver_optimization_para_low         1  4.0     0.30     1.00 11772.81 11773.59
 compute_residuum_vectors          3816  5.0     0.82     1.17 11718.76 11737.07
 mp_sum_dv                        19081  5.8 10092.66 11663.50 10092.66 11663.50
 cp_gemm                         137376  7.2     0.27     0.46  1067.15  9141.14
 cp_gemm_fm_gemm                 137376  8.2     0.16     0.26  1066.87  9140.68
 cp_fm_gemm                      137376  9.2  1066.71  9140.42  1066.71  9140.42
 admm_fit_mo_coeffs               11448  6.0     0.05     0.08   394.33  3328.51
 fit_mo_coeffs                    11448  7.0     0.13     0.20   340.82  2943.32
 build_overlap_matrix_low         22908  6.0   361.30  1960.70   362.57  1964.58
 copy_dbcsr_to_fm                 57243  6.8     0.90     1.49    98.16   692.10
 dbcsr_complete_redistribute      57246  7.8    32.90   209.43    59.08   401.72
 purify_mo_diag                   11448  7.0     0.16     0.28    53.46   385.10
 cp_fm_upper_to_full              34350  7.3    48.75   303.55    48.75   303.55
 -------------------------------------------------------------------------------

 The number of warnings for this run is : 0
 
 -------------------------------------------------------------------------------
  **** **** ******  **  PROGRAM ENDED AT                 2021-05-18 19:25:47.501
 ***** ** ***  *** **   PROGRAM RAN ON                                   tcopt10
 **    ****   ******    PROGRAM RAN BY                                    hutter
 ***** **    ** ** **   PROGRAM PROCESS ID                                 30999
  **** **  *******  **  PROGRAM STOPPED IN            /data/hutter/run/delta/new
