
  **** **** ******  **  PROGRAM STARTED AT               2021-05-18 14:55:20.453
 ***** ** ***  *** **   PROGRAM STARTED ON                               tcopt10
 **    ****   ******    PROGRAM STARTED BY                                hutter
 ***** **    ** ** **   PROGRAM PROCESS ID                                 24534
  **** **  *******  **  PROGRAM STARTED IN            /data/hutter/run/delta/new

 CP2K| version string:                    CP2K version 9.0 (Development Version)
 CP2K| source code revision number:                                  git:4b756b0
 CP2K| cp2kflags: omp libint fftw3 libxc elpa parallel mpi3 scalapack xsmm spgli
 CP2K|            b sirius libvori libbqb
 CP2K| is freely available from                            https://www.cp2k.org/
 CP2K| Program compiled at                         Wed May  5 15:51:41 CEST 2021
 CP2K| Program compiled on                                               tcopt10
 CP2K| Program compiled for                                                local
 CP2K| Data directory path                 /data/hutter/GITHUB/CURRENT/cp2k/data
 CP2K| Input file name                                              opt-dzvp.inp

 GLOBAL| Method name                                              OPTIMIZE_BASIS
 GLOBAL| Project name                                                     molopt
 GLOBAL| Preferred FFT library                                             FFTW3
 GLOBAL| Preferred diagonalization lib.                                       SL
 GLOBAL| Run type                                                   ENERGY_FORCE
 GLOBAL| All-to-all communication in single precision                          F
 GLOBAL| FFTs using library dependent lengths                                  F
 GLOBAL| Grid backend                                                       AUTO
 GLOBAL| Global print level                                               MEDIUM
 GLOBAL| MPI I/O enabled                                                       T
 GLOBAL| Total number of message passing processes                            48
 GLOBAL| Number of threads for this process                                    1
 GLOBAL| This output is from process                                           0
 GLOBAL| CPU model name                          AMD EPYC 7401 24-Core Processor
 GLOBAL| CPUID                                                              1002

 MEMORY| system memory details [Kb]
 MEMORY|                        rank 0           min           max       average
 MEMORY| MemTotal            263969868     263969868     263969868     263969868
 MEMORY| MemFree             216573524     216573524     216573524     216573524
 MEMORY| Buffers                    36            36            36            36
 MEMORY| Cached               37821124      37821124      37821124      37821124
 MEMORY| Slab                  3031728       3031728       3031728       3031728
 MEMORY| SReclaimable          1721148       1721148       1721148       1721148
 MEMORY| MemLikelyFree       256115832     256115832     256115832     256115832


 *** Fundamental physical constants (SI units) ***

 *** Literature: B. J. Mohr and B. N. Taylor,
 ***             CODATA recommended values of the fundamental physical
 ***             constants: 2006, Web Version 5.1
 ***             http://physics.nist.gov/constants

 Speed of light in vacuum [m/s]                             2.99792458000000E+08
 Magnetic constant or permeability of vacuum [N/A**2]       1.25663706143592E-06
 Electric constant or permittivity of vacuum [F/m]          8.85418781762039E-12
 Planck constant (h) [J*s]                                  6.62606896000000E-34
 Planck constant (h-bar) [J*s]                              1.05457162825177E-34
 Elementary charge [C]                                      1.60217648700000E-19
 Electron mass [kg]                                         9.10938215000000E-31
 Electron g factor [ ]                                     -2.00231930436220E+00
 Proton mass [kg]                                           1.67262163700000E-27
 Fine-structure constant                                    7.29735253760000E-03
 Rydberg constant [1/m]                                     1.09737315685270E+07
 Avogadro constant [1/mol]                                  6.02214179000000E+23
 Boltzmann constant [J/K]                                   1.38065040000000E-23
 Atomic mass unit [kg]                                      1.66053878200000E-27
 Bohr radius [m]                                            5.29177208590000E-11

 *** Conversion factors ***

 [u] -> [a.u.]                                              1.82288848426455E+03
 [Angstrom] -> [Bohr] = [a.u.]                              1.88972613288564E+00
 [a.u.] = [Bohr] -> [Angstrom]                              5.29177208590000E-01
 [a.u.] -> [s]                                              2.41888432650478E-17
 [a.u.] -> [fs]                                             2.41888432650478E-02
 [a.u.] -> [J]                                              4.35974393937059E-18
 [a.u.] -> [N]                                              8.23872205491840E-08
 [a.u.] -> [K]                                              3.15774647902944E+05
 [a.u.] -> [kJ/mol]                                         2.62549961709828E+03
 [a.u.] -> [kcal/mol]                                       6.27509468713739E+02
 [a.u.] -> [Pa]                                             2.94210107994716E+13
 [a.u.] -> [bar]                                            2.94210107994716E+08
 [a.u.] -> [atm]                                            2.90362800883016E+08
 [a.u.] -> [eV]                                             2.72113838565563E+01
 [a.u.] -> [Hz]                                             6.57968392072181E+15
 [a.u.] -> [1/cm] (wave numbers)                            2.19474631370540E+05
 [a.u./Bohr**2] -> [1/cm]                                   5.14048714338585E+03
 
 DBCSR| CPU Multiplication driver                                           XSMM
 DBCSR| Multrec recursion limit                                              512
 DBCSR| Multiplication stack size                                           1000
 DBCSR| Maximum elements for images                                    UNLIMITED
 DBCSR| Multiplicative factor virtual images                                   1
 DBCSR| Use multiplication densification                                       T
 DBCSR| Multiplication size stacks                                             3
 DBCSR| Use memory pool for CPU allocation                                     F
 DBCSR| Number of 3D layers                                               SINGLE
 DBCSR| Use MPI memory allocation                                              F
 DBCSR| Use RMA algorithm                                                      F
 DBCSR| Use Communication thread                                               T
 DBCSR| Communication thread load                                             87
 DBCSR| MPI: My node id                                                        0
 DBCSR| MPI: Number of nodes                                                  48
 DBCSR| OMP: Current number of threads                                         1
 DBCSR| OMP: Max number of threads                                             1
 DBCSR| Split modifier for TAS multiplication algorithm                  1.0E+00

 BASOPT| Total number of calculations     44

 BASOPT| Content of basis combination      1
 BASOPT|     Element:    H    Basis set:    DZVP-MOLOPT-PBE-GTH-Q1
 BASOPT|     Element:    B    Basis set:    DZVP-MOLOPT-PBE-GTH-Q3
 BASOPT|     Element:    C    Basis set:    DZVP-MOLOPT-PBE-GTH-Q4
 BASOPT|     Element:    N    Basis set:    DZVP-MOLOPT-PBE-GTH-Q5
 BASOPT|     Element:    O    Basis set:    DZVP-MOLOPT-PBE-GTH-Q6
 BASOPT|     Element:    F    Basis set:    DZVP-MOLOPT-PBE-GTH-Q7

 BASOPT| Information at iteration number:       0
 BASOPT| Training set | Combination | Rho difference | Condition num. | Time
 BASOPT| -----------------------------------------------------------------------
 BASOPT|        1     |       1     | 0.19374780E-01 | 0.12323240E+05 |    0.095
 BASOPT|        2     |       1     | 0.14574330E-01 | 0.10560119E+04 |    0.091
 BASOPT|        3     |       1     | 0.21328125E-01 | 0.91032748E+04 |    0.462
 BASOPT|        4     |       1     | 0.22440413E-01 | 0.50756839E+04 |    0.168
 BASOPT|        5     |       1     | 0.99915146E-02 | 0.25151490E+03 |    0.059
 BASOPT|        6     |       1     | 0.16005060E-01 | 0.97192851E+03 |    0.080
 BASOPT|        7     |       1     | 0.12505275E-01 | 0.12155380E+04 |    0.128
 BASOPT|        8     |       1     | 0.96977520E-02 | 0.48167475E+03 |    0.025
 BASOPT|        9     |       1     | 0.12144479E-01 | 0.99759131E+03 |    0.029
 BASOPT|       10     |       1     | 0.13411400E-01 | 0.16586750E+04 |    0.067
 BASOPT|       11     |       1     | 0.14243766E-01 | 0.11411356E+04 |    0.130
 BASOPT|       12     |       1     | 0.25506680E-01 | 0.55196637E+04 |    0.327
 BASOPT|       13     |       1     | 0.21931294E-01 | 0.20952375E+04 |    0.190
 BASOPT|       14     |       1     | 0.26022567E-01 | 0.10644611E+05 |    0.406
 BASOPT|       15     |       1     | 0.29006790E-01 | 0.12511063E+06 |    0.669
 BASOPT|       16     |       1     | 0.26266197E-01 | 0.10976804E+06 |    0.420
 BASOPT|       17     |       1     | 0.11075508E-01 | 0.25018923E+03 |    0.091
 BASOPT|       18     |       1     | 0.10334427E-01 | 0.47877193E+03 |    0.052
 BASOPT|       19     |       1     | 0.11193200E-01 | 0.62761006E+03 |    0.067
 BASOPT|       20     |       1     | 0.16046437E-01 | 0.14786508E+04 |    0.096
 BASOPT|       21     |       1     | 0.11614117E-01 | 0.73311233E+03 |    0.044
 BASOPT|       22     |       1     | 0.11400127E-01 | 0.61121481E+03 |    0.058
 BASOPT|       23     |       1     | 0.97869063E-02 | 0.40774526E+03 |    0.032
 BASOPT|       24     |       1     | 0.83247234E-02 | 0.13942258E+03 |    0.015
 BASOPT|       25     |       1     | 0.11847842E-02 | 0.14176892E+03 |    0.010
 BASOPT|       26     |       1     | 0.14639559E-01 | 0.56297368E+03 |    0.104
 BASOPT|       27     |       1     | 0.10514403E-01 | 0.42091791E+03 |    0.037
 BASOPT|       28     |       1     | 0.61283747E-02 | 0.35717252E+03 |    0.030
 BASOPT|       29     |       1     | 0.51140053E-02 | 0.16249001E+03 |    0.015
 BASOPT|       30     |       1     | 0.43952103E-02 | 0.11471356E+03 |    0.005
 BASOPT|       31     |       1     | 0.10673803E-01 | 0.35197205E+03 |    0.024
 BASOPT|       32     |       1     | 0.29939817E-02 | 0.99649926E+02 |    0.008
 BASOPT|       33     |       1     | 0.97001621E-02 | 0.53039599E+03 |    0.024
 BASOPT|       34     |       1     | 0.11220682E-01 | 0.59836656E+03 |    0.040
 BASOPT|       35     |       1     | 0.13577761E-01 | 0.76244734E+03 |    0.081
 BASOPT|       36     |       1     | 0.74468832E-02 | 0.33074300E+03 |    0.021
 BASOPT|       37     |       1     | 0.90847928E-02 | 0.70147595E+03 |    0.029
 BASOPT|       38     |       1     | 0.10862290E-01 | 0.86675183E+03 |    0.059
 BASOPT|       39     |       1     | 0.10030106E-01 | 0.39244473E+03 |    0.014
 BASOPT|       40     |       1     | 0.13312233E-01 | 0.58302444E+03 |    0.055
 BASOPT|       41     |       1     | 0.62305771E-02 | 0.38012401E+03 |    0.049
 BASOPT|       42     |       1     | 0.71568334E-02 | 0.23138417E+03 |    0.024
 BASOPT|       43     |       1     | 0.93006757E-02 | 0.58300119E+03 |    0.066
 BASOPT|       44     |       1     | 0.26890552E-02 | 0.27293717E+03 |    0.024
 BASOPT| -----------------------------------------------------------------------
 BASOPT| Total residuum value: -.36891991E+04

 BASOPT| Information at iteration number:     100
 BASOPT| Training set | Combination | Rho difference | Condition num. | Time
 BASOPT| -----------------------------------------------------------------------
 BASOPT|        1     |       1     | 0.19374780E-01 | 0.12323240E+05 |   10.618
 BASOPT|        2     |       1     | 0.14574330E-01 | 0.10560119E+04 |    9.240
 BASOPT|        3     |       1     | 0.24616631E-01 | 0.88117559E+04 |   50.376
 BASOPT|        4     |       1     | 0.22440413E-01 | 0.50756839E+04 |   18.084
 BASOPT|        5     |       1     | 0.99915146E-02 | 0.25151490E+03 |    6.049
 BASOPT|        6     |       1     | 0.16005060E-01 | 0.97192851E+03 |    9.403
 BASOPT|        7     |       1     | 0.12247746E-01 | 0.12393284E+04 |   12.269
 BASOPT|        8     |       1     | 0.96977520E-02 | 0.48167475E+03 |    2.713
 BASOPT|        9     |       1     | 0.12144479E-01 | 0.99759131E+03 |    3.528
 BASOPT|       10     |       1     | 0.13411400E-01 | 0.16586750E+04 |    7.092
 BASOPT|       11     |       1     | 0.14243766E-01 | 0.11411356E+04 |   12.779
 BASOPT|       12     |       1     | 0.25509927E-01 | 0.52968090E+04 |   32.552
 BASOPT|       13     |       1     | 0.21931294E-01 | 0.20952375E+04 |   18.723
 BASOPT|       14     |       1     | 0.26011650E-01 | 0.10332294E+05 |   40.692
 BASOPT|       15     |       1     | 0.29006790E-01 | 0.12511063E+06 |   64.300
 BASOPT|       16     |       1     | 0.26266197E-01 | 0.10976804E+06 |   42.356
 BASOPT|       17     |       1     | 0.11075508E-01 | 0.25018923E+03 |    9.606
 BASOPT|       18     |       1     | 0.10334427E-01 | 0.47877193E+03 |    6.232
 BASOPT|       19     |       1     | 0.11193200E-01 | 0.62761006E+03 |    6.806
 BASOPT|       20     |       1     | 0.16188646E-01 | 0.14652082E+04 |    9.304
 BASOPT|       21     |       1     | 0.11457576E-01 | 0.73549515E+03 |    5.212
 BASOPT|       22     |       1     | 0.11400127E-01 | 0.61121481E+03 |    7.030
 BASOPT|       23     |       1     | 0.97869063E-02 | 0.40774526E+03 |    3.410
 BASOPT|       24     |       1     | 0.83247234E-02 | 0.13942258E+03 |    1.305
 BASOPT|       25     |       1     | 0.11847842E-02 | 0.14176892E+03 |    0.873
 BASOPT|       26     |       1     | 0.14639559E-01 | 0.56297368E+03 |   10.784
 BASOPT|       27     |       1     | 0.10514403E-01 | 0.42091791E+03 |    3.397
 BASOPT|       28     |       1     | 0.61283747E-02 | 0.35717252E+03 |    2.995
 BASOPT|       29     |       1     | 0.51140053E-02 | 0.16249001E+03 |    1.333
 BASOPT|       30     |       1     | 0.43952103E-02 | 0.11471356E+03 |    0.498
 BASOPT|       31     |       1     | 0.10377446E-01 | 0.37518914E+03 |    2.472
 BASOPT|       32     |       1     | 0.29939817E-02 | 0.99649926E+02 |    0.747
 BASOPT|       33     |       1     | 0.89934761E-02 | 0.53454693E+03 |    2.485
 BASOPT|       34     |       1     | 0.98332026E-02 | 0.58990725E+03 |    4.388
 BASOPT|       35     |       1     | 0.12165207E-01 | 0.75589008E+03 |    8.355
 BASOPT|       36     |       1     | 0.83194196E-02 | 0.33051764E+03 |    2.145
 BASOPT|       37     |       1     | 0.11017747E-01 | 0.77950556E+03 |    3.358
 BASOPT|       38     |       1     | 0.11414918E-01 | 0.93483363E+03 |    7.032
 BASOPT|       39     |       1     | 0.13002965E-01 | 0.44317098E+03 |    1.327
 BASOPT|       40     |       1     | 0.16731072E-01 | 0.60659481E+03 |    6.550
 BASOPT|       41     |       1     | 0.73145837E-02 | 0.38963210E+03 |    5.273
 BASOPT|       42     |       1     | 0.69304015E-02 | 0.22546676E+03 |    2.402
 BASOPT|       43     |       1     | 0.91820762E-02 | 0.58397581E+03 |    7.018
 BASOPT|       44     |       1     | 0.26890552E-02 | 0.27293717E+03 |    2.626
 BASOPT| -----------------------------------------------------------------------
 BASOPT| Total residuum value: -.36866058E+04

 BASOPT| Information at iteration number:     200
 BASOPT| Training set | Combination | Rho difference | Condition num. | Time
 BASOPT| -----------------------------------------------------------------------
 BASOPT|        1     |       1     | 0.19556249E-01 | 0.12084403E+05 |   21.157
 BASOPT|        2     |       1     | 0.14882638E-01 | 0.38186513E+03 |   18.396
 BASOPT|        3     |       1     | 0.21323639E-01 | 0.79828366E+04 |  100.327
 BASOPT|        4     |       1     | 0.22364730E-01 | 0.45091701E+04 |   36.032
 BASOPT|        5     |       1     | 0.10232285E-01 | 0.24645702E+03 |   12.044
 BASOPT|        6     |       1     | 0.15977137E-01 | 0.70952931E+03 |   18.743
 BASOPT|        7     |       1     | 0.12495736E-01 | 0.96422732E+03 |   24.424
 BASOPT|        8     |       1     | 0.98315799E-02 | 0.39141503E+03 |    5.424
 BASOPT|        9     |       1     | 0.12144479E-01 | 0.99759131E+03 |    7.043
 BASOPT|       10     |       1     | 0.13411400E-01 | 0.16586750E+04 |   14.172
 BASOPT|       11     |       1     | 0.14243766E-01 | 0.11411356E+04 |   25.527
 BASOPT|       12     |       1     | 0.25506680E-01 | 0.55196637E+04 |   64.838
 BASOPT|       13     |       1     | 0.21931294E-01 | 0.20952375E+04 |   37.274
 BASOPT|       14     |       1     | 0.26022567E-01 | 0.10644611E+05 |   81.033
 BASOPT|       15     |       1     | 0.29006790E-01 | 0.12511063E+06 |  128.006
 BASOPT|       16     |       1     | 0.26266197E-01 | 0.10976804E+06 |   84.209
 BASOPT|       17     |       1     | 0.11075508E-01 | 0.25018923E+03 |   19.136
 BASOPT|       18     |       1     | 0.10334427E-01 | 0.47877193E+03 |   12.429
 BASOPT|       19     |       1     | 0.11193200E-01 | 0.62761006E+03 |   13.560
 BASOPT|       20     |       1     | 0.16046437E-01 | 0.14786508E+04 |   18.554
 BASOPT|       21     |       1     | 0.11614117E-01 | 0.73311233E+03 |   10.389
 BASOPT|       22     |       1     | 0.11400127E-01 | 0.61121481E+03 |   14.019
 BASOPT|       23     |       1     | 0.97869063E-02 | 0.40774526E+03 |    6.796
 BASOPT|       24     |       1     | 0.83247234E-02 | 0.13942258E+03 |    2.593
 BASOPT|       25     |       1     | 0.11847842E-02 | 0.14176892E+03 |    1.737
 BASOPT|       26     |       1     | 0.14639559E-01 | 0.56297368E+03 |   21.378
 BASOPT|       27     |       1     | 0.10514403E-01 | 0.42091791E+03 |    6.770
 BASOPT|       28     |       1     | 0.61283747E-02 | 0.35717252E+03 |    5.967
 BASOPT|       29     |       1     | 0.51140053E-02 | 0.16249001E+03 |    2.651
 BASOPT|       30     |       1     | 0.43952103E-02 | 0.11471356E+03 |    0.990
 BASOPT|       31     |       1     | 0.10673803E-01 | 0.35197205E+03 |    4.923
 BASOPT|       32     |       1     | 0.29939817E-02 | 0.99649926E+02 |    1.486
 BASOPT|       33     |       1     | 0.97001621E-02 | 0.53039599E+03 |    4.953
 BASOPT|       34     |       1     | 0.11220682E-01 | 0.59836656E+03 |    8.754
 BASOPT|       35     |       1     | 0.13577761E-01 | 0.76244734E+03 |   16.636
 BASOPT|       36     |       1     | 0.74468832E-02 | 0.33074300E+03 |    4.275
 BASOPT|       37     |       1     | 0.90847928E-02 | 0.70147595E+03 |    6.690
 BASOPT|       38     |       1     | 0.10862290E-01 | 0.86675183E+03 |   14.018
 BASOPT|       39     |       1     | 0.10030106E-01 | 0.39244473E+03 |    2.654
 BASOPT|       40     |       1     | 0.13312233E-01 | 0.58302444E+03 |   13.034
 BASOPT|       41     |       1     | 0.62305771E-02 | 0.38012401E+03 |   10.505
 BASOPT|       42     |       1     | 0.71568334E-02 | 0.23138417E+03 |    4.794
 BASOPT|       43     |       1     | 0.93006757E-02 | 0.58300119E+03 |   13.993
 BASOPT|       44     |       1     | 0.26890552E-02 | 0.27293717E+03 |    5.233
 BASOPT| -----------------------------------------------------------------------
 BASOPT| Total residuum value: -.36894087E+04

 BASOPT| Information at iteration number:     300
 BASOPT| Training set | Combination | Rho difference | Condition num. | Time
 BASOPT| -----------------------------------------------------------------------
 BASOPT|        1     |       1     | 0.19374780E-01 | 0.12323240E+05 |   31.695
 BASOPT|        2     |       1     | 0.26995965E-01 | 0.11418146E+04 |   27.581
 BASOPT|        3     |       1     | 0.21328125E-01 | 0.91032748E+04 |  150.393
 BASOPT|        4     |       1     | 0.22440413E-01 | 0.50756839E+04 |   53.985
 BASOPT|        5     |       1     | 0.99915146E-02 | 0.25151490E+03 |   18.040
 BASOPT|        6     |       1     | 0.21573094E-01 | 0.97356348E+03 |   28.103
 BASOPT|        7     |       1     | 0.12505275E-01 | 0.12155380E+04 |   36.617
 BASOPT|        8     |       1     | 0.96977520E-02 | 0.48167475E+03 |    8.143
 BASOPT|        9     |       1     | 0.12144479E-01 | 0.99759131E+03 |   10.578
 BASOPT|       10     |       1     | 0.13411400E-01 | 0.16586750E+04 |   21.244
 BASOPT|       11     |       1     | 0.14243766E-01 | 0.11411356E+04 |   38.269
 BASOPT|       12     |       1     | 0.25506680E-01 | 0.55196637E+04 |   97.358
 BASOPT|       13     |       1     | 0.21931294E-01 | 0.20952375E+04 |   55.923
 BASOPT|       14     |       1     | 0.26022567E-01 | 0.10644611E+05 |  121.637
 BASOPT|       15     |       1     | 0.33890661E-01 | 0.12688678E+06 |  191.928
 BASOPT|       16     |       1     | 0.26266197E-01 | 0.10976804E+06 |  125.985
 BASOPT|       17     |       1     | 0.11075508E-01 | 0.25018923E+03 |   28.684
 BASOPT|       18     |       1     | 0.10334427E-01 | 0.47877193E+03 |   18.640
 BASOPT|       19     |       1     | 0.20537049E-01 | 0.72211867E+03 |   20.332
 BASOPT|       20     |       1     | 0.16046437E-01 | 0.14786508E+04 |   27.861
 BASOPT|       21     |       1     | 0.11614117E-01 | 0.73311233E+03 |   15.601
 BASOPT|       22     |       1     | 0.16410740E-01 | 0.62215345E+03 |   21.017
 BASOPT|       23     |       1     | 0.97869063E-02 | 0.40774526E+03 |   10.186
 BASOPT|       24     |       1     | 0.14392137E-01 | 0.14554745E+03 |    3.889
 BASOPT|       25     |       1     | 0.11847842E-02 | 0.14176892E+03 |    2.600
 BASOPT|       26     |       1     | 0.29594798E-01 | 0.58082316E+03 |   31.997
 BASOPT|       27     |       1     | 0.16020807E-01 | 0.46112161E+03 |   10.163
 BASOPT|       28     |       1     | 0.16008211E-01 | 0.40918036E+03 |    8.941
 BASOPT|       29     |       1     | 0.11198183E-01 | 0.16523096E+03 |    3.969
 BASOPT|       30     |       1     | 0.43952103E-02 | 0.11471356E+03 |    1.481
 BASOPT|       31     |       1     | 0.10673803E-01 | 0.35197205E+03 |    7.394
 BASOPT|       32     |       1     | 0.29939817E-02 | 0.99649926E+02 |    2.226
 BASOPT|       33     |       1     | 0.97001621E-02 | 0.53039599E+03 |    7.449
 BASOPT|       34     |       1     | 0.20881080E-01 | 0.59453628E+03 |   13.135
 BASOPT|       35     |       1     | 0.27071976E-01 | 0.76852387E+03 |   24.949
 BASOPT|       36     |       1     | 0.12522676E-01 | 0.33337955E+03 |    6.423
 BASOPT|       37     |       1     | 0.90847928E-02 | 0.70147595E+03 |   10.067
 BASOPT|       38     |       1     | 0.10862290E-01 | 0.86675183E+03 |   21.052
 BASOPT|       39     |       1     | 0.10030106E-01 | 0.39244473E+03 |    3.997
 BASOPT|       40     |       1     | 0.13312233E-01 | 0.58302444E+03 |   19.629
 BASOPT|       41     |       1     | 0.62305771E-02 | 0.38012401E+03 |   15.762
 BASOPT|       42     |       1     | 0.71568334E-02 | 0.23138417E+03 |    7.197
 BASOPT|       43     |       1     | 0.93006757E-02 | 0.58300119E+03 |   20.988
 BASOPT|       44     |       1     | 0.66501231E-02 | 0.30296717E+03 |    7.843
 BASOPT| -----------------------------------------------------------------------
 BASOPT| Total residuum value: -.36816095E+04

 BASOPT| Information at iteration number:     400
 BASOPT| Training set | Combination | Rho difference | Condition num. | Time
 BASOPT| -----------------------------------------------------------------------
 BASOPT|        1     |       1     | 0.47496495E-02 | 0.17996665E+04 |   42.226
 BASOPT|        2     |       1     | 0.12396218E-01 | 0.64364856E+03 |   36.902
 BASOPT|        3     |       1     | 0.13283995E-01 | 0.32718471E+04 |  200.226
 BASOPT|        4     |       1     | 0.12445647E-01 | 0.19403560E+04 |   72.000
 BASOPT|        5     |       1     | 0.85790920E-02 | 0.23498536E+03 |   24.064
 BASOPT|        6     |       1     | 0.63195404E-02 | 0.12998341E+04 |   37.358
 BASOPT|        7     |       1     | 0.45868953E-02 | 0.64975137E+04 |   48.591
 BASOPT|        8     |       1     | 0.18374628E-02 | 0.37724432E+03 |   10.834
 BASOPT|        9     |       1     | 0.12645913E-01 | 0.73767392E+04 |   14.018
 BASOPT|       10     |       1     | 0.60974299E-02 | 0.70001359E+04 |   28.102
 BASOPT|       11     |       1     | 0.38346496E-02 | 0.48652405E+04 |   50.685
 BASOPT|       12     |       1     | 0.13545934E-01 | 0.11676699E+05 |  128.755
 BASOPT|       13     |       1     | 0.14562733E-01 | 0.59341726E+04 |   74.011
 BASOPT|       14     |       1     | 0.15544601E-01 | 0.18220561E+05 |  161.062
 BASOPT|       15     |       1     | 0.20135114E-01 | 0.32069726E+05 |  254.251
 BASOPT|       16     |       1     | 0.17563804E-01 | 0.30649390E+05 |  167.535
 BASOPT|       17     |       1     | 0.93558975E-02 | 0.12429037E+04 |   38.145
 BASOPT|       18     |       1     | 0.52603305E-02 | 0.11573023E+04 |   24.726
 BASOPT|       19     |       1     | 0.60076203E-02 | 0.10814150E+04 |   26.944
 BASOPT|       20     |       1     | 0.10094501E-01 | 0.86569199E+04 |   36.831
 BASOPT|       21     |       1     | 0.49478526E-02 | 0.11101007E+04 |   20.559
 BASOPT|       22     |       1     | 0.45521466E-02 | 0.20495182E+04 |   27.814
 BASOPT|       23     |       1     | 0.20068924E-02 | 0.19045963E+04 |   13.483
 BASOPT|       24     |       1     | 0.12569717E-01 | 0.47153047E+03 |    5.146
 BASOPT|       25     |       1     | 0.13445473E-02 | 0.14898905E+03 |    3.465
 BASOPT|       26     |       1     | 0.10229754E-01 | 0.12990842E+04 |   42.402
 BASOPT|       27     |       1     | 0.49700127E-02 | 0.10326021E+04 |   13.439
 BASOPT|       28     |       1     | 0.40863573E-02 | 0.69362829E+03 |   11.818
 BASOPT|       29     |       1     | 0.30161910E-02 | 0.14909733E+04 |    5.236
 BASOPT|       30     |       1     | 0.24847035E-02 | 0.61189884E+04 |    1.968
 BASOPT|       31     |       1     | 0.60773053E-02 | 0.39412150E+03 |    9.756
 BASOPT|       32     |       1     | 0.19575751E-02 | 0.10168359E+03 |    2.944
 BASOPT|       33     |       1     | 0.14688146E-01 | 0.38761964E+03 |    9.825
 BASOPT|       34     |       1     | 0.10106534E-01 | 0.10907417E+04 |   17.410
 BASOPT|       35     |       1     | 0.12093133E-01 | 0.12466599E+04 |   33.093
 BASOPT|       36     |       1     | 0.63931697E-02 | 0.42629662E+03 |    8.453
 BASOPT|       37     |       1     | 0.64133514E-02 | 0.18584479E+04 |   13.175
 BASOPT|       38     |       1     | 0.55601005E-02 | 0.54030799E+04 |   27.815
 BASOPT|       39     |       1     | 0.10582543E-01 | 0.21254082E+03 |    5.195
 BASOPT|       40     |       1     | 0.11679010E-01 | 0.35115729E+03 |   25.854
 BASOPT|       41     |       1     | 0.63402207E-02 | 0.38941797E+03 |   20.943
 BASOPT|       42     |       1     | 0.30438694E-02 | 0.32070006E+04 |    9.509
 BASOPT|       43     |       1     | 0.48136097E-02 | 0.39660858E+04 |   27.770
 BASOPT|       44     |       1     | 0.29105525E-02 | 0.30165169E+03 |   10.439
 BASOPT| -----------------------------------------------------------------------
 BASOPT| Total residuum value: -.37082745E+04

 BASOPT| Information at iteration number:     500
 BASOPT| Training set | Combination | Rho difference | Condition num. | Time
 BASOPT| -----------------------------------------------------------------------
 BASOPT|        1     |       1     | 0.45201494E-02 | 0.36673565E+04 |   52.155
 BASOPT|        2     |       1     | 0.10496733E-01 | 0.20141499E+04 |   45.434
 BASOPT|        3     |       1     | 0.12452449E-01 | 0.38498904E+04 |  248.522
 BASOPT|        4     |       1     | 0.97959422E-02 | 0.31687431E+04 |   88.886
 BASOPT|        5     |       1     | 0.77343164E-02 | 0.25185120E+03 |   29.735
 BASOPT|        6     |       1     | 0.51903778E-02 | 0.94332726E+03 |   45.919
 BASOPT|        7     |       1     | 0.43910031E-02 | 0.95273927E+04 |   60.122
 BASOPT|        8     |       1     | 0.16907566E-02 | 0.40163753E+03 |   13.207
 BASOPT|        9     |       1     | 0.13551844E-01 | 0.16209292E+04 |   17.284
 BASOPT|       10     |       1     | 0.59398516E-02 | 0.21365760E+04 |   34.489
 BASOPT|       11     |       1     | 0.30674909E-02 | 0.20061849E+04 |   62.616
 BASOPT|       12     |       1     | 0.11021852E-01 | 0.24614379E+04 |  158.514
 BASOPT|       13     |       1     | 0.11698223E-01 | 0.16743487E+04 |   91.099
 BASOPT|       14     |       1     | 0.13550977E-01 | 0.56754912E+04 |  198.484
 BASOPT|       15     |       1     | 0.18164102E-01 | 0.11034782E+05 |  313.355
 BASOPT|       16     |       1     | 0.16107698E-01 | 0.10409107E+05 |  208.963
 BASOPT|       17     |       1     | 0.73064217E-02 | 0.99112039E+03 |   47.439
 BASOPT|       18     |       1     | 0.41048541E-02 | 0.10811625E+04 |   30.638
 BASOPT|       19     |       1     | 0.46454953E-02 | 0.99857222E+03 |   33.297
 BASOPT|       20     |       1     | 0.95493384E-02 | 0.19076282E+04 |   45.451
 BASOPT|       21     |       1     | 0.40159851E-02 | 0.11807493E+04 |   25.234
 BASOPT|       22     |       1     | 0.37797617E-02 | 0.16481503E+04 |   34.257
 BASOPT|       23     |       1     | 0.17475423E-02 | 0.14586603E+04 |   16.655
 BASOPT|       24     |       1     | 0.11076150E-01 | 0.25975377E+03 |    6.274
 BASOPT|       25     |       1     | 0.10551244E-02 | 0.17361890E+03 |    4.327
 BASOPT|       26     |       1     | 0.80202176E-02 | 0.15358079E+04 |   52.386
 BASOPT|       27     |       1     | 0.37976713E-02 | 0.97671379E+03 |   16.446
 BASOPT|       28     |       1     | 0.37623068E-02 | 0.13577398E+04 |   14.602
 BASOPT|       29     |       1     | 0.30258571E-02 | 0.19456543E+04 |    6.454
 BASOPT|       30     |       1     | 0.15263451E-02 | 0.44079851E+04 |    2.451
 BASOPT|       31     |       1     | 0.43940709E-02 | 0.26681627E+03 |   12.041
 BASOPT|       32     |       1     | 0.18970603E-02 | 0.21143517E+03 |    3.645
 BASOPT|       33     |       1     | 0.12289485E-01 | 0.39686740E+03 |   12.122
 BASOPT|       34     |       1     | 0.74188524E-02 | 0.12219414E+04 |   21.655
 BASOPT|       35     |       1     | 0.92536198E-02 | 0.13160136E+04 |   41.314
 BASOPT|       36     |       1     | 0.50741087E-02 | 0.46593582E+03 |   10.441
 BASOPT|       37     |       1     | 0.52311973E-02 | 0.25033905E+04 |   16.297
 BASOPT|       38     |       1     | 0.47924842E-02 | 0.85015027E+04 |   34.422
 BASOPT|       39     |       1     | 0.87656357E-02 | 0.94357390E+02 |    6.452
 BASOPT|       40     |       1     | 0.10050029E-01 | 0.16107857E+03 |   32.238
 BASOPT|       41     |       1     | 0.53316402E-02 | 0.19752318E+03 |   26.141
 BASOPT|       42     |       1     | 0.28638177E-02 | 0.22961361E+04 |   11.812
 BASOPT|       43     |       1     | 0.50283501E-02 | 0.44565243E+04 |   34.654
 BASOPT|       44     |       1     | 0.21879478E-02 | 0.36987518E+03 |   13.034
 BASOPT| -----------------------------------------------------------------------
 BASOPT| Total residuum value: -.37124815E+04

 BASOPT| Information at iteration number:     600
 BASOPT| Training set | Combination | Rho difference | Condition num. | Time
 BASOPT| -----------------------------------------------------------------------
 BASOPT|        1     |       1     | 0.43944395E-02 | 0.15279598E+04 |   62.215
 BASOPT|        2     |       1     | 0.92253257E-02 | 0.89266720E+03 |   54.414
 BASOPT|        3     |       1     | 0.10136985E-01 | 0.26180114E+04 |  297.157
 BASOPT|        4     |       1     | 0.85997799E-02 | 0.13718217E+04 |  106.202
 BASOPT|        5     |       1     | 0.65599784E-02 | 0.21623243E+03 |   35.561
 BASOPT|        6     |       1     | 0.44768980E-02 | 0.86303428E+03 |   54.601
 BASOPT|        7     |       1     | 0.39341477E-02 | 0.63541962E+04 |   71.723
 BASOPT|        8     |       1     | 0.16235790E-02 | 0.24986381E+03 |   15.657
 BASOPT|        9     |       1     | 0.12671578E-01 | 0.24459121E+04 |   20.521
 BASOPT|       10     |       1     | 0.55840174E-02 | 0.25836096E+04 |   40.827
 BASOPT|       11     |       1     | 0.29854416E-02 | 0.18803107E+04 |   74.537
 BASOPT|       12     |       1     | 0.10114346E-01 | 0.28262380E+04 |  188.053
 BASOPT|       13     |       1     | 0.11004803E-01 | 0.21007892E+04 |  108.190
 BASOPT|       14     |       1     | 0.12522571E-01 | 0.50844712E+04 |  235.561
 BASOPT|       15     |       1     | 0.17033568E-01 | 0.79834890E+04 |  372.540
 BASOPT|       16     |       1     | 0.14996504E-01 | 0.74041164E+04 |  250.662
 BASOPT|       17     |       1     | 0.65736219E-02 | 0.10204762E+04 |   56.696
 BASOPT|       18     |       1     | 0.39217847E-02 | 0.10244982E+04 |   36.556
 BASOPT|       19     |       1     | 0.42767747E-02 | 0.98842511E+03 |   39.653
 BASOPT|       20     |       1     | 0.87614790E-02 | 0.25908962E+04 |   54.059
 BASOPT|       21     |       1     | 0.37633017E-02 | 0.11225575E+04 |   29.883
 BASOPT|       22     |       1     | 0.36418500E-02 | 0.16499046E+04 |   40.682
 BASOPT|       23     |       1     | 0.17463938E-02 | 0.13310873E+04 |   19.792
 BASOPT|       24     |       1     | 0.10095900E-01 | 0.29926528E+03 |    7.414
 BASOPT|       25     |       1     | 0.11330149E-02 | 0.17166251E+03 |    5.188
 BASOPT|       26     |       1     | 0.73040204E-02 | 0.15369399E+04 |   62.424
 BASOPT|       27     |       1     | 0.33268855E-02 | 0.94403530E+03 |   19.462
 BASOPT|       28     |       1     | 0.38610648E-02 | 0.13254697E+04 |   17.408
 BASOPT|       29     |       1     | 0.31180482E-02 | 0.17998745E+04 |    7.679
 BASOPT|       30     |       1     | 0.15981885E-02 | 0.32773269E+04 |    2.933
 BASOPT|       31     |       1     | 0.43071325E-02 | 0.26814749E+03 |   14.337
 BASOPT|       32     |       1     | 0.17845686E-02 | 0.20505875E+03 |    4.344
 BASOPT|       33     |       1     | 0.12147145E-01 | 0.45823173E+03 |   14.430
 BASOPT|       34     |       1     | 0.61897660E-02 | 0.14018820E+04 |   25.946
 BASOPT|       35     |       1     | 0.79685333E-02 | 0.16397474E+04 |   49.527
 BASOPT|       36     |       1     | 0.43954232E-02 | 0.51633609E+03 |   12.461
 BASOPT|       37     |       1     | 0.45837198E-02 | 0.21612645E+04 |   19.464
 BASOPT|       38     |       1     | 0.43102471E-02 | 0.57463889E+04 |   41.026
 BASOPT|       39     |       1     | 0.83170868E-02 | 0.91497338E+02 |    7.768
 BASOPT|       40     |       1     | 0.83440543E-02 | 0.15027282E+03 |   38.724
 BASOPT|       41     |       1     | 0.49603029E-02 | 0.19562169E+03 |   31.368
 BASOPT|       42     |       1     | 0.25932100E-02 | 0.20753975E+04 |   14.126
 BASOPT|       43     |       1     | 0.45981615E-02 | 0.34916358E+04 |   41.487
 BASOPT|       44     |       1     | 0.23195995E-02 | 0.33361337E+03 |   15.646
 BASOPT| -----------------------------------------------------------------------
 BASOPT| Total residuum value: -.37147529E+04

 BASOPT| Information at iteration number:     700
 BASOPT| Training set | Combination | Rho difference | Condition num. | Time
 BASOPT| -----------------------------------------------------------------------
 BASOPT|        1     |       1     | 0.31655624E-02 | 0.24962970E+04 |   72.500
 BASOPT|        2     |       1     | 0.80354001E-02 | 0.13247070E+04 |   63.875
 BASOPT|        3     |       1     | 0.94176071E-02 | 0.23891864E+04 |  346.343
 BASOPT|        4     |       1     | 0.63011692E-02 | 0.22111124E+04 |  123.954
 BASOPT|        5     |       1     | 0.61378971E-02 | 0.18885633E+03 |   41.594
 BASOPT|        6     |       1     | 0.38020447E-02 | 0.67555455E+03 |   63.407
 BASOPT|        7     |       1     | 0.35676850E-02 | 0.51391333E+04 |   83.511
 BASOPT|        8     |       1     | 0.12536650E-02 | 0.28368319E+03 |   18.237
 BASOPT|        9     |       1     | 0.13025081E-01 | 0.11989462E+04 |   23.766
 BASOPT|       10     |       1     | 0.53406305E-02 | 0.15139225E+04 |   47.173
 BASOPT|       11     |       1     | 0.25262904E-02 | 0.16052134E+04 |   86.466
 BASOPT|       12     |       1     | 0.95894460E-02 | 0.17005586E+04 |  217.607
 BASOPT|       13     |       1     | 0.97562049E-02 | 0.12227566E+04 |  125.324
 BASOPT|       14     |       1     | 0.12152646E-01 | 0.33921522E+04 |  272.664
 BASOPT|       15     |       1     | 0.16696681E-01 | 0.58191153E+04 |  431.654
 BASOPT|       16     |       1     | 0.14783226E-01 | 0.53932274E+04 |  292.194
 BASOPT|       17     |       1     | 0.60992171E-02 | 0.70364438E+03 |   65.930
 BASOPT|       18     |       1     | 0.34547620E-02 | 0.88064179E+03 |   42.487
 BASOPT|       19     |       1     | 0.37064772E-02 | 0.82207854E+03 |   45.993
 BASOPT|       20     |       1     | 0.85412478E-02 | 0.13711365E+04 |   62.644
 BASOPT|       21     |       1     | 0.33782469E-02 | 0.98799718E+03 |   34.498
 BASOPT|       22     |       1     | 0.31933604E-02 | 0.13163680E+04 |   47.170
 BASOPT|       23     |       1     | 0.14950063E-02 | 0.11375154E+04 |   22.932
 BASOPT|       24     |       1     | 0.10597719E-01 | 0.21005173E+03 |    8.554
 BASOPT|       25     |       1     | 0.10614311E-02 | 0.16639164E+03 |    6.050
 BASOPT|       26     |       1     | 0.63359070E-02 | 0.11749054E+04 |   72.496
 BASOPT|       27     |       1     | 0.29269747E-02 | 0.71052827E+03 |   22.482
 BASOPT|       28     |       1     | 0.35802761E-02 | 0.11045560E+04 |   20.217
 BASOPT|       29     |       1     | 0.29473389E-02 | 0.14736491E+04 |    8.911
 BASOPT|       30     |       1     | 0.13823022E-02 | 0.31675438E+04 |    3.415
 BASOPT|       31     |       1     | 0.40479149E-02 | 0.22275095E+03 |   16.623
 BASOPT|       32     |       1     | 0.18035453E-02 | 0.21122310E+03 |    5.043
 BASOPT|       33     |       1     | 0.12601825E-01 | 0.33282394E+03 |   16.730
 BASOPT|       34     |       1     | 0.55432215E-02 | 0.12718358E+04 |   30.225
 BASOPT|       35     |       1     | 0.70901794E-02 | 0.14999278E+04 |   57.677
 BASOPT|       36     |       1     | 0.39884117E-02 | 0.49976492E+03 |   14.475
 BASOPT|       37     |       1     | 0.41369970E-02 | 0.21484887E+04 |   22.508
 BASOPT|       38     |       1     | 0.41759866E-02 | 0.52547012E+04 |   47.576
 BASOPT|       39     |       1     | 0.75737224E-02 | 0.91569482E+02 |    8.999
 BASOPT|       40     |       1     | 0.79109505E-02 | 0.15107519E+03 |   44.827
 BASOPT|       41     |       1     | 0.46201785E-02 | 0.21724807E+03 |   36.578
 BASOPT|       42     |       1     | 0.26349846E-02 | 0.22631191E+04 |   16.425
 BASOPT|       43     |       1     | 0.44506088E-02 | 0.31195752E+04 |   48.209
 BASOPT|       44     |       1     | 0.20436386E-02 | 0.31397208E+03 |   18.259
 BASOPT| -----------------------------------------------------------------------
 BASOPT| Total residuum value: -.37161462E+04

 BASOPT| Information at iteration number:     800
 BASOPT| Training set | Combination | Rho difference | Condition num. | Time
 BASOPT| -----------------------------------------------------------------------
 BASOPT|        1     |       1     | 0.29874786E-02 | 0.18133254E+04 |   82.456
 BASOPT|        2     |       1     | 0.67963154E-02 | 0.98464354E+03 |   72.675
 BASOPT|        3     |       1     | 0.80925281E-02 | 0.21728758E+04 |  394.908
 BASOPT|        4     |       1     | 0.51583160E-02 | 0.15982761E+04 |  141.174
 BASOPT|        5     |       1     | 0.53137074E-02 | 0.18578546E+03 |   47.376
 BASOPT|        6     |       1     | 0.36304480E-02 | 0.65669325E+03 |   72.011
 BASOPT|        7     |       1     | 0.34938111E-02 | 0.49671592E+04 |   95.023
 BASOPT|        8     |       1     | 0.12111136E-02 | 0.27646766E+03 |   20.603
 BASOPT|        9     |       1     | 0.13450738E-01 | 0.93173501E+03 |   27.007
 BASOPT|       10     |       1     | 0.56697272E-02 | 0.12297154E+04 |   53.491
 BASOPT|       11     |       1     | 0.24677919E-02 | 0.14302104E+04 |   98.341
 BASOPT|       12     |       1     | 0.92772276E-02 | 0.14533289E+04 |  246.942
 BASOPT|       13     |       1     | 0.97944106E-02 | 0.11473053E+04 |  142.453
 BASOPT|       14     |       1     | 0.12127199E-01 | 0.26142946E+04 |  309.512
 BASOPT|       15     |       1     | 0.16539282E-01 | 0.46970603E+04 |  490.469
 BASOPT|       16     |       1     | 0.15100819E-01 | 0.43074787E+04 |  333.963
 BASOPT|       17     |       1     | 0.54603469E-02 | 0.67036837E+03 |   75.205
 BASOPT|       18     |       1     | 0.31547978E-02 | 0.84533459E+03 |   48.364
 BASOPT|       19     |       1     | 0.35054715E-02 | 0.79430346E+03 |   52.355
 BASOPT|       20     |       1     | 0.86976477E-02 | 0.11309227E+04 |   71.217
 BASOPT|       21     |       1     | 0.33034212E-02 | 0.95748936E+03 |   39.113
 BASOPT|       22     |       1     | 0.29736339E-02 | 0.12749151E+04 |   53.601
 BASOPT|       23     |       1     | 0.14923912E-02 | 0.10286947E+04 |   26.055
 BASOPT|       24     |       1     | 0.10579144E-01 | 0.21202028E+03 |    9.684
 BASOPT|       25     |       1     | 0.10132504E-02 | 0.16542995E+03 |    6.911
 BASOPT|       26     |       1     | 0.59382106E-02 | 0.11606615E+04 |   82.441
 BASOPT|       27     |       1     | 0.30505930E-02 | 0.73880103E+03 |   25.495
 BASOPT|       28     |       1     | 0.30268728E-02 | 0.10358455E+04 |   22.993
 BASOPT|       29     |       1     | 0.24292117E-02 | 0.12532684E+04 |   10.119
 BASOPT|       30     |       1     | 0.13711251E-02 | 0.24135095E+04 |    3.898
 BASOPT|       31     |       1     | 0.38290765E-02 | 0.23832749E+03 |   18.900
 BASOPT|       32     |       1     | 0.16396116E-02 | 0.25500753E+03 |    5.742
 BASOPT|       33     |       1     | 0.11643807E-01 | 0.36018836E+03 |   19.019
 BASOPT|       34     |       1     | 0.56251113E-02 | 0.10821261E+04 |   34.466
 BASOPT|       35     |       1     | 0.66681041E-02 | 0.12505274E+04 |   65.893
 BASOPT|       36     |       1     | 0.42238766E-02 | 0.43439734E+03 |   16.478
 BASOPT|       37     |       1     | 0.40085265E-02 | 0.18596510E+04 |   25.562
 BASOPT|       38     |       1     | 0.39738616E-02 | 0.44426685E+04 |   54.091
 BASOPT|       39     |       1     | 0.72358506E-02 | 0.92697851E+02 |   10.243
 BASOPT|       40     |       1     | 0.73933436E-02 | 0.15109814E+03 |   50.947
 BASOPT|       41     |       1     | 0.43972441E-02 | 0.21255156E+03 |   41.805
 BASOPT|       42     |       1     | 0.25178578E-02 | 0.17453276E+04 |   18.733
 BASOPT|       43     |       1     | 0.42703194E-02 | 0.28975942E+04 |   55.097
 BASOPT|       44     |       1     | 0.18873138E-02 | 0.30260367E+03 |   20.859
 BASOPT| -----------------------------------------------------------------------
 BASOPT| Total residuum value: -.37171044E+04

 BASOPT| Information at iteration number:     900
 BASOPT| Training set | Combination | Rho difference | Condition num. | Time
 BASOPT| -----------------------------------------------------------------------
 BASOPT|        1     |       1     | 0.22797883E-02 | 0.46559697E+04 |   92.509
 BASOPT|        2     |       1     | 0.68062505E-02 | 0.32372941E+04 |   81.679
 BASOPT|        3     |       1     | 0.71162449E-02 | 0.31415045E+04 |  443.569
 BASOPT|        4     |       1     | 0.52491373E-02 | 0.49952073E+04 |  158.560
 BASOPT|        5     |       1     | 0.45146151E-02 | 0.14756402E+03 |   53.243
 BASOPT|        6     |       1     | 0.35124550E-02 | 0.89793439E+03 |   80.677
 BASOPT|        7     |       1     | 0.29144156E-02 | 0.39711392E+04 |  106.540
 BASOPT|        8     |       1     | 0.92896252E-03 | 0.19373628E+03 |   23.057
 BASOPT|        9     |       1     | 0.10279004E-01 | 0.10070668E+04 |   30.291
 BASOPT|       10     |       1     | 0.49642101E-02 | 0.18574971E+04 |   59.907
 BASOPT|       11     |       1     | 0.25246212E-02 | 0.19692757E+04 |  110.275
 BASOPT|       12     |       1     | 0.83346209E-02 | 0.31224601E+04 |  276.527
 BASOPT|       13     |       1     | 0.86176921E-02 | 0.17636575E+04 |  159.545
 BASOPT|       14     |       1     | 0.10066050E-01 | 0.50045976E+04 |  346.929
 BASOPT|       15     |       1     | 0.13096528E-01 | 0.98599194E+04 |  549.506
 BASOPT|       16     |       1     | 0.11920282E-01 | 0.88514097E+04 |  375.525
 BASOPT|       17     |       1     | 0.51531622E-02 | 0.98869926E+03 |   84.478
 BASOPT|       18     |       1     | 0.30344124E-02 | 0.12321092E+04 |   54.256
 BASOPT|       19     |       1     | 0.33693429E-02 | 0.12023875E+04 |   58.696
 BASOPT|       20     |       1     | 0.73420397E-02 | 0.14012834E+04 |   79.762
 BASOPT|       21     |       1     | 0.32420355E-02 | 0.13483109E+04 |   43.686
 BASOPT|       22     |       1     | 0.29467017E-02 | 0.15430730E+04 |   60.127
 BASOPT|       23     |       1     | 0.16035671E-02 | 0.14128506E+04 |   29.173
 BASOPT|       24     |       1     | 0.81057366E-02 | 0.29561202E+03 |   10.808
 BASOPT|       25     |       1     | 0.10589115E-02 | 0.15620471E+03 |    7.775
 BASOPT|       26     |       1     | 0.56354264E-02 | 0.16052196E+04 |   92.422
 BASOPT|       27     |       1     | 0.29357991E-02 | 0.98397133E+03 |   28.503
 BASOPT|       28     |       1     | 0.29809202E-02 | 0.95122092E+03 |   25.746
 BASOPT|       29     |       1     | 0.23745176E-02 | 0.11810346E+04 |   11.322
 BASOPT|       30     |       1     | 0.10228014E-02 | 0.27515981E+04 |    4.380
 BASOPT|       31     |       1     | 0.40858149E-02 | 0.36106459E+03 |   21.110
 BASOPT|       32     |       1     | 0.14629437E-02 | 0.21136616E+03 |    6.442
 BASOPT|       33     |       1     | 0.89018327E-02 | 0.48070632E+03 |   21.253
 BASOPT|       34     |       1     | 0.51648131E-02 | 0.10791087E+04 |   38.634
 BASOPT|       35     |       1     | 0.61840848E-02 | 0.12899116E+04 |   73.995
 BASOPT|       36     |       1     | 0.37195035E-02 | 0.45906779E+03 |   18.408
 BASOPT|       37     |       1     | 0.36502178E-02 | 0.18132799E+04 |   28.422
 BASOPT|       38     |       1     | 0.39272294E-02 | 0.40589420E+04 |   60.574
 BASOPT|       39     |       1     | 0.64165080E-02 | 0.12801663E+03 |   11.296
 BASOPT|       40     |       1     | 0.62561087E-02 | 0.20673726E+03 |   56.782
 BASOPT|       41     |       1     | 0.42746567E-02 | 0.24438123E+03 |   46.925
 BASOPT|       42     |       1     | 0.24692682E-02 | 0.20020413E+04 |   20.961
 BASOPT|       43     |       1     | 0.39735325E-02 | 0.25494761E+04 |   61.855
 BASOPT|       44     |       1     | 0.19727812E-02 | 0.27416018E+03 |   23.454
 BASOPT| -----------------------------------------------------------------------
 BASOPT| Total residuum value: -.37182848E+04

 BASOPT| Information at iteration number:    1000
 BASOPT| Training set | Combination | Rho difference | Condition num. | Time
 BASOPT| -----------------------------------------------------------------------
 BASOPT|        1     |       1     | 0.17726682E-02 | 0.19106178E+04 |  102.803
 BASOPT|        2     |       1     | 0.68805120E-02 | 0.18897298E+04 |   91.070
 BASOPT|        3     |       1     | 0.63023355E-02 | 0.26856980E+04 |  492.871
 BASOPT|        4     |       1     | 0.66916476E-02 | 0.20197204E+04 |  176.506
 BASOPT|        5     |       1     | 0.39993373E-02 | 0.13484082E+03 |   59.322
 BASOPT|        6     |       1     | 0.37134386E-02 | 0.75768769E+03 |   89.681
 BASOPT|        7     |       1     | 0.26205389E-02 | 0.35697326E+04 |  118.216
 BASOPT|        8     |       1     | 0.70052853E-03 | 0.13754191E+03 |   25.671
 BASOPT|        9     |       1     | 0.55020838E-02 | 0.38121270E+04 |   33.617
 BASOPT|       10     |       1     | 0.31587434E-02 | 0.50754201E+04 |   66.439
 BASOPT|       11     |       1     | 0.18811789E-02 | 0.35181155E+04 |  122.377
 BASOPT|       12     |       1     | 0.66993470E-02 | 0.76469957E+04 |  306.429
 BASOPT|       13     |       1     | 0.61946580E-02 | 0.59510329E+04 |  177.108
 BASOPT|       14     |       1     | 0.68725099E-02 | 0.11605199E+05 |  384.797
 BASOPT|       15     |       1     | 0.81305592E-02 | 0.27922758E+05 |  609.208
 BASOPT|       16     |       1     | 0.70368148E-02 | 0.24374593E+05 |  416.960
 BASOPT|       17     |       1     | 0.47546749E-02 | 0.50556063E+03 |   93.748
 BASOPT|       18     |       1     | 0.27279201E-02 | 0.20259319E+04 |   60.164
 BASOPT|       19     |       1     | 0.29840492E-02 | 0.28871766E+04 |   65.146
 BASOPT|       20     |       1     | 0.54882694E-02 | 0.52770954E+04 |   88.384
 BASOPT|       21     |       1     | 0.28946937E-02 | 0.26999523E+04 |   48.267
 BASOPT|       22     |       1     | 0.25553198E-02 | 0.25633468E+04 |   66.558
 BASOPT|       23     |       1     | 0.11528469E-02 | 0.22751979E+04 |   32.383
 BASOPT|       24     |       1     | 0.67130979E-02 | 0.21336399E+03 |   11.955
 BASOPT|       25     |       1     | 0.10580800E-02 | 0.14887863E+03 |    8.640
 BASOPT|       26     |       1     | 0.53187644E-02 | 0.18092442E+04 |  102.481
 BASOPT|       27     |       1     | 0.27916680E-02 | 0.19813481E+04 |   31.550
 BASOPT|       28     |       1     | 0.28358059E-02 | 0.90390464E+03 |   28.465
 BASOPT|       29     |       1     | 0.22200310E-02 | 0.10188696E+04 |   12.509
 BASOPT|       30     |       1     | 0.88525951E-03 | 0.23368975E+04 |    4.862
 BASOPT|       31     |       1     | 0.34949836E-02 | 0.52364410E+03 |   23.313
 BASOPT|       32     |       1     | 0.14640683E-02 | 0.24196793E+03 |    7.140
 BASOPT|       33     |       1     | 0.58661312E-02 | 0.64626965E+03 |   23.446
 BASOPT|       34     |       1     | 0.47986807E-02 | 0.91812077E+03 |   42.718
 BASOPT|       35     |       1     | 0.56233193E-02 | 0.10975566E+04 |   81.941
 BASOPT|       36     |       1     | 0.36985378E-02 | 0.42923544E+03 |   20.282
 BASOPT|       37     |       1     | 0.35304984E-02 | 0.15795409E+04 |   31.152
 BASOPT|       38     |       1     | 0.39255693E-02 | 0.35811410E+04 |   66.943
 BASOPT|       39     |       1     | 0.56856974E-02 | 0.13574290E+03 |   12.284
 BASOPT|       40     |       1     | 0.57321846E-02 | 0.21242382E+03 |   62.490
 BASOPT|       41     |       1     | 0.41646266E-02 | 0.24922818E+03 |   52.007
 BASOPT|       42     |       1     | 0.24901083E-02 | 0.16686447E+04 |   23.158
 BASOPT|       43     |       1     | 0.39824548E-02 | 0.23333779E+04 |   68.448
 BASOPT|       44     |       1     | 0.19732035E-02 | 0.24278831E+03 |   26.031
 BASOPT| -----------------------------------------------------------------------
 BASOPT| Total residuum value: -.37194877E+04

 BASOPT| Information at iteration number:    1100
 BASOPT| Training set | Combination | Rho difference | Condition num. | Time
 BASOPT| -----------------------------------------------------------------------
 BASOPT|        1     |       1     | 0.19436421E-02 | 0.19540072E+04 |  112.886
 BASOPT|        2     |       1     | 0.51654630E-02 | 0.17423594E+04 |  100.021
 BASOPT|        3     |       1     | 0.60018697E-02 | 0.29222923E+04 |  541.613
 BASOPT|        4     |       1     | 0.37312358E-02 | 0.17906921E+04 |  194.008
 BASOPT|        5     |       1     | 0.38284123E-02 | 0.22800195E+03 |   65.222
 BASOPT|        6     |       1     | 0.36057564E-02 | 0.73699557E+03 |   98.502
 BASOPT|        7     |       1     | 0.30660553E-02 | 0.29552060E+04 |  129.701
 BASOPT|        8     |       1     | 0.85508878E-03 | 0.48047952E+03 |   28.150
 BASOPT|        9     |       1     | 0.48776535E-02 | 0.32325425E+04 |   36.972
 BASOPT|       10     |       1     | 0.28831421E-02 | 0.43830984E+04 |   72.994
 BASOPT|       11     |       1     | 0.18137340E-02 | 0.31537869E+04 |  134.456
 BASOPT|       12     |       1     | 0.63788037E-02 | 0.75504261E+04 |  336.424
 BASOPT|       13     |       1     | 0.57692997E-02 | 0.53953314E+04 |  194.789
 BASOPT|       14     |       1     | 0.63482274E-02 | 0.11778505E+05 |  422.841
 BASOPT|       15     |       1     | 0.73424065E-02 | 0.29595804E+05 |  668.883
 BASOPT|       16     |       1     | 0.62997182E-02 | 0.25294817E+05 |  458.460
 BASOPT|       17     |       1     | 0.44587261E-02 | 0.47685162E+03 |  103.046
 BASOPT|       18     |       1     | 0.26097790E-02 | 0.18555176E+04 |   66.074
 BASOPT|       19     |       1     | 0.28393313E-02 | 0.26061591E+04 |   71.644
 BASOPT|       20     |       1     | 0.51780594E-02 | 0.45574766E+04 |   97.063
 BASOPT|       21     |       1     | 0.27972985E-02 | 0.24452101E+04 |   52.873
 BASOPT|       22     |       1     | 0.24587931E-02 | 0.23141127E+04 |   73.012
 BASOPT|       23     |       1     | 0.11034740E-02 | 0.20523056E+04 |   35.595
 BASOPT|       24     |       1     | 0.65410819E-02 | 0.20844916E+03 |   13.105
 BASOPT|       25     |       1     | 0.10616410E-02 | 0.14996286E+03 |    9.505
 BASOPT|       26     |       1     | 0.49886285E-02 | 0.17070942E+04 |  112.551
 BASOPT|       27     |       1     | 0.25544440E-02 | 0.18473160E+04 |   34.614
 BASOPT|       28     |       1     | 0.28177949E-02 | 0.85646761E+03 |   31.179
 BASOPT|       29     |       1     | 0.21966959E-02 | 0.93196839E+03 |   13.690
 BASOPT|       30     |       1     | 0.86436099E-03 | 0.20364290E+04 |    5.346
 BASOPT|       31     |       1     | 0.33414552E-02 | 0.47079479E+03 |   25.549
 BASOPT|       32     |       1     | 0.13606399E-02 | 0.22718783E+03 |    7.840
 BASOPT|       33     |       1     | 0.57611825E-02 | 0.56871222E+03 |   25.676
 BASOPT|       34     |       1     | 0.44712669E-02 | 0.98041477E+03 |   46.799
 BASOPT|       35     |       1     | 0.52824052E-02 | 0.11994611E+04 |   89.980
 BASOPT|       36     |       1     | 0.34834964E-02 | 0.43757025E+03 |   22.151
 BASOPT|       37     |       1     | 0.34112730E-02 | 0.13967938E+04 |   33.872
 BASOPT|       38     |       1     | 0.39354433E-02 | 0.28305664E+04 |   73.254
 BASOPT|       39     |       1     | 0.56844376E-02 | 0.12724332E+03 |   13.268
 BASOPT|       40     |       1     | 0.58230706E-02 | 0.20182015E+03 |   68.202
 BASOPT|       41     |       1     | 0.40937220E-02 | 0.23641232E+03 |   57.094
 BASOPT|       42     |       1     | 0.25143793E-02 | 0.15092871E+04 |   25.343
 BASOPT|       43     |       1     | 0.38544369E-02 | 0.19236191E+04 |   75.150
 BASOPT|       44     |       1     | 0.19582799E-02 | 0.24494004E+03 |   28.604
 BASOPT| -----------------------------------------------------------------------
 BASOPT| Total residuum value: -.37201451E+04

 BASOPT| Information at iteration number:    1200
 BASOPT| Training set | Combination | Rho difference | Condition num. | Time
 BASOPT| -----------------------------------------------------------------------
 BASOPT|        1     |       1     | 0.14924480E-02 | 0.21547291E+04 |  122.777
 BASOPT|        2     |       1     | 0.51082862E-02 | 0.17929146E+04 |  108.606
 BASOPT|        3     |       1     | 0.52856576E-02 | 0.26448232E+04 |  589.858
 BASOPT|        4     |       1     | 0.40163017E-02 | 0.19438079E+04 |  211.098
 BASOPT|        5     |       1     | 0.34638511E-02 | 0.18980096E+03 |   70.935
 BASOPT|        6     |       1     | 0.31381535E-02 | 0.61745416E+03 |  107.159
 BASOPT|        7     |       1     | 0.26345775E-02 | 0.26463199E+04 |  141.015
 BASOPT|        8     |       1     | 0.63273027E-03 | 0.31079466E+03 |   30.503
 BASOPT|        9     |       1     | 0.34028956E-02 | 0.20445400E+04 |   40.326
 BASOPT|       10     |       1     | 0.22454803E-02 | 0.57735086E+04 |   79.542
 BASOPT|       11     |       1     | 0.16609300E-02 | 0.33221609E+04 |  146.579
 BASOPT|       12     |       1     | 0.57858631E-02 | 0.10951772E+05 |  366.631
 BASOPT|       13     |       1     | 0.48149563E-02 | 0.43453311E+04 |  212.472
 BASOPT|       14     |       1     | 0.53812140E-02 | 0.11242802E+05 |  461.104
 BASOPT|       15     |       1     | 0.60438879E-02 | 0.33831706E+05 |  728.699
 BASOPT|       16     |       1     | 0.49557687E-02 | 0.28457203E+05 |  499.782
 BASOPT|       17     |       1     | 0.41072882E-02 | 0.39244421E+03 |  112.383
 BASOPT|       18     |       1     | 0.23071596E-02 | 0.14368096E+04 |   71.980
 BASOPT|       19     |       1     | 0.26963266E-02 | 0.23220925E+04 |   78.175
 BASOPT|       20     |       1     | 0.45877800E-02 | 0.35887278E+04 |  105.785
 BASOPT|       21     |       1     | 0.25741812E-02 | 0.21091129E+04 |   57.498
 BASOPT|       22     |       1     | 0.23127164E-02 | 0.20464784E+04 |   79.492
 BASOPT|       23     |       1     | 0.96942598E-03 | 0.16208050E+04 |   38.816
 BASOPT|       24     |       1     | 0.58357672E-02 | 0.17557594E+03 |   14.256
 BASOPT|       25     |       1     | 0.99215144E-03 | 0.14148375E+03 |   10.370
 BASOPT|       26     |       1     | 0.47164909E-02 | 0.16394506E+04 |  122.624
 BASOPT|       27     |       1     | 0.23439056E-02 | 0.13985565E+04 |   37.676
 BASOPT|       28     |       1     | 0.27127595E-02 | 0.76884534E+03 |   33.896
 BASOPT|       29     |       1     | 0.20974787E-02 | 0.81782095E+03 |   14.872
 BASOPT|       30     |       1     | 0.70030014E-03 | 0.16318837E+04 |    5.828
 BASOPT|       31     |       1     | 0.28767977E-02 | 0.43894199E+03 |   27.795
 BASOPT|       32     |       1     | 0.13331962E-02 | 0.24962292E+03 |    8.539
 BASOPT|       33     |       1     | 0.50137314E-02 | 0.55838124E+03 |   27.920
 BASOPT|       34     |       1     | 0.42818622E-02 | 0.94181689E+03 |   50.874
 BASOPT|       35     |       1     | 0.49440970E-02 | 0.11424260E+04 |   98.080
 BASOPT|       36     |       1     | 0.34647066E-02 | 0.42358411E+03 |   24.019
 BASOPT|       37     |       1     | 0.33336677E-02 | 0.13010828E+04 |   36.598
 BASOPT|       38     |       1     | 0.38115305E-02 | 0.25107175E+04 |   79.500
 BASOPT|       39     |       1     | 0.54824381E-02 | 0.12792369E+03 |   14.251
 BASOPT|       40     |       1     | 0.59423673E-02 | 0.20552861E+03 |   73.916
 BASOPT|       41     |       1     | 0.40140699E-02 | 0.23261543E+03 |   62.178
 BASOPT|       42     |       1     | 0.24284566E-02 | 0.13286481E+04 |   27.530
 BASOPT|       43     |       1     | 0.37398510E-02 | 0.17742411E+04 |   81.935
 BASOPT|       44     |       1     | 0.18091144E-02 | 0.23585076E+03 |   31.188
 BASOPT| -----------------------------------------------------------------------
 BASOPT| Total residuum value: -.37207958E+04

 BASOPT| Information at iteration number:    1300
 BASOPT| Training set | Combination | Rho difference | Condition num. | Time
 BASOPT| -----------------------------------------------------------------------
 BASOPT|        1     |       1     | 0.14415830E-02 | 0.25672636E+04 |  132.653
 BASOPT|        2     |       1     | 0.43335446E-02 | 0.16333165E+04 |  117.164
 BASOPT|        3     |       1     | 0.49680166E-02 | 0.31872807E+04 |  638.071
 BASOPT|        4     |       1     | 0.26517428E-02 | 0.19532208E+04 |  228.189
 BASOPT|        5     |       1     | 0.32000920E-02 | 0.28721699E+03 |   76.647
 BASOPT|        6     |       1     | 0.28159351E-02 | 0.10655511E+04 |  115.816
 BASOPT|        7     |       1     | 0.29080137E-02 | 0.27556274E+04 |  152.324
 BASOPT|        8     |       1     | 0.70164588E-03 | 0.67307434E+03 |   32.850
 BASOPT|        9     |       1     | 0.38276993E-02 | 0.21574381E+04 |   43.679
 BASOPT|       10     |       1     | 0.24413013E-02 | 0.35199873E+04 |   86.083
 BASOPT|       11     |       1     | 0.17634729E-02 | 0.23762611E+04 |  158.715
 BASOPT|       12     |       1     | 0.54326738E-02 | 0.72980874E+04 |  396.763
 BASOPT|       13     |       1     | 0.45206026E-02 | 0.40394907E+04 |  230.149
 BASOPT|       14     |       1     | 0.52336928E-02 | 0.10187144E+05 |  499.396
 BASOPT|       15     |       1     | 0.60529846E-02 | 0.17774557E+05 |  788.431
 BASOPT|       16     |       1     | 0.50983246E-02 | 0.15417617E+05 |  541.142
 BASOPT|       17     |       1     | 0.38412542E-02 | 0.55607728E+03 |  121.726
 BASOPT|       18     |       1     | 0.22868191E-02 | 0.14298178E+04 |   77.894
 BASOPT|       19     |       1     | 0.25714213E-02 | 0.19027129E+04 |   84.687
 BASOPT|       20     |       1     | 0.44614936E-02 | 0.32697076E+04 |  114.512
 BASOPT|       21     |       1     | 0.24708217E-02 | 0.19489311E+04 |   62.128
 BASOPT|       22     |       1     | 0.22928928E-02 | 0.16952446E+04 |   86.051
 BASOPT|       23     |       1     | 0.10632830E-02 | 0.15073702E+04 |   42.033
 BASOPT|       24     |       1     | 0.57976941E-02 | 0.18575154E+03 |   15.409
 BASOPT|       25     |       1     | 0.97549245E-03 | 0.13849862E+03 |   11.235
 BASOPT|       26     |       1     | 0.44284934E-02 | 0.13478113E+04 |  132.694
 BASOPT|       27     |       1     | 0.22072329E-02 | 0.13346134E+04 |   40.732
 BASOPT|       28     |       1     | 0.25700092E-02 | 0.82949681E+03 |   36.610
 BASOPT|       29     |       1     | 0.19628323E-02 | 0.72372601E+03 |   16.056
 BASOPT|       30     |       1     | 0.70205055E-03 | 0.13888363E+04 |    6.310
 BASOPT|       31     |       1     | 0.25812453E-02 | 0.55313836E+03 |   30.038
 BASOPT|       32     |       1     | 0.12677344E-02 | 0.27432771E+03 |    9.239
 BASOPT|       33     |       1     | 0.48989973E-02 | 0.56549193E+03 |   30.159
 BASOPT|       34     |       1     | 0.40142285E-02 | 0.10655747E+04 |   54.945
 BASOPT|       35     |       1     | 0.47215585E-02 | 0.13155768E+04 |  106.186
 BASOPT|       36     |       1     | 0.33753532E-02 | 0.45801139E+03 |   25.888
 BASOPT|       37     |       1     | 0.32301056E-02 | 0.13047476E+04 |   39.320
 BASOPT|       38     |       1     | 0.35565697E-02 | 0.24848554E+04 |   85.790
 BASOPT|       39     |       1     | 0.49923327E-02 | 0.16131360E+03 |   15.236
 BASOPT|       40     |       1     | 0.55032935E-02 | 0.25861278E+03 |   79.634
 BASOPT|       41     |       1     | 0.39681109E-02 | 0.28981164E+03 |   67.267
 BASOPT|       42     |       1     | 0.22425948E-02 | 0.12350289E+04 |   29.722
 BASOPT|       43     |       1     | 0.36139341E-02 | 0.18134560E+04 |   88.722
 BASOPT|       44     |       1     | 0.18012297E-02 | 0.24940541E+03 |   33.781
 BASOPT| -----------------------------------------------------------------------
 BASOPT| Total residuum value: -.37215648E+04

 BASOPT| Information at iteration number:    1400
 BASOPT| Training set | Combination | Rho difference | Condition num. | Time
 BASOPT| -----------------------------------------------------------------------
 BASOPT|        1     |       1     | 0.14965903E-02 | 0.28301751E+04 |  142.465
 BASOPT|        2     |       1     | 0.41057940E-02 | 0.17333703E+04 |  125.654
 BASOPT|        3     |       1     | 0.47185170E-02 | 0.30895569E+04 |  686.018
 BASOPT|        4     |       1     | 0.25119572E-02 | 0.21184260E+04 |  244.941
 BASOPT|        5     |       1     | 0.30071517E-02 | 0.28513227E+03 |   82.242
 BASOPT|        6     |       1     | 0.27962606E-02 | 0.95972109E+03 |  124.450
 BASOPT|        7     |       1     | 0.28441514E-02 | 0.26369859E+04 |  163.597
 BASOPT|        8     |       1     | 0.74773581E-03 | 0.60920405E+03 |   35.182
 BASOPT|        9     |       1     | 0.33711547E-02 | 0.18607983E+04 |   47.024
 BASOPT|       10     |       1     | 0.23330393E-02 | 0.41336724E+04 |   92.625
 BASOPT|       11     |       1     | 0.18042547E-02 | 0.25034699E+04 |  170.788
 BASOPT|       12     |       1     | 0.53629537E-02 | 0.77996296E+04 |  426.762
 BASOPT|       13     |       1     | 0.44161836E-02 | 0.38488079E+04 |  247.803
 BASOPT|       14     |       1     | 0.50506685E-02 | 0.95393184E+04 |  537.459
 BASOPT|       15     |       1     | 0.55974709E-02 | 0.14726376E+05 |  848.051
 BASOPT|       16     |       1     | 0.47597876E-02 | 0.13118247E+05 |  582.548
 BASOPT|       17     |       1     | 0.36593283E-02 | 0.56733646E+03 |  131.140
 BASOPT|       18     |       1     | 0.21227980E-02 | 0.14068232E+04 |   83.814
 BASOPT|       19     |       1     | 0.25372908E-02 | 0.20353265E+04 |   91.207
 BASOPT|       20     |       1     | 0.42833666E-02 | 0.31049600E+04 |  123.208
 BASOPT|       21     |       1     | 0.24568674E-02 | 0.20039220E+04 |   66.774
 BASOPT|       22     |       1     | 0.22049269E-02 | 0.17087571E+04 |   92.520
 BASOPT|       23     |       1     | 0.10629793E-02 | 0.14279378E+04 |   45.247
 BASOPT|       24     |       1     | 0.55635265E-02 | 0.18445363E+03 |   16.561
 BASOPT|       25     |       1     | 0.94200955E-03 | 0.14381384E+03 |   12.099
 BASOPT|       26     |       1     | 0.41806332E-02 | 0.12866789E+04 |  142.759
 BASOPT|       27     |       1     | 0.22354574E-02 | 0.13148060E+04 |   43.793
 BASOPT|       28     |       1     | 0.23373437E-02 | 0.84034988E+03 |   39.333
 BASOPT|       29     |       1     | 0.17738714E-02 | 0.66550107E+03 |   17.251
 BASOPT|       30     |       1     | 0.70340422E-03 | 0.12806449E+04 |    6.794
 BASOPT|       31     |       1     | 0.25260502E-02 | 0.61837294E+03 |   32.284
 BASOPT|       32     |       1     | 0.11657074E-02 | 0.32688954E+03 |    9.938
 BASOPT|       33     |       1     | 0.46790650E-02 | 0.61961469E+03 |   32.399
 BASOPT|       34     |       1     | 0.40388501E-02 | 0.11058511E+04 |   59.032
 BASOPT|       35     |       1     | 0.46371916E-02 | 0.13802183E+04 |  114.305
 BASOPT|       36     |       1     | 0.33417709E-02 | 0.45750060E+03 |   27.763
 BASOPT|       37     |       1     | 0.31525245E-02 | 0.12364158E+04 |   42.056
 BASOPT|       38     |       1     | 0.34897024E-02 | 0.23414009E+04 |   92.099
 BASOPT|       39     |       1     | 0.49145232E-02 | 0.18176078E+03 |   16.219
 BASOPT|       40     |       1     | 0.51622743E-02 | 0.28890429E+03 |   85.345
 BASOPT|       41     |       1     | 0.37673050E-02 | 0.32787824E+03 |   72.347
 BASOPT|       42     |       1     | 0.21494806E-02 | 0.11338111E+04 |   31.913
 BASOPT|       43     |       1     | 0.32386366E-02 | 0.17059964E+04 |   95.522
 BASOPT|       44     |       1     | 0.17217423E-02 | 0.25772500E+03 |   36.380
 BASOPT| -----------------------------------------------------------------------
 BASOPT| Total residuum value: -.37220065E+04

 BASOPT| Information at iteration number:    1500
 BASOPT| Training set | Combination | Rho difference | Condition num. | Time
 BASOPT| -----------------------------------------------------------------------
 BASOPT|        1     |       1     | 0.12728649E-02 | 0.29865520E+04 |  152.333
 BASOPT|        2     |       1     | 0.42097203E-02 | 0.19162193E+04 |  134.167
 BASOPT|        3     |       1     | 0.47783795E-02 | 0.28802508E+04 |  734.010
 BASOPT|        4     |       1     | 0.27658732E-02 | 0.23150338E+04 |  261.789
 BASOPT|        5     |       1     | 0.29358299E-02 | 0.24919197E+03 |   87.844
 BASOPT|        6     |       1     | 0.24764008E-02 | 0.81156196E+03 |  133.092
 BASOPT|        7     |       1     | 0.27014761E-02 | 0.21926853E+04 |  174.863
 BASOPT|        8     |       1     | 0.60488098E-03 | 0.47541603E+03 |   37.524
 BASOPT|        9     |       1     | 0.27639104E-02 | 0.14328846E+04 |   50.365
 BASOPT|       10     |       1     | 0.20748581E-02 | 0.35574800E+04 |   99.160
 BASOPT|       11     |       1     | 0.18295137E-02 | 0.21417298E+04 |  182.876
 BASOPT|       12     |       1     | 0.50253526E-02 | 0.67291327E+04 |  456.790
 BASOPT|       13     |       1     | 0.40132227E-02 | 0.30946208E+04 |  265.440
 BASOPT|       14     |       1     | 0.46548815E-02 | 0.75322879E+04 |  575.564
 BASOPT|       15     |       1     | 0.51866484E-02 | 0.95595724E+04 |  907.712
 BASOPT|       16     |       1     | 0.43074096E-02 | 0.87017936E+04 |  624.137
 BASOPT|       17     |       1     | 0.35859444E-02 | 0.53421318E+03 |  140.557
 BASOPT|       18     |       1     | 0.21625021E-02 | 0.12398453E+04 |   89.743
 BASOPT|       19     |       1     | 0.25148682E-02 | 0.17422468E+04 |   97.723
 BASOPT|       20     |       1     | 0.40310953E-02 | 0.24481433E+04 |  131.921
 BASOPT|       21     |       1     | 0.23407334E-02 | 0.17294249E+04 |   71.414
 BASOPT|       22     |       1     | 0.21839486E-02 | 0.14436455E+04 |   98.958
 BASOPT|       23     |       1     | 0.10544235E-02 | 0.11863226E+04 |   48.466
 BASOPT|       24     |       1     | 0.51203835E-02 | 0.17588258E+03 |   17.712
 BASOPT|       25     |       1     | 0.10048383E-02 | 0.14319722E+03 |   12.963
 BASOPT|       26     |       1     | 0.39735178E-02 | 0.12181535E+04 |  152.824
 BASOPT|       27     |       1     | 0.20301774E-02 | 0.11159033E+04 |   46.854
 BASOPT|       28     |       1     | 0.23335023E-02 | 0.76741446E+03 |   42.048
 BASOPT|       29     |       1     | 0.17138466E-02 | 0.62879112E+03 |   18.435
 BASOPT|       30     |       1     | 0.63804855E-03 | 0.10167777E+04 |    7.278
 BASOPT|       31     |       1     | 0.21160108E-02 | 0.69100843E+03 |   34.530
 BASOPT|       32     |       1     | 0.11294854E-02 | 0.30256601E+03 |   10.638
 BASOPT|       33     |       1     | 0.44126178E-02 | 0.62658612E+03 |   34.647
 BASOPT|       34     |       1     | 0.37824209E-02 | 0.11286379E+04 |   63.101
 BASOPT|       35     |       1     | 0.44051269E-02 | 0.14445059E+04 |  122.416
 BASOPT|       36     |       1     | 0.31390192E-02 | 0.44099202E+03 |   29.702
 BASOPT|       37     |       1     | 0.30940786E-02 | 0.10797270E+04 |   44.786
 BASOPT|       38     |       1     | 0.35082499E-02 | 0.18908749E+04 |   98.423
 BASOPT|       39     |       1     | 0.43124629E-02 | 0.21577079E+03 |   17.207
 BASOPT|       40     |       1     | 0.49736521E-02 | 0.33654030E+03 |   91.061
 BASOPT|       41     |       1     | 0.37090075E-02 | 0.36658164E+03 |   77.434
 BASOPT|       42     |       1     | 0.21748880E-02 | 0.94390220E+03 |   34.106
 BASOPT|       43     |       1     | 0.33340118E-02 | 0.14242127E+04 |  102.307
 BASOPT|       44     |       1     | 0.17973309E-02 | 0.25732354E+03 |   38.979
 BASOPT| -----------------------------------------------------------------------
 BASOPT| Total residuum value: -.37223085E+04

 BASOPT| Information at iteration number:    1600
 BASOPT| Training set | Combination | Rho difference | Condition num. | Time
 BASOPT| -----------------------------------------------------------------------
 BASOPT|        1     |       1     | 0.11887112E-02 | 0.30071411E+04 |  162.149
 BASOPT|        2     |       1     | 0.39581574E-02 | 0.20242038E+04 |  142.666
 BASOPT|        3     |       1     | 0.42010655E-02 | 0.27628119E+04 |  781.979
 BASOPT|        4     |       1     | 0.23035374E-02 | 0.23125850E+04 |  278.632
 BASOPT|        5     |       1     | 0.28106712E-02 | 0.24976560E+03 |   93.442
 BASOPT|        6     |       1     | 0.22936948E-02 | 0.89955865E+03 |  141.727
 BASOPT|        7     |       1     | 0.25115471E-02 | 0.18738824E+04 |  186.109
 BASOPT|        8     |       1     | 0.59233404E-03 | 0.46997102E+03 |   39.862
 BASOPT|        9     |       1     | 0.24832618E-02 | 0.11964101E+04 |   53.700
 BASOPT|       10     |       1     | 0.20039205E-02 | 0.28623246E+04 |  105.664
 BASOPT|       11     |       1     | 0.18881344E-02 | 0.17742126E+04 |  194.930
 BASOPT|       12     |       1     | 0.50832793E-02 | 0.52147465E+04 |  486.751
 BASOPT|       13     |       1     | 0.38261339E-02 | 0.25648541E+04 |  283.077
 BASOPT|       14     |       1     | 0.46448209E-02 | 0.55916451E+04 |  613.601
 BASOPT|       15     |       1     | 0.50453056E-02 | 0.64418489E+04 |  967.320
 BASOPT|       16     |       1     | 0.41941408E-02 | 0.59301923E+04 |  665.527
 BASOPT|       17     |       1     | 0.33967077E-02 | 0.52151034E+03 |  149.969
 BASOPT|       18     |       1     | 0.21742615E-02 | 0.10985139E+04 |   95.661
 BASOPT|       19     |       1     | 0.25144834E-02 | 0.14799305E+04 |  104.230
 BASOPT|       20     |       1     | 0.40102798E-02 | 0.20260623E+04 |  140.602
 BASOPT|       21     |       1     | 0.23691812E-02 | 0.14813130E+04 |   76.049
 BASOPT|       22     |       1     | 0.21481451E-02 | 0.12473482E+04 |  105.396
 BASOPT|       23     |       1     | 0.10627730E-02 | 0.10124549E+04 |   51.693
 BASOPT|       24     |       1     | 0.50403451E-02 | 0.16766209E+03 |   18.863
 BASOPT|       25     |       1     | 0.10055088E-02 | 0.13871616E+03 |   13.826
 BASOPT|       26     |       1     | 0.37665437E-02 | 0.14232631E+04 |  162.877
 BASOPT|       27     |       1     | 0.19681814E-02 | 0.96357705E+03 |   49.912
 BASOPT|       28     |       1     | 0.22148120E-02 | 0.77520662E+03 |   44.766
 BASOPT|       29     |       1     | 0.15906143E-02 | 0.70623344E+03 |   19.624
 BASOPT|       30     |       1     | 0.60830817E-03 | 0.85576636E+03 |    7.762
 BASOPT|       31     |       1     | 0.20202810E-02 | 0.83207869E+03 |   36.772
 BASOPT|       32     |       1     | 0.11152008E-02 | 0.28819457E+03 |   11.337
 BASOPT|       33     |       1     | 0.42688836E-02 | 0.67941985E+03 |   36.885
 BASOPT|       34     |       1     | 0.36160446E-02 | 0.12757578E+04 |   67.168
 BASOPT|       35     |       1     | 0.41922865E-02 | 0.16657452E+04 |  130.521
 BASOPT|       36     |       1     | 0.30650016E-02 | 0.44657900E+03 |   31.571
 BASOPT|       37     |       1     | 0.30101418E-02 | 0.98258789E+03 |   47.513
 BASOPT|       38     |       1     | 0.34906387E-02 | 0.16174200E+04 |  104.670
 BASOPT|       39     |       1     | 0.40032438E-02 | 0.28544065E+03 |   18.191
 BASOPT|       40     |       1     | 0.45920751E-02 | 0.43382224E+03 |   96.776
 BASOPT|       41     |       1     | 0.37212938E-02 | 0.43932089E+03 |   82.513
 BASOPT|       42     |       1     | 0.21612327E-02 | 0.84113886E+03 |   36.292
 BASOPT|       43     |       1     | 0.31668495E-02 | 0.12390451E+04 |  109.067
 BASOPT|       44     |       1     | 0.18387392E-02 | 0.26424791E+03 |   41.576
 BASOPT| -----------------------------------------------------------------------
 BASOPT| Total residuum value: -.37228307E+04

 BASOPT| Information at iteration number:    1700
 BASOPT| Training set | Combination | Rho difference | Condition num. | Time
 BASOPT| -----------------------------------------------------------------------
 BASOPT|        1     |       1     | 0.11954683E-02 | 0.29030818E+04 |  171.948
 BASOPT|        2     |       1     | 0.38855435E-02 | 0.19303997E+04 |  151.167
 BASOPT|        3     |       1     | 0.41630539E-02 | 0.25911001E+04 |  829.917
 BASOPT|        4     |       1     | 0.23299271E-02 | 0.22498680E+04 |  295.453
 BASOPT|        5     |       1     | 0.27341725E-02 | 0.25078503E+03 |   99.029
 BASOPT|        6     |       1     | 0.22924689E-02 | 0.98770885E+03 |  150.347
 BASOPT|        7     |       1     | 0.25652940E-02 | 0.17347878E+04 |  197.347
 BASOPT|        8     |       1     | 0.62438899E-03 | 0.46137425E+03 |   42.199
 BASOPT|        9     |       1     | 0.25763369E-02 | 0.11227819E+04 |   57.039
 BASOPT|       10     |       1     | 0.20436033E-02 | 0.25408875E+04 |  112.159
 BASOPT|       11     |       1     | 0.18224048E-02 | 0.16129589E+04 |  206.950
 BASOPT|       12     |       1     | 0.50558066E-02 | 0.46906684E+04 |  516.667
 BASOPT|       13     |       1     | 0.38349158E-02 | 0.23640952E+04 |  300.718
 BASOPT|       14     |       1     | 0.46320615E-02 | 0.49749611E+04 |  651.526
 BASOPT|       15     |       1     | 0.49872229E-02 | 0.54969056E+04 | 1026.913
 BASOPT|       16     |       1     | 0.41868102E-02 | 0.50804910E+04 |  707.086
 BASOPT|       17     |       1     | 0.33523509E-02 | 0.52717426E+03 |  159.387
 BASOPT|       18     |       1     | 0.21391552E-02 | 0.10448979E+04 |  101.576
 BASOPT|       19     |       1     | 0.24401239E-02 | 0.13670178E+04 |  110.741
 BASOPT|       20     |       1     | 0.40542066E-02 | 0.18717806E+04 |  149.257
 BASOPT|       21     |       1     | 0.23902333E-02 | 0.13763033E+04 |   80.673
 BASOPT|       22     |       1     | 0.20544036E-02 | 0.12410586E+04 |  111.874
 BASOPT|       23     |       1     | 0.10338394E-02 | 0.94488893E+03 |   54.945
 BASOPT|       24     |       1     | 0.49562853E-02 | 0.16525806E+03 |   20.015
 BASOPT|       25     |       1     | 0.99331269E-03 | 0.13893192E+03 |   14.691
 BASOPT|       26     |       1     | 0.36397011E-02 | 0.16272950E+04 |  172.936
 BASOPT|       27     |       1     | 0.19168038E-02 | 0.90554019E+03 |   52.952
 BASOPT|       28     |       1     | 0.21002853E-02 | 0.79047034E+03 |   47.492
 BASOPT|       29     |       1     | 0.14864847E-02 | 0.78009785E+03 |   20.820
 BASOPT|       30     |       1     | 0.62922291E-03 | 0.78896167E+03 |    8.244
 BASOPT|       31     |       1     | 0.19872466E-02 | 0.96526224E+03 |   39.008
 BASOPT|       32     |       1     | 0.10889990E-02 | 0.28782700E+03 |   12.036
 BASOPT|       33     |       1     | 0.43484049E-02 | 0.74586196E+03 |   39.122
 BASOPT|       34     |       1     | 0.35150630E-02 | 0.13849983E+04 |   71.258
 BASOPT|       35     |       1     | 0.40850608E-02 | 0.18144615E+04 |  138.619
 BASOPT|       36     |       1     | 0.29879954E-02 | 0.51023301E+03 |   33.440
 BASOPT|       37     |       1     | 0.29861321E-02 | 0.95436658E+03 |   50.240
 BASOPT|       38     |       1     | 0.35659996E-02 | 0.14954915E+04 |  110.886
 BASOPT|       39     |       1     | 0.37498418E-02 | 0.35174188E+03 |   19.173
 BASOPT|       40     |       1     | 0.43971513E-02 | 0.51675568E+03 |  102.495
 BASOPT|       41     |       1     | 0.36139447E-02 | 0.50102615E+03 |   87.593
 BASOPT|       42     |       1     | 0.22259047E-02 | 0.78743456E+03 |   38.461
 BASOPT|       43     |       1     | 0.30830175E-02 | 0.11495447E+04 |  115.815
 BASOPT|       44     |       1     | 0.18347526E-02 | 0.27048454E+03 |   44.174
 BASOPT| -----------------------------------------------------------------------
 BASOPT| Total residuum value: -.37230351E+04

 BASOPT| Information at iteration number:    1800
 BASOPT| Training set | Combination | Rho difference | Condition num. | Time
 BASOPT| -----------------------------------------------------------------------
 BASOPT|        1     |       1     | 0.12537096E-02 | 0.28734508E+04 |  181.746
 BASOPT|        2     |       1     | 0.37465278E-02 | 0.18704560E+04 |  159.665
 BASOPT|        3     |       1     | 0.41984663E-02 | 0.25586349E+04 |  877.824
 BASOPT|        4     |       1     | 0.22903570E-02 | 0.22226574E+04 |  312.232
 BASOPT|        5     |       1     | 0.26589794E-02 | 0.27044138E+03 |  104.629
 BASOPT|        6     |       1     | 0.22670540E-02 | 0.10130702E+04 |  158.975
 BASOPT|        7     |       1     | 0.26536934E-02 | 0.17032008E+04 |  208.583
 BASOPT|        8     |       1     | 0.64795822E-03 | 0.46283777E+03 |   44.540
 BASOPT|        9     |       1     | 0.26570240E-02 | 0.10718281E+04 |   60.375
 BASOPT|       10     |       1     | 0.20754136E-02 | 0.24413522E+04 |  118.652
 BASOPT|       11     |       1     | 0.17874686E-02 | 0.15654558E+04 |  218.980
 BASOPT|       12     |       1     | 0.50367186E-02 | 0.45481945E+04 |  546.609
 BASOPT|       13     |       1     | 0.38427731E-02 | 0.22506686E+04 |  318.749
 BASOPT|       14     |       1     | 0.46176401E-02 | 0.47853570E+04 |  689.481
 BASOPT|       15     |       1     | 0.49735305E-02 | 0.52092908E+04 | 1086.539
 BASOPT|       16     |       1     | 0.41931316E-02 | 0.48164558E+04 |  748.582
 BASOPT|       17     |       1     | 0.33284021E-02 | 0.57309821E+03 |  168.807
 BASOPT|       18     |       1     | 0.20973619E-02 | 0.10259017E+04 |  107.517
 BASOPT|       19     |       1     | 0.24362005E-02 | 0.13150043E+04 |  117.263
 BASOPT|       20     |       1     | 0.40624572E-02 | 0.17793922E+04 |  157.914
[...]
 BASOPT|        9     |       1     | 0.15148948E-02 | 0.48241448E+03 |  199.719
 BASOPT|       10     |       1     | 0.13862418E-02 | 0.12837503E+04 |  390.978
 BASOPT|       11     |       1     | 0.13585596E-02 | 0.69169540E+03 |  713.651
 BASOPT|       12     |       1     | 0.40172787E-02 | 0.26038116E+04 | 1894.192
 BASOPT|       13     |       1     | 0.31336626E-02 | 0.11463792E+04 | 1043.201
 BASOPT|       14     |       1     | 0.36249692E-02 | 0.30725740E+04 | 2261.011
 BASOPT|       15     |       1     | 0.41665112E-02 | 0.40212355E+04 | 3544.488
 BASOPT|       16     |       1     | 0.32149831E-02 | 0.36989686E+04 | 2447.994
 BASOPT|       17     |       1     | 0.30664932E-02 | 0.46901667E+03 |  555.559
 BASOPT|       18     |       1     | 0.19744926E-02 | 0.55195669E+03 |  350.916
 BASOPT|       19     |       1     | 0.24244883E-02 | 0.64826246E+03 |  387.441
 BASOPT|       20     |       1     | 0.31375362E-02 | 0.83172565E+03 |  515.485
 BASOPT|       21     |       1     | 0.18110970E-02 | 0.63659783E+03 |  279.654
 BASOPT|       22     |       1     | 0.19027841E-02 | 0.56505796E+03 |  382.416
 BASOPT|       23     |       1     | 0.73672808E-03 | 0.37420982E+03 |  191.066
 BASOPT|       24     |       1     | 0.30804031E-02 | 0.18737408E+03 |   70.341
 BASOPT|       25     |       1     | 0.91686282E-03 | 0.17735773E+03 |   50.933
 BASOPT|       26     |       1     | 0.30878443E-02 | 0.96355404E+03 |  598.295
 BASOPT|       27     |       1     | 0.17501889E-02 | 0.46841542E+03 |  183.802
 BASOPT|       28     |       1     | 0.20795145E-02 | 0.48611969E+03 |  163.180
 BASOPT|       29     |       1     | 0.16155620E-02 | 0.40882483E+03 |   71.576
 BASOPT|       30     |       1     | 0.63867089E-03 | 0.24342596E+03 |   28.480
 BASOPT|       31     |       1     | 0.14550140E-02 | 0.86621651E+03 |  133.753
 BASOPT|       32     |       1     | 0.10624244E-02 | 0.20568437E+03 |   41.410
 BASOPT|       33     |       1     | 0.28636890E-02 | 0.45960661E+03 |  133.908
 BASOPT|       34     |       1     | 0.31036057E-02 | 0.13674054E+04 |  243.737
 BASOPT|       35     |       1     | 0.35463795E-02 | 0.23421419E+04 |  480.293
 BASOPT|       36     |       1     | 0.21944531E-02 | 0.80760175E+03 |  112.567
 BASOPT|       37     |       1     | 0.20521050E-02 | 0.11699129E+04 |  164.757
 BASOPT|       38     |       1     | 0.30066655E-02 | 0.10998724E+04 |  372.496
 BASOPT|       39     |       1     | 0.22314932E-02 | 0.98119589E+03 |   60.518
 BASOPT|       40     |       1     | 0.27447521E-02 | 0.94311919E+03 |  342.567
 BASOPT|       41     |       1     | 0.27034223E-02 | 0.12147507E+04 |  301.711
 BASOPT|       42     |       1     | 0.20431517E-02 | 0.70325961E+03 |  129.920
 BASOPT|       43     |       1     | 0.26998859E-02 | 0.78473351E+03 |  401.276
 BASOPT|       44     |       1     | 0.17544507E-02 | 0.34610033E+03 |  154.028
 BASOPT| -----------------------------------------------------------------------
 BASOPT| Total residuum value: -.37254879E+04


 -------------------------------------------------------------------------------
 -                                                                             -
 -                                DBCSR STATISTICS                             -
 -                                                                             -
 -------------------------------------------------------------------------------
 COUNTER                                    TOTAL       BLAS       SMM       ACC
 flops    68 x    68 x     1                27744       0.0%    100.0%      0.0%
 flops   116 x    68 x     3                47328       0.0%    100.0%      0.0%
 flops   116 x   116 x     3                80736       0.0%    100.0%      0.0%
 flops    68 x   116 x     3                94656       0.0%    100.0%      0.0%
 flops    68 x    68 x     3               166464       0.0%    100.0%      0.0%
 flops    68 x    68 x     5               231200       0.0%    100.0%      0.0%
 flops   116 x    68 x     4               315520       0.0%    100.0%      0.0%
 flops    68 x   116 x     4               315520       0.0%    100.0%      0.0%
 flops    68 x   116 x     5               315520       0.0%    100.0%      0.0%
 flops   116 x    68 x     5               315520       0.0%    100.0%      0.0%
 flops    68 x    68 x     9               332928       0.0%    100.0%      0.0%
 flops   116 x   116 x     4               430592       0.0%    100.0%      0.0%
 flops    68 x    68 x    12               443904       0.0%    100.0%      0.0%
 flops   116 x    68 x     9               567936       0.0%    100.0%      0.0%
 flops    68 x   116 x     9               709920       0.0%    100.0%      0.0%
 flops    68 x    68 x     4               739840       0.0%    100.0%      0.0%
 flops    68 x   116 x    12              1135872       0.0%    100.0%      0.0%
 flops   116 x    68 x    12              1135872       0.0%    100.0%      0.0%
 flops    68 x    68 x    10              1202240       0.0%    100.0%      0.0%
 flops   116 x    68 x     6              1703808       0.0%    100.0%      0.0%
 flops    68 x   116 x     6              1703808       0.0%    100.0%      0.0%
 flops    68 x   116 x    10              1735360       0.0%    100.0%      0.0%
 flops   116 x    68 x    10              1735360       0.0%    100.0%      0.0%
 flops   116 x   116 x     5              2018400       0.0%    100.0%      0.0%
 flops   116 x    68 x     7              2319072       0.0%    100.0%      0.0%
 flops    68 x    68 x     8              2367488       0.0%    100.0%      0.0%
 flops    68 x    68 x     6              2441472       0.0%    100.0%      0.0%
 flops   116 x    68 x     8              2524160       0.0%    100.0%      0.0%
 flops    68 x   116 x     7              2539936       0.0%    100.0%      0.0%
 flops    68 x   116 x     8              2776576       0.0%    100.0%      0.0%
 flops   116 x   116 x     6              2906496       0.0%    100.0%      0.0%
 flops   116 x   116 x     9              2906496       0.0%    100.0%      0.0%
 flops   116 x   116 x     7              3390912       0.0%    100.0%      0.0%
 flops    68 x    68 x    18              3495744       0.0%    100.0%      0.0%
 flops   116 x   116 x    13              3498560       0.0%    100.0%      0.0%
 flops    68 x    68 x     7              4207840       0.0%    100.0%      0.0%
 flops   116 x   116 x     8              5382400       0.0%    100.0%      0.0%
 flops    68 x   116 x    18              5963328       0.0%    100.0%      0.0%
 flops   116 x    68 x    18              5963328       0.0%    100.0%      0.0%
 flops   116 x   116 x    16              6458880       0.0%    100.0%      0.0%
 flops   116 x   116 x    10              8611840       0.0%    100.0%      0.0%
 flops    68 x    68 x    15              9294240       0.0%    100.0%      0.0%
 flops   116 x   116 x    18             13563648       0.0%    100.0%      0.0%
 flops   116 x   116 x    12             14532480       0.0%    100.0%      0.0%
 flops   116 x    68 x    15             14908320       0.0%    100.0%      0.0%
 flops    68 x   116 x    15             14908320       0.0%    100.0%      0.0%
 flops   116 x   116 x    15             33909120       0.0%    100.0%      0.0%
 flops inhomo. stacks                           0       0.0%      0.0%      0.0%
 flops total                       186.376704E+06       0.0%    100.0%      0.0%
 flops max/rank                     28.986048E+06       0.0%    100.0%      0.0%
 matmuls inhomo. stacks                         0       0.0%      0.0%      0.0%
 matmuls total                                945       0.0%    100.0%      0.0%
 number of processed stacks                   158       0.0%    100.0%      0.0%
 average stack size                                     0.0       6.0       0.0
 marketing flops                   327.607296E+06
 -------------------------------------------------------------------------------
 # multiplications                              1
 max memory usage/rank               1.983611E+09
 # max total images/rank                        2
 # max 3D layers                                1
 # MPI messages exchanged                       8
 MPI messages size (bytes):
  total size                       265.984000E+03
  min size                           0.000000E+00
  max size                         132.480000E+03
  average size                      33.248000E+03
 MPI breakdown and total messages size (bytes):
             size <=      128                   4                        0
       128 < size <=     8192                   0                        0
      8192 < size <=    32768                   1                    30720
     32768 < size <=   131072                   2                   102784
    131072 < size <=  4194304                   1                   132480
   4194304 < size <= 16777216                   0                        0
  16777216 < size                               0                        0
 -------------------------------------------------------------------------------

 *** WARNING in dbcsr_mm.F:294 :: Using a non-square number of MPI ranks ***
 *** might lead to poor performance. Used ranks: 2 Suggested: 1 4        ***

 -------------------------------------------------------------------------------
 -                                                                             -
 -                      DBCSR MESSAGE PASSING PERFORMANCE                      -
 -                                                                             -
 -------------------------------------------------------------------------------
 ROUTINE             CALLS      AVE VOLUME [Bytes]
 MP_Bcast               48                     12.
 MP_Allreduce          120                     24.
 MP_Alltoall        356241                 217389.
 MP_ISend                6                   5209.
 MP_IRecv                8                   1985.
 -------------------------------------------------------------------------------

 -------------------------------------------------------------------------------
 -                                                                             -
 -                                GRID STATISTICS                              -
 -                                                                             -
 -------------------------------------------------------------------------------
 LP    KERNEL             BACKEND                              COUNT     PERCENT
 4     collocate ortho    REF                                  41923       8.96%
 4     integrate ortho    REF                                  41923       8.96%
 1     collocate ortho    REF                                  36102       7.72%
 1     integrate ortho    REF                                  36102       7.72%
 5     collocate ortho    REF                                  33974       7.26%
 5     integrate ortho    REF                                  33974       7.26%
 3     collocate ortho    REF                                  32476       6.94%
 3     integrate ortho    REF                                  32476       6.94%
 2     collocate ortho    REF                                  30089       6.43%
 2     integrate ortho    REF                                  30089       6.43%
 0     collocate ortho    REF                                  29264       6.26%
 0     integrate ortho    REF                                  29264       6.26%
 7     collocate ortho    REF                                  11479       2.45%
 7     integrate ortho    REF                                  11479       2.45%
 6     collocate ortho    REF                                   9511       2.03%
 6     integrate ortho    REF                                   9511       2.03%
 8     collocate ortho    REF                                   8896       1.90%
 8     integrate ortho    REF                                   8896       1.90%
 0     collocate general  REF                                    240       0.05%
 -------------------------------------------------------------------------------

 MEMORY| Estimated peak process memory [MiB]                                5171

 -------------------------------------------------------------------------------
 -                                                                             -
 -                         MESSAGE PASSING PERFORMANCE                         -
 -                                                                             -
 -------------------------------------------------------------------------------

 ROUTINE             CALLS      AVE VOLUME [Bytes]
 MP_Bcast             5986                   2718.
 MP_Allreduce        41844                    395.
 MP_Sync              5937
 MP_Alltoall            18              129829589.
 MP_ISendRecv            9                9129216.
 MP_Wait                 9
 MP_comm_split           1
 -------------------------------------------------------------------------------


 -------------------------------------------------------------------------------
 -                                                                             -
 -                           R E F E R E N C E S                               -
 -                                                                             -
 -------------------------------------------------------------------------------
 
 CP2K version 9.0 (Development Version), the CP2K developers group (2020).
 CP2K is freely available from https://www.cp2k.org/ .

 Kuehne,Thomas D.; Iannuzzi,Marcella; Del Ben,Mauro;
 Rybkin,Vladimir V.; Seewald,Patrick; Stein,Frederick; Laino,Teodoro;
 Khaliullin,Rustam Z.; Schuett,Ole; Schiffmann,Florian; Golze,Dorothea;
 Wilhelm,Jan; Chulkov,Sergey; Bani-Hashemian,Mohammad Hossein;
 Weber,Valery; Borstnik,Urban; Taillefumier,Mathieu;
 Jakobovits,Alice Shoshana; Lazzaro,Alfio; Pabst,Hans; Mueller,Tiziano;
 Schade,Robert; Guidon,Manuel; Andermatt,Samuel; Holmberg,Nico;
 Schenter,Gregory K.; Hehn,Anna; Bussy,Augustin; Belleflamme,Fabian;
 Tabacchi,Gloria; Gloess,Andreas; Lass,Michael; Bethune,Iain;
 Mundy,Christopher J.; Plessl,Christian; Watkins,Matt;
 VandeVondele,Joost; Krack,Matthias; Hutter,Juerg. 
 The Journal of Chemical Physics, 152 (19), (2020). 
 CP2K: An electronic structure and molecular dynamics software package -
 Quickstep: Efficient and accurate electronic structure calculations.
 https://doi.org/10.1063/5.0007045

 Schuett, Ole; Messmer, Peter; Hutter, Juerg; VandeVondele, Joost. 
 Electronic Structure Calculations on Graphics Processing Units, John
 Wiley & Sons, Ltd, 173-190 (2016). 
 GPU-Accelerated Sparse Matrix-Matrix Multiplication for
 Linear Scaling Density Functional Theory.
 https://doi.org/10.1002/9781118670712.ch8

 Heinecke, A; Henry, G; Hutchinson, M; Pabst, H. 
 Proceedings of Intl. Supercomputing Conference, 981-991 (2016). 
 LIBXSMM: Accelerating Small Matrix Multiplications
 by Runtime Code Generation.
 https://doi.org/10.1109/SC.2016.83

 Borstnik, U; VandeVondele, J; Weber, V; Hutter, J. 
 PARALLEL COMPUTING, 40 (5-6), 47-58 (2014). 
 Sparse matrix multiplication: The distributed block-compressed sparse
 row library.
 https://doi.org/10.1016/j.parco.2014.03.012

 Hutter, J; Iannuzzi, M; Schiffmann, F; VandeVondele, J. 
 WIREs Comput Mol Sci., 4 (1), 15-25 (2014). 
 CP2K: atomistic simulations of condensed matter systems.
 https://doi.org/10.1002/wcms.1159

 Guidon, M; Hutter, J; VandeVondele, J. 
 JOURNAL OF CHEMICAL THEORY AND COMPUTATION, 6 (8), 2348-2364 (2010). 
 Auxiliary Density Matrix Methods for Hartree-Fock Exchange Calculations.
 https://doi.org/10.1021/ct1002225

 VandeVondele, J; Hutter, J. 
 JOURNAL OF CHEMICAL PHYSICS, 127 (11), 114105 (2007). 
 Gaussian basis sets for accurate calculations on molecular systems in
 gas and condensed phases.
 https://doi.org/10.1063/1.2770708

 Krack, M. 
 THEORETICAL CHEMISTRY ACCOUNTS, 114 (1-3), 145-152 (2005). 
 Pseudopotentials for H to Kr optimized for gradient-corrected
 exchange-correlation functionals.
 https://doi.org/10.1007/s00214-005-0655-y

 VandeVondele, J; Krack, M; Mohamed, F; Parrinello, M; Chassaing, T;
 Hutter, J. COMPUTER PHYSICS COMMUNICATIONS, 167 (2), 103-128 (2005). 
 QUICKSTEP: Fast and accurate density functional calculations using a
 mixed Gaussian and plane waves approach.
 https://doi.org/10.1016/j.cpc.2004.12.014

 Frigo, M; Johnson, SG. 
 PROCEEDINGS OF THE IEEE, 93 (2), 216-231 (2005). 
 The design and implementation of FFTW3.
 https://doi.org/10.1109/JPROC.2004.840301

 Hartwigsen, C; Goedecker, S; Hutter, J. 
 PHYSICAL REVIEW B, 58 (7), 3641-3662 (1998). 
 Relativistic separable dual-space Gaussian pseudopotentials from H to Rn.
 https://doi.org/10.1103/PhysRevB.58.3641

 Lippert, G; Hutter, J; Parrinello, M. 
 MOLECULAR PHYSICS, 92 (3), 477-487 (1997). 
 A hybrid Gaussian and plane wave density functional scheme.
 https://doi.org/10.1080/002689797170220

 Perdew, JP; Burke, K; Ernzerhof, M. 
 PHYSICAL REVIEW LETTERS, 77 (18), 3865-3868 (1996). 
 Generalized gradient approximation made simple.
 https://doi.org/10.1103/PhysRevLett.77.3865

 Goedecker, S; Teter, M; Hutter, J. 
 PHYSICAL REVIEW B, 54 (3), 1703-1710 (1996). 
 Separable dual-space Gaussian pseudopotentials.
 https://doi.org/10.1103/PhysRevB.54.1703


 -------------------------------------------------------------------------------
 -                                                                             -
 -                                T I M I N G                                  -
 -                                                                             -
 -------------------------------------------------------------------------------
 SUBROUTINE                       CALLS  ASD         SELF TIME        TOTAL TIME
                                MAXIMUM       AVERAGE  MAXIMUM  AVERAGE  MAXIMUM
 CP2K                                 1  1.0    0.002    0.021 3615.940 3615.976
 run_optimize_basis                   1  2.0    0.003    0.004 3615.889 3615.962
 driver_para_opt_basis                1  3.0    0.000    0.000 3615.861 3615.933
 driver_optimization_para_low         1  4.0    0.083    0.124 3615.860 3615.933
 compute_residuum_vectors          5937  5.0    0.504    0.705 3590.767 3594.732
 mp_sum_dv                        29686  5.8 2942.599 3564.643 2942.599 3564.643
 cp_gemm                          71244  7.2    0.133    0.209  443.405 2836.327
 cp_gemm_fm_gemm                  71244  8.2    0.081    0.139  443.272 2836.118
 cp_fm_gemm                       71244  9.2  443.191 2835.979  443.191 2835.979
 admm_fit_mo_coeffs                5937  6.0    0.020    0.032  163.614  943.239
 fit_mo_coeffs                     5937  7.0    0.065    0.111  132.315  814.111
 build_overlap_matrix_low         11878  6.0  113.313  505.342  113.799  506.325
 copy_dbcsr_to_fm                 29686  6.8    0.443    0.760   44.830  194.650
 purify_mo_diag                    5937  7.0    0.081    0.120   31.279  170.346
 cp_fm_upper_to_full              17813  7.3   25.927  129.013   25.927  129.013
 dbcsr_complete_redistribute      29687  7.8   14.881   69.565   26.022  120.089
 dbcsr_desymmetrize_deep          29686  7.8    4.025   17.328   11.336   78.120
 -------------------------------------------------------------------------------

 The number of warnings for this run is : 1
 
 -------------------------------------------------------------------------------
  **** **** ******  **  PROGRAM ENDED AT                 2021-05-18 15:55:37.156
 ***** ** ***  *** **   PROGRAM RAN ON                                   tcopt10
 **    ****   ******    PROGRAM RAN BY                                    hutter
 ***** **    ** ** **   PROGRAM PROCESS ID                                 24534
  **** **  *******  **  PROGRAM STOPPED IN            /data/hutter/run/delta/new
