
  **** **** ******  **  PROGRAM STARTED AT               2021-01-05 17:11:33.334
 ***** ** ***  *** **   PROGRAM STARTED ON                               tcopt10
 **    ****   ******    PROGRAM STARTED BY                                hutter
 ***** **    ** ** **   PROGRAM PROCESS ID                                 37861
  **** **  *******  **  PROGRAM STARTED IN /data/hutter/GITHUB/BASIS/MOLOPT/PBE/
                                           Co

 CP2K| version string:                    CP2K version 9.0 (Development Version)
 CP2K| source code revision number:                                  git:e8cde91
 CP2K| cp2kflags: omp libint fftw3 libxc elpa parallel mpi3 scalapack xsmm spgli
 CP2K|            b sirius
 CP2K| is freely available from                            https://www.cp2k.org/
 CP2K| Program compiled at                          Tue Jan  5 16:49:35 CET 2021
 CP2K| Program compiled on                                               tcopt10
 CP2K| Program compiled for                                                local
 CP2K| Data directory path                 /data/hutter/GITHUB/CURRENT/cp2k/data
 CP2K| Input file name                                              opt-dzvp.inp

 GLOBAL| Method name                                              OPTIMIZE_BASIS
 GLOBAL| Project name                                                     molopt
 GLOBAL| Preferred FFT library                                             FFTW3
 GLOBAL| Preferred diagonalization lib.                                     ELPA
 GLOBAL| Run type                                                   ENERGY_FORCE
 GLOBAL| All-to-all communication in single precision                          F
 GLOBAL| FFTs using library dependent lengths                                  F
 GLOBAL| Global print level                                               MEDIUM
 GLOBAL| MPI I/O enabled                                                       T
 GLOBAL| Total number of message passing processes                            16
 GLOBAL| Number of threads for this process                                    1
 GLOBAL| This output is from process                                           0
 GLOBAL| CPU model name                          AMD EPYC 7401 24-Core Processor
 GLOBAL| CPUID                                                              1002

 MEMORY| system memory details [Kb]
 MEMORY|                        rank 0           min           max       average
 MEMORY| MemTotal            263987256     263987256     263987256     263987256
 MEMORY| MemFree             226310104     226310104     226310104     226310104
 MEMORY| Buffers                   148           148           148           148
 MEMORY| Cached               31472060      31472060      31472060      31472060
 MEMORY| Slab                  1104520       1104520       1104520       1104520
 MEMORY| SReclaimable           500840        500840        500840        500840
 MEMORY| MemLikelyFree       258283152     258283152     258283152     258283152


 *** Fundamental physical constants (SI units) ***

 *** Literature: B. J. Mohr and B. N. Taylor,
 ***             CODATA recommended values of the fundamental physical
 ***             constants: 2006, Web Version 5.1
 ***             http://physics.nist.gov/constants

 Speed of light in vacuum [m/s]                             2.99792458000000E+08
 Magnetic constant or permeability of vacuum [N/A**2]       1.25663706143592E-06
 Electric constant or permittivity of vacuum [F/m]          8.85418781762039E-12
 Planck constant (h) [J*s]                                  6.62606896000000E-34
 Planck constant (h-bar) [J*s]                              1.05457162825177E-34
 Elementary charge [C]                                      1.60217648700000E-19
 Electron mass [kg]                                         9.10938215000000E-31
 Electron g factor [ ]                                     -2.00231930436220E+00
 Proton mass [kg]                                           1.67262163700000E-27
 Fine-structure constant                                    7.29735253760000E-03
 Rydberg constant [1/m]                                     1.09737315685270E+07
 Avogadro constant [1/mol]                                  6.02214179000000E+23
 Boltzmann constant [J/K]                                   1.38065040000000E-23
 Atomic mass unit [kg]                                      1.66053878200000E-27
 Bohr radius [m]                                            5.29177208590000E-11

 *** Conversion factors ***

 [u] -> [a.u.]                                              1.82288848426455E+03
 [Angstrom] -> [Bohr] = [a.u.]                              1.88972613288564E+00
 [a.u.] = [Bohr] -> [Angstrom]                              5.29177208590000E-01
 [a.u.] -> [s]                                              2.41888432650478E-17
 [a.u.] -> [fs]                                             2.41888432650478E-02
 [a.u.] -> [J]                                              4.35974393937059E-18
 [a.u.] -> [N]                                              8.23872205491840E-08
 [a.u.] -> [K]                                              3.15774647902944E+05
 [a.u.] -> [kJ/mol]                                         2.62549961709828E+03
 [a.u.] -> [kcal/mol]                                       6.27509468713739E+02
 [a.u.] -> [Pa]                                             2.94210107994716E+13
 [a.u.] -> [bar]                                            2.94210107994716E+08
 [a.u.] -> [atm]                                            2.90362800883016E+08
 [a.u.] -> [eV]                                             2.72113838565563E+01
 [a.u.] -> [Hz]                                             6.57968392072181E+15
 [a.u.] -> [1/cm] (wave numbers)                            2.19474631370540E+05
 [a.u./Bohr**2] -> [1/cm]                                   5.14048714338585E+03
 
 DBCSR| CPU Multiplication driver                                           XSMM
 DBCSR| Multrec recursion limit                                              512
 DBCSR| Multiplication stack size                                           1000
 DBCSR| Maximum elements for images                                    UNLIMITED
 DBCSR| Multiplicative factor virtual images                                   1
 DBCSR| Use multiplication densification                                       T
 DBCSR| Multiplication size stacks                                             3
 DBCSR| Use memory pool for CPU allocation                                     F
 DBCSR| Number of 3D layers                                               SINGLE
 DBCSR| Use MPI memory allocation                                              F
 DBCSR| Use RMA algorithm                                                      F
 DBCSR| Use Communication thread                                               T
 DBCSR| Communication thread load                                             87
 DBCSR| MPI: My node id                                                        0
 DBCSR| MPI: Number of nodes                                                  16
 DBCSR| OMP: Current number of threads                                         1
 DBCSR| OMP: Max number of threads                                             1
 DBCSR| Split modifier for TAS multiplication algorithm                  1.0E+00

 BASOPT| Total number of calculations      3

 BASOPT| Content of basis combination      1
 BASOPT|     Element:   CO    Basis set:    DZVP-MOLOPT-PBE-GTH-Q17
 BASOPT|     Element:    F    Basis set:    DZVP-MOLOPT-PBE-GTH-Q7
 BASOPT|     Element:   CL    Basis set:    DZVP-MOLOPT-PBE-GTH-Q7

 BASOPT| Information at iteration number:       0
 BASOPT| Training set | Combination | Rho difference | Condition num. | Time
 BASOPT| -----------------------------------------------------------------------
 BASOPT|        1     |       1     | 0.93590742E-02 | 0.22033560E+03 |    0.105
 BASOPT|        2     |       1     | 0.62863200E-02 | 0.26567565E+03 |    0.059
 BASOPT|        3     |       1     | 0.63733839E-02 | 0.24418614E+03 |    0.095
 BASOPT| -----------------------------------------------------------------------
 BASOPT| Total residuum value: -.98604531E+03

 BASOPT| Information at iteration number:     100
 BASOPT| Training set | Combination | Rho difference | Condition num. | Time
 BASOPT| -----------------------------------------------------------------------
 BASOPT|        1     |       1     | 0.92944034E-02 | 0.22202244E+03 |   10.379
 BASOPT|        2     |       1     | 0.62378868E-02 | 0.26567649E+03 |    5.790
 BASOPT|        3     |       1     | 0.62831795E-02 | 0.24783325E+03 |    9.389
 BASOPT| -----------------------------------------------------------------------
 BASOPT| Total residuum value: -.98604987E+03

 BASOPT| Information at iteration number:     200
 BASOPT| Training set | Combination | Rho difference | Condition num. | Time
 BASOPT| -----------------------------------------------------------------------
 BASOPT|        1     |       1     | 0.93252694E-02 | 0.21683236E+03 |   21.206
 BASOPT|        2     |       1     | 0.64331182E-02 | 0.23783215E+03 |   12.007
 BASOPT|        3     |       1     | 0.68231780E-02 | 0.20708298E+03 |   19.198
 BASOPT| -----------------------------------------------------------------------
 BASOPT| Total residuum value: -.98784639E+03

 BASOPT| Information at iteration number:     300
 BASOPT| Training set | Combination | Rho difference | Condition num. | Time
 BASOPT| -----------------------------------------------------------------------
 BASOPT|        1     |       1     | 0.94320458E-02 | 0.21467278E+03 |   31.551
 BASOPT|        2     |       1     | 0.64842965E-02 | 0.23215438E+03 |   17.928
 BASOPT|        3     |       1     | 0.69931817E-02 | 0.19849277E+03 |   28.689
 BASOPT| -----------------------------------------------------------------------
 BASOPT| Total residuum value: -.98788720E+03

 BASOPT| Information at iteration number:     400
 BASOPT| Training set | Combination | Rho difference | Condition num. | Time
 BASOPT| -----------------------------------------------------------------------
 BASOPT|        1     |       1     | 0.92965142E-02 | 0.21836551E+03 |   41.908
 BASOPT|        2     |       1     | 0.63835978E-02 | 0.25104196E+03 |   23.860
 BASOPT|        3     |       1     | 0.68474899E-02 | 0.20192866E+03 |   38.186
 BASOPT| -----------------------------------------------------------------------
 BASOPT| Total residuum value: -.98794686E+03

 BASOPT| Information at iteration number:     500
 BASOPT| Training set | Combination | Rho difference | Condition num. | Time
 BASOPT| -----------------------------------------------------------------------
 BASOPT|        1     |       1     | 0.89659012E-02 | 0.23180427E+03 |   52.227
 BASOPT|        2     |       1     | 0.60988425E-02 | 0.30802340E+03 |   29.772
 BASOPT|        3     |       1     | 0.63721653E-02 | 0.22989464E+03 |   47.683
 BASOPT| -----------------------------------------------------------------------
 BASOPT| Total residuum value: -.98799939E+03

 BASOPT| Information at iteration number:     600
 BASOPT| Training set | Combination | Rho difference | Condition num. | Time
 BASOPT| -----------------------------------------------------------------------
 BASOPT|        1     |       1     | 0.89252402E-02 | 0.23750876E+03 |   62.513
 BASOPT|        2     |       1     | 0.60521542E-02 | 0.30970018E+03 |   35.669
 BASOPT|        3     |       1     | 0.63746328E-02 | 0.22828577E+03 |   57.158
 BASOPT| -----------------------------------------------------------------------
 BASOPT| Total residuum value: -.98801844E+03

 BASOPT| Information at iteration number:     700
 BASOPT| Training set | Combination | Rho difference | Condition num. | Time
 BASOPT| -----------------------------------------------------------------------
 BASOPT|        1     |       1     | 0.87702330E-02 | 0.23783377E+03 |   72.806
 BASOPT|        2     |       1     | 0.59153029E-02 | 0.27256395E+03 |   41.580
 BASOPT|        3     |       1     | 0.65796132E-02 | 0.20686462E+03 |   66.644
 BASOPT| -----------------------------------------------------------------------
 BASOPT| Total residuum value: -.98803751E+03

 BASOPT| Information at iteration number:     800
 BASOPT| Training set | Combination | Rho difference | Condition num. | Time
 BASOPT| -----------------------------------------------------------------------
 BASOPT|        1     |       1     | 0.85747023E-02 | 0.24844633E+03 |   83.136
 BASOPT|        2     |       1     | 0.58907193E-02 | 0.29245414E+03 |   47.502
 BASOPT|        3     |       1     | 0.64942251E-02 | 0.21652156E+03 |   76.153
 BASOPT| -----------------------------------------------------------------------
 BASOPT| Total residuum value: -.98804507E+03

 BASOPT| Information at iteration number:     900
 BASOPT| Training set | Combination | Rho difference | Condition num. | Time
 BASOPT| -----------------------------------------------------------------------
 BASOPT|        1     |       1     | 0.90316632E-02 | 0.24419525E+03 |   93.517
 BASOPT|        2     |       1     | 0.63644665E-02 | 0.25848389E+03 |   53.437
 BASOPT|        3     |       1     | 0.71051870E-02 | 0.19927406E+03 |   85.672
 BASOPT| -----------------------------------------------------------------------
 BASOPT| Total residuum value: -.98803969E+03

 BASOPT| Information at iteration number:    1000
 BASOPT| Training set | Combination | Rho difference | Condition num. | Time
 BASOPT| -----------------------------------------------------------------------
 BASOPT|        1     |       1     | 0.84154916E-02 | 0.24811859E+03 |  103.999
 BASOPT|        2     |       1     | 0.58177793E-02 | 0.24977695E+03 |   59.375
 BASOPT|        3     |       1     | 0.66817048E-02 | 0.19519325E+03 |   95.200
 BASOPT| -----------------------------------------------------------------------
 BASOPT| Total residuum value: -.98806188E+03

 BASOPT| Information at iteration number:    1100
 BASOPT| Training set | Combination | Rho difference | Condition num. | Time
 BASOPT| -----------------------------------------------------------------------
 BASOPT|        1     |       1     | 0.84347080E-02 | 0.24734556E+03 |  114.506
 BASOPT|        2     |       1     | 0.57947879E-02 | 0.24837407E+03 |   65.313
 BASOPT|        3     |       1     | 0.66310225E-02 | 0.19542985E+03 |  104.732
 BASOPT| -----------------------------------------------------------------------
 BASOPT| Total residuum value: -.98806219E+03

 BASOPT| Information at iteration number:    1200
 BASOPT| Training set | Combination | Rho difference | Condition num. | Time
 BASOPT| -----------------------------------------------------------------------
 BASOPT|        1     |       1     | 0.83188688E-02 | 0.25471698E+03 |  124.998
 BASOPT|        2     |       1     | 0.57276505E-02 | 0.25329407E+03 |   71.250
 BASOPT|        3     |       1     | 0.65402415E-02 | 0.19864500E+03 |  114.264
 BASOPT| -----------------------------------------------------------------------
 BASOPT| Total residuum value: -.98806555E+03

 BASOPT| Information at iteration number:    1300
 BASOPT| Training set | Combination | Rho difference | Condition num. | Time
 BASOPT| -----------------------------------------------------------------------
 BASOPT|        1     |       1     | 0.83458571E-02 | 0.24142147E+03 |  135.484
 BASOPT|        2     |       1     | 0.57307517E-02 | 0.22736321E+03 |   77.190
 BASOPT|        3     |       1     | 0.65512192E-02 | 0.18735964E+03 |  123.797
 BASOPT| -----------------------------------------------------------------------
 BASOPT| Total residuum value: -.98807545E+03

 BASOPT| Information at iteration number:    1400
 BASOPT| Training set | Combination | Rho difference | Condition num. | Time
 BASOPT| -----------------------------------------------------------------------
 BASOPT|        1     |       1     | 0.81395890E-02 | 0.24413893E+03 |  146.014
 BASOPT|        2     |       1     | 0.53726836E-02 | 0.22960648E+03 |   83.128
 BASOPT|        3     |       1     | 0.61128628E-02 | 0.19081264E+03 |  133.324
 BASOPT| -----------------------------------------------------------------------
 BASOPT| Total residuum value: -.98807669E+03

 BASOPT| Information at iteration number:    1500
 BASOPT| Training set | Combination | Rho difference | Condition num. | Time
 BASOPT| -----------------------------------------------------------------------
 BASOPT|        1     |       1     | 0.81756959E-02 | 0.24710110E+03 |  156.531
 BASOPT|        2     |       1     | 0.54440598E-02 | 0.23619468E+03 |   89.065
 BASOPT|        3     |       1     | 0.61750007E-02 | 0.19613373E+03 |  142.855
 BASOPT| -----------------------------------------------------------------------
 BASOPT| Total residuum value: -.98808069E+03

 BASOPT| Information at iteration number:    1600
 BASOPT| Training set | Combination | Rho difference | Condition num. | Time
 BASOPT| -----------------------------------------------------------------------
 BASOPT|        1     |       1     | 0.81900136E-02 | 0.23523158E+03 |  167.050
 BASOPT|        2     |       1     | 0.54337709E-02 | 0.21325877E+03 |   95.000
 BASOPT|        3     |       1     | 0.61711721E-02 | 0.18418338E+03 |  152.389
 BASOPT| -----------------------------------------------------------------------
 BASOPT| Total residuum value: -.98808390E+03

 BASOPT| Information at iteration number:    1700
 BASOPT| Training set | Combination | Rho difference | Condition num. | Time
 BASOPT| -----------------------------------------------------------------------
 BASOPT|        1     |       1     | 0.85233289E-02 | 0.24060735E+03 |  177.590
 BASOPT|        2     |       1     | 0.57601396E-02 | 0.22346541E+03 |  100.940
 BASOPT|        3     |       1     | 0.63753506E-02 | 0.19272782E+03 |  161.930
 BASOPT| -----------------------------------------------------------------------
 BASOPT| Total residuum value: -.98808086E+03

 BASOPT| Information at iteration number:    1800
 BASOPT| Training set | Combination | Rho difference | Condition num. | Time
 BASOPT| -----------------------------------------------------------------------
 BASOPT|        1     |       1     | 0.81396551E-02 | 0.23180218E+03 |  188.113
 BASOPT|        2     |       1     | 0.54904873E-02 | 0.20553799E+03 |  106.878
 BASOPT|        3     |       1     | 0.62341751E-02 | 0.18069467E+03 |  171.463
 BASOPT| -----------------------------------------------------------------------
 BASOPT| Total residuum value: -.98808673E+03

 BASOPT| Information at iteration number:    1900
 BASOPT| Training set | Combination | Rho difference | Condition num. | Time
 BASOPT| -----------------------------------------------------------------------
 BASOPT|        1     |       1     | 0.81699150E-02 | 0.23295127E+03 |  198.651
 BASOPT|        2     |       1     | 0.54288455E-02 | 0.20886756E+03 |  112.811
 BASOPT|        3     |       1     | 0.61735323E-02 | 0.18334954E+03 |  180.999
 BASOPT| -----------------------------------------------------------------------
 BASOPT| Total residuum value: -.98808794E+03

 BASOPT| Information at iteration number:    2000
 BASOPT| Training set | Combination | Rho difference | Condition num. | Time
 BASOPT| -----------------------------------------------------------------------
 BASOPT|        1     |       1     | 0.80640515E-02 | 0.23178205E+03 |  209.190
 BASOPT|        2     |       1     | 0.54010347E-02 | 0.20582345E+03 |  118.756
 BASOPT|        3     |       1     | 0.62206486E-02 | 0.18227733E+03 |  190.539
 BASOPT| -----------------------------------------------------------------------
 BASOPT| Total residuum value: -.98808618E+03

 BASOPT| Information at iteration number:    2100
 BASOPT| Training set | Combination | Rho difference | Condition num. | Time
 BASOPT| -----------------------------------------------------------------------
 BASOPT|        1     |       1     | 0.82268895E-02 | 0.23176662E+03 |  219.723
 BASOPT|        2     |       1     | 0.55387157E-02 | 0.20738986E+03 |  124.689
 BASOPT|        3     |       1     | 0.62882729E-02 | 0.18411561E+03 |  200.075
 BASOPT| -----------------------------------------------------------------------
 BASOPT| Total residuum value: -.98809045E+03

 BASOPT| Information at iteration number:    2200
 BASOPT| Training set | Combination | Rho difference | Condition num. | Time
 BASOPT| -----------------------------------------------------------------------
 BASOPT|        1     |       1     | 0.81858049E-02 | 0.23042662E+03 |  230.283
 BASOPT|        2     |       1     | 0.54600261E-02 | 0.20384882E+03 |  130.637
 BASOPT|        3     |       1     | 0.62048821E-02 | 0.18311500E+03 |  209.622
 BASOPT| -----------------------------------------------------------------------
 BASOPT| Total residuum value: -.98809193E+03

 BASOPT| Information at iteration number:    2300
 BASOPT| Training set | Combination | Rho difference | Condition num. | Time
 BASOPT| -----------------------------------------------------------------------
 BASOPT|        1     |       1     | 0.81725680E-02 | 0.23038413E+03 |  240.841
 BASOPT|        2     |       1     | 0.54294335E-02 | 0.19719104E+03 |  136.572
 BASOPT|        3     |       1     | 0.61068780E-02 | 0.18099933E+03 |  219.168
 BASOPT| -----------------------------------------------------------------------
 BASOPT| Total residuum value: -.98809606E+03

 BASOPT| Information at iteration number:    2400
 BASOPT| Training set | Combination | Rho difference | Condition num. | Time
 BASOPT| -----------------------------------------------------------------------
 BASOPT|        1     |       1     | 0.82016723E-02 | 0.23036318E+03 |  251.401
 BASOPT|        2     |       1     | 0.54600051E-02 | 0.19577131E+03 |  142.513
 BASOPT|        3     |       1     | 0.61029276E-02 | 0.18247627E+03 |  228.715
 BASOPT| -----------------------------------------------------------------------
 BASOPT| Total residuum value: -.98809939E+03

 BASOPT| Information at iteration number:    2500
 BASOPT| Training set | Combination | Rho difference | Condition num. | Time
 BASOPT| -----------------------------------------------------------------------
 BASOPT|        1     |       1     | 0.82186080E-02 | 0.22384193E+03 |  261.971
 BASOPT|        2     |       1     | 0.54900156E-02 | 0.18641192E+03 |  148.474
 BASOPT|        3     |       1     | 0.61105041E-02 | 0.17831511E+03 |  238.264
 BASOPT| -----------------------------------------------------------------------
 BASOPT| Total residuum value: -.98810090E+03

 BASOPT| Information at iteration number:    2600
 BASOPT| Training set | Combination | Rho difference | Condition num. | Time
 BASOPT| -----------------------------------------------------------------------
 BASOPT|        1     |       1     | 0.81855932E-02 | 0.22123476E+03 |  272.541
 BASOPT|        2     |       1     | 0.54318699E-02 | 0.18394208E+03 |  154.434
 BASOPT|        3     |       1     | 0.60392777E-02 | 0.17818031E+03 |  247.810
 BASOPT| -----------------------------------------------------------------------
 BASOPT| Total residuum value: -.98810236E+03

 BASOPT| Information at iteration number:    2700
 BASOPT| Training set | Combination | Rho difference | Condition num. | Time
 BASOPT| -----------------------------------------------------------------------
 BASOPT|        1     |       1     | 0.82101218E-02 | 0.21597983E+03 |  283.114
 BASOPT|        2     |       1     | 0.54623650E-02 | 0.17904170E+03 |  160.395
 BASOPT|        3     |       1     | 0.60418940E-02 | 0.17771034E+03 |  257.353
 BASOPT| -----------------------------------------------------------------------
 BASOPT| Total residuum value: -.98810420E+03

 BASOPT| Information at iteration number:    2800
 BASOPT| Training set | Combination | Rho difference | Condition num. | Time
 BASOPT| -----------------------------------------------------------------------
 BASOPT|        1     |       1     | 0.82299031E-02 | 0.21170049E+03 |  293.672
 BASOPT|        2     |       1     | 0.54661947E-02 | 0.17537702E+03 |  166.335
 BASOPT|        3     |       1     | 0.60057675E-02 | 0.17720151E+03 |  266.900
 BASOPT| -----------------------------------------------------------------------
 BASOPT| Total residuum value: -.98810570E+03

 BASOPT| Information at iteration number:    2900
 BASOPT| Training set | Combination | Rho difference | Condition num. | Time
 BASOPT| -----------------------------------------------------------------------
 BASOPT|        1     |       1     | 0.82070314E-02 | 0.20809790E+03 |  304.281
 BASOPT|        2     |       1     | 0.54194330E-02 | 0.17200610E+03 |  172.290
 BASOPT|        3     |       1     | 0.59454378E-02 | 0.17560035E+03 |  276.453
 BASOPT| -----------------------------------------------------------------------
 BASOPT| Total residuum value: -.98810681E+03

 BASOPT| Information at iteration number:    3000
 BASOPT| Training set | Combination | Rho difference | Condition num. | Time
 BASOPT| -----------------------------------------------------------------------
 BASOPT|        1     |       1     | 0.81972757E-02 | 0.20484961E+03 |  314.843
 BASOPT|        2     |       1     | 0.53931592E-02 | 0.16945957E+03 |  178.249
 BASOPT|        3     |       1     | 0.58915652E-02 | 0.17511351E+03 |  286.002
 BASOPT| -----------------------------------------------------------------------
 BASOPT| Total residuum value: -.98810823E+03

 BASOPT| Information at iteration number:    3100
 BASOPT| Training set | Combination | Rho difference | Condition num. | Time
 BASOPT| -----------------------------------------------------------------------
 BASOPT|        1     |       1     | 0.81790908E-02 | 0.20023340E+03 |  325.457
 BASOPT|        2     |       1     | 0.54061042E-02 | 0.16537274E+03 |  184.203
 BASOPT|        3     |       1     | 0.58866632E-02 | 0.17300122E+03 |  295.596
 BASOPT| -----------------------------------------------------------------------
 BASOPT| Total residuum value: -.98811076E+03

 BASOPT| Information at iteration number:    3200
 BASOPT| Training set | Combination | Rho difference | Condition num. | Time
 BASOPT| -----------------------------------------------------------------------
 BASOPT|        1     |       1     | 0.81413982E-02 | 0.19464572E+03 |  336.124
 BASOPT|        2     |       1     | 0.54330365E-02 | 0.16006392E+03 |  190.191
 BASOPT|        3     |       1     | 0.59250595E-02 | 0.17034609E+03 |  305.250
 BASOPT| -----------------------------------------------------------------------
 BASOPT| Total residuum value: -.98811307E+03

 BASOPT| Information at iteration number:    3300
 BASOPT| Training set | Combination | Rho difference | Condition num. | Time
 BASOPT| -----------------------------------------------------------------------
 BASOPT|        1     |       1     | 0.81000976E-02 | 0.19342165E+03 |  346.799
 BASOPT|        2     |       1     | 0.53682485E-02 | 0.15929782E+03 |  196.170
 BASOPT|        3     |       1     | 0.58507652E-02 | 0.17169880E+03 |  314.891
 BASOPT| -----------------------------------------------------------------------
 BASOPT| Total residuum value: -.98811477E+03

 BASOPT| Information at iteration number:    3400
 BASOPT| Training set | Combination | Rho difference | Condition num. | Time
 BASOPT| -----------------------------------------------------------------------
 BASOPT|        1     |       1     | 0.81207207E-02 | 0.19087376E+03 |  357.475
 BASOPT|        2     |       1     | 0.54126172E-02 | 0.15682327E+03 |  202.226
 BASOPT|        3     |       1     | 0.58597953E-02 | 0.17111080E+03 |  324.544
 BASOPT| -----------------------------------------------------------------------
 BASOPT| Total residuum value: -.98811649E+03

 BASOPT| Information at iteration number:    3500
 BASOPT| Training set | Combination | Rho difference | Condition num. | Time
 BASOPT| -----------------------------------------------------------------------
 BASOPT|        1     |       1     | 0.81417539E-02 | 0.19061181E+03 |  368.037
 BASOPT|        2     |       1     | 0.54409417E-02 | 0.15658529E+03 |  208.165
 BASOPT|        3     |       1     | 0.58533032E-02 | 0.17162092E+03 |  334.082
 BASOPT| -----------------------------------------------------------------------
 BASOPT| Total residuum value: -.98811709E+03

 BASOPT| Information at iteration number:    3600
 BASOPT| Training set | Combination | Rho difference | Condition num. | Time
 BASOPT| -----------------------------------------------------------------------
 BASOPT|        1     |       1     | 0.80918760E-02 | 0.18966436E+03 |  378.711
 BASOPT|        2     |       1     | 0.54166236E-02 | 0.15560140E+03 |  214.211
 BASOPT|        3     |       1     | 0.58227045E-02 | 0.17181452E+03 |  343.711
 BASOPT| -----------------------------------------------------------------------
 BASOPT| Total residuum value: -.98811786E+03

 BASOPT| Information at iteration number:    3700
 BASOPT| Training set | Combination | Rho difference | Condition num. | Time
 BASOPT| -----------------------------------------------------------------------
 BASOPT|        1     |       1     | 0.80758968E-02 | 0.18619601E+03 |  389.290
 BASOPT|        2     |       1     | 0.54294247E-02 | 0.15220406E+03 |  220.152
 BASOPT|        3     |       1     | 0.58227328E-02 | 0.17034435E+03 |  353.280
 BASOPT| -----------------------------------------------------------------------
 BASOPT| Total residuum value: -.98811976E+03

 BASOPT| Information at iteration number:    3800
 BASOPT| Training set | Combination | Rho difference | Condition num. | Time
 BASOPT| -----------------------------------------------------------------------
 BASOPT|        1     |       1     | 0.80218728E-02 | 0.18787016E+03 |  399.855
 BASOPT|        2     |       1     | 0.52873854E-02 | 0.15417200E+03 |  226.105
 BASOPT|        3     |       1     | 0.56895678E-02 | 0.17568821E+03 |  362.829
 BASOPT| -----------------------------------------------------------------------
 BASOPT| Total residuum value: -.98812247E+03

 BASOPT| Information at iteration number:    3900
 BASOPT| Training set | Combination | Rho difference | Condition num. | Time
 BASOPT| -----------------------------------------------------------------------
 BASOPT|        1     |       1     | 0.80533455E-02 | 0.18533139E+03 |  410.475
 BASOPT|        2     |       1     | 0.53173105E-02 | 0.15168913E+03 |  232.057
 BASOPT|        3     |       1     | 0.56929205E-02 | 0.17412973E+03 |  372.378
 BASOPT| -----------------------------------------------------------------------
 BASOPT| Total residuum value: -.98812336E+03

 BASOPT| Information at iteration number:    4000
 BASOPT| Training set | Combination | Rho difference | Condition num. | Time
 BASOPT| -----------------------------------------------------------------------
 BASOPT|        1     |       1     | 0.80297250E-02 | 0.18459386E+03 |  421.071
 BASOPT|        2     |       1     | 0.52860717E-02 | 0.15080288E+03 |  238.023
 BASOPT|        3     |       1     | 0.56678278E-02 | 0.17402582E+03 |  381.947
 BASOPT| -----------------------------------------------------------------------
 BASOPT| Total residuum value: -.98812439E+03

 BASOPT| Information at iteration number:    4100
 BASOPT| Training set | Combination | Rho difference | Condition num. | Time
 BASOPT| -----------------------------------------------------------------------
 BASOPT|        1     |       1     | 0.80672374E-02 | 0.18267947E+03 |  431.656
 BASOPT|        2     |       1     | 0.53869864E-02 | 0.14875426E+03 |  244.014
 BASOPT|        3     |       1     | 0.57721773E-02 | 0.17215898E+03 |  391.527
 BASOPT| -----------------------------------------------------------------------
 BASOPT| Total residuum value: -.98812498E+03

 BASOPT| Information at iteration number:    4200
 BASOPT| Training set | Combination | Rho difference | Condition num. | Time
 BASOPT| -----------------------------------------------------------------------
 BASOPT|        1     |       1     | 0.80074919E-02 | 0.18300547E+03 |  442.251
 BASOPT|        2     |       1     | 0.53514145E-02 | 0.14935683E+03 |  250.104
 BASOPT|        3     |       1     | 0.58091837E-02 | 0.17402217E+03 |  401.204
 BASOPT| -----------------------------------------------------------------------
 BASOPT| Total residuum value: -.98812620E+03

 BASOPT| Information at iteration number:    4300
 BASOPT| Training set | Combination | Rho difference | Condition num. | Time
 BASOPT| -----------------------------------------------------------------------
 BASOPT|        1     |       1     | 0.79903482E-02 | 0.18132522E+03 |  452.855
 BASOPT|        2     |       1     | 0.53610719E-02 | 0.14767850E+03 |  256.187
 BASOPT|        3     |       1     | 0.58555567E-02 | 0.17299741E+03 |  410.883
 BASOPT| -----------------------------------------------------------------------
 BASOPT| Total residuum value: -.98812734E+03

 BASOPT| Information at iteration number:    4400
 BASOPT| Training set | Combination | Rho difference | Condition num. | Time
 BASOPT| -----------------------------------------------------------------------
 BASOPT|        1     |       1     | 0.79780020E-02 | 0.17991433E+03 |  463.633
 BASOPT|        2     |       1     | 0.53451052E-02 | 0.14629451E+03 |  262.260
 BASOPT|        3     |       1     | 0.58630679E-02 | 0.17172424E+03 |  420.574
 BASOPT| -----------------------------------------------------------------------
 BASOPT| Total residuum value: -.98812811E+03

 BASOPT| Information at iteration number:    4500
 BASOPT| Training set | Combination | Rho difference | Condition num. | Time
 BASOPT| -----------------------------------------------------------------------
 BASOPT|        1     |       1     | 0.79502994E-02 | 0.17946550E+03 |  474.318
 BASOPT|        2     |       1     | 0.53248371E-02 | 0.14608144E+03 |  268.336
 BASOPT|        3     |       1     | 0.58797195E-02 | 0.17215096E+03 |  430.256
 BASOPT| -----------------------------------------------------------------------
 BASOPT| Total residuum value: -.98812911E+03

 BASOPT| Information at iteration number:    4600
 BASOPT| Training set | Combination | Rho difference | Condition num. | Time
 BASOPT| -----------------------------------------------------------------------
 BASOPT|        1     |       1     | 0.79545605E-02 | 0.17340696E+03 |  485.151
 BASOPT|        2     |       1     | 0.54230398E-02 | 0.14021397E+03 |  274.418
 BASOPT|        3     |       1     | 0.60418812E-02 | 0.16696279E+03 |  439.943
 BASOPT| -----------------------------------------------------------------------
 BASOPT| Total residuum value: -.98813070E+03

 BASOPT| Information at iteration number:    4700
 BASOPT| Training set | Combination | Rho difference | Condition num. | Time
 BASOPT| -----------------------------------------------------------------------
 BASOPT|        1     |       1     | 0.79204486E-02 | 0.17397874E+03 |  495.991
 BASOPT|        2     |       1     | 0.53541149E-02 | 0.14129128E+03 |  280.503
 BASOPT|        3     |       1     | 0.59973299E-02 | 0.16863569E+03 |  449.628
 BASOPT| -----------------------------------------------------------------------
 BASOPT| Total residuum value: -.98813163E+03

 BASOPT| Information at iteration number:    4800
 BASOPT| Training set | Combination | Rho difference | Condition num. | Time
 BASOPT| -----------------------------------------------------------------------
 BASOPT|        1     |       1     | 0.79095212E-02 | 0.17212349E+03 |  506.850
 BASOPT|        2     |       1     | 0.53389717E-02 | 0.14010635E+03 |  286.581
 BASOPT|        3     |       1     | 0.59984122E-02 | 0.16783623E+03 |  459.319
 BASOPT| -----------------------------------------------------------------------
 BASOPT| Total residuum value: -.98813243E+03

 BASOPT| Information at iteration number:    4900
 BASOPT| Training set | Combination | Rho difference | Condition num. | Time
 BASOPT| -----------------------------------------------------------------------
 BASOPT|        1     |       1     | 0.78955279E-02 | 0.17019107E+03 |  517.687
 BASOPT|        2     |       1     | 0.53178397E-02 | 0.13884119E+03 |  292.660
 BASOPT|        3     |       1     | 0.59980106E-02 | 0.16712545E+03 |  469.010
 BASOPT| -----------------------------------------------------------------------
 BASOPT| Total residuum value: -.98813311E+03

 BASOPT| Information at iteration number:    5000
 BASOPT| Training set | Combination | Rho difference | Condition num. | Time
 BASOPT| -----------------------------------------------------------------------
 BASOPT|        1     |       1     | 0.79030799E-02 | 0.16957644E+03 |  528.522
 BASOPT|        2     |       1     | 0.53168108E-02 | 0.13903429E+03 |  298.743
 BASOPT|        3     |       1     | 0.60096967E-02 | 0.16802772E+03 |  478.715
 BASOPT| -----------------------------------------------------------------------
 BASOPT| Total residuum value: -.98813382E+03

 BASOPT| Information at iteration number:    5100
 BASOPT| Training set | Combination | Rho difference | Condition num. | Time
 BASOPT| -----------------------------------------------------------------------
 BASOPT|        1     |       1     | 0.78988063E-02 | 0.16883505E+03 |  539.313
 BASOPT|        2     |       1     | 0.52865293E-02 | 0.13814955E+03 |  304.827
 BASOPT|        3     |       1     | 0.59597364E-02 | 0.16701132E+03 |  488.423
 BASOPT| -----------------------------------------------------------------------
 BASOPT| Total residuum value: -.98813436E+03

 BASOPT| Information at iteration number:    5200
 BASOPT| Training set | Combination | Rho difference | Condition num. | Time
 BASOPT| -----------------------------------------------------------------------
 BASOPT|        1     |       1     | 0.79057316E-02 | 0.16849772E+03 |  550.141
 BASOPT|        2     |       1     | 0.53090084E-02 | 0.13838544E+03 |  310.906
 BASOPT|        3     |       1     | 0.59906783E-02 | 0.16766781E+03 |  498.124
 BASOPT| -----------------------------------------------------------------------
 BASOPT| Total residuum value: -.98813495E+03

 BASOPT| Information at iteration number:    5300
 BASOPT| Training set | Combination | Rho difference | Condition num. | Time
 BASOPT| -----------------------------------------------------------------------
 BASOPT|        1     |       1     | 0.78760552E-02 | 0.16941402E+03 |  561.032
 BASOPT|        2     |       1     | 0.52388915E-02 | 0.14003124E+03 |  316.988
 BASOPT|        3     |       1     | 0.59369731E-02 | 0.16980330E+03 |  507.824
 BASOPT| -----------------------------------------------------------------------
 BASOPT| Total residuum value: -.98813519E+03

 BASOPT| Information at iteration number:    5400
 BASOPT| Training set | Combination | Rho difference | Condition num. | Time
 BASOPT| -----------------------------------------------------------------------
 BASOPT|        1     |       1     | 0.78347602E-02 | 0.16834372E+03 |  571.905
 BASOPT|        2     |       1     | 0.51878660E-02 | 0.13925170E+03 |  323.064
 BASOPT|        3     |       1     | 0.58933739E-02 | 0.16879097E+03 |  517.523
 BASOPT| -----------------------------------------------------------------------
 BASOPT| Total residuum value: -.98813539E+03

 BASOPT| Information at iteration number:    5500
 BASOPT| Training set | Combination | Rho difference | Condition num. | Time
 BASOPT| -----------------------------------------------------------------------
 BASOPT|        1     |       1     | 0.78561658E-02 | 0.16879360E+03 |  582.653
 BASOPT|        2     |       1     | 0.52067942E-02 | 0.14081328E+03 |  329.149
 BASOPT|        3     |       1     | 0.59284736E-02 | 0.17025557E+03 |  527.220
 BASOPT| -----------------------------------------------------------------------
 BASOPT| Total residuum value: -.98813596E+03

 BASOPT| Information at iteration number:    5600
 BASOPT| Training set | Combination | Rho difference | Condition num. | Time
 BASOPT| -----------------------------------------------------------------------
 BASOPT|        1     |       1     | 0.78610645E-02 | 0.16869212E+03 |  593.340
 BASOPT|        2     |       1     | 0.52126323E-02 | 0.14156520E+03 |  335.229
 BASOPT|        3     |       1     | 0.59302525E-02 | 0.17092108E+03 |  536.913
 BASOPT| -----------------------------------------------------------------------
 BASOPT| Total residuum value: -.98813623E+03

 BASOPT| Information at iteration number:    5700
 BASOPT| Training set | Combination | Rho difference | Condition num. | Time
 BASOPT| -----------------------------------------------------------------------
 BASOPT|        1     |       1     | 0.78426387E-02 | 0.16853008E+03 |  604.029
 BASOPT|        2     |       1     | 0.51992805E-02 | 0.14239673E+03 |  341.320
 BASOPT|        3     |       1     | 0.59379367E-02 | 0.17177461E+03 |  546.609
 BASOPT| -----------------------------------------------------------------------
 BASOPT| Total residuum value: -.98813640E+03

 BASOPT| Information at iteration number:    5800
 BASOPT| Training set | Combination | Rho difference | Condition num. | Time
 BASOPT| -----------------------------------------------------------------------
 BASOPT|        1     |       1     | 0.78624742E-02 | 0.16838450E+03 |  614.736
 BASOPT|        2     |       1     | 0.52223061E-02 | 0.14264384E+03 |  347.415
 BASOPT|        3     |       1     | 0.59551345E-02 | 0.17194818E+03 |  556.301
 BASOPT| -----------------------------------------------------------------------
 BASOPT| Total residuum value: -.98813663E+03

 BASOPT| Information at iteration number:    5900
 BASOPT| Training set | Combination | Rho difference | Condition num. | Time
 BASOPT| -----------------------------------------------------------------------
 BASOPT|        1     |       1     | 0.78917275E-02 | 0.16624309E+03 |  625.379
 BASOPT|        2     |       1     | 0.52552822E-02 | 0.14055014E+03 |  353.520
 BASOPT|        3     |       1     | 0.59878322E-02 | 0.16964772E+03 |  565.993
 BASOPT| -----------------------------------------------------------------------
 BASOPT| Total residuum value: -.98813696E+03

 BASOPT| Information at iteration number:    6000
 BASOPT| Training set | Combination | Rho difference | Condition num. | Time
 BASOPT| -----------------------------------------------------------------------
 BASOPT|        1     |       1     | 0.78432234E-02 | 0.16770291E+03 |  636.077
 BASOPT|        2     |       1     | 0.51891231E-02 | 0.14286621E+03 |  359.610
 BASOPT|        3     |       1     | 0.59287616E-02 | 0.17237940E+03 |  575.682
 BASOPT| -----------------------------------------------------------------------
 BASOPT| Total residuum value: -.98813735E+03

 BASOPT| Information at iteration number:    6100
 BASOPT| Training set | Combination | Rho difference | Condition num. | Time
 BASOPT| -----------------------------------------------------------------------
 BASOPT|        1     |       1     | 0.78266162E-02 | 0.16780066E+03 |  646.674
 BASOPT|        2     |       1     | 0.51465083E-02 | 0.14300484E+03 |  365.713
 BASOPT|        3     |       1     | 0.58802807E-02 | 0.17291087E+03 |  585.371
 BASOPT| -----------------------------------------------------------------------
 BASOPT| Total residuum value: -.98813752E+03

 BASOPT| Information at iteration number:    6200
 BASOPT| Training set | Combination | Rho difference | Condition num. | Time
 BASOPT| -----------------------------------------------------------------------
 BASOPT|        1     |       1     | 0.78007082E-02 | 0.16753092E+03 |  657.256
 BASOPT|        2     |       1     | 0.51231659E-02 | 0.14305426E+03 |  371.816
 BASOPT|        3     |       1     | 0.58815849E-02 | 0.17347311E+03 |  595.061
 BASOPT| -----------------------------------------------------------------------
 BASOPT| Total residuum value: -.98813776E+03

 BASOPT| Information at iteration number:    6300
 BASOPT| Training set | Combination | Rho difference | Condition num. | Time
 BASOPT| -----------------------------------------------------------------------
 BASOPT|        1     |       1     | 0.78249975E-02 | 0.16798563E+03 |  667.835
 BASOPT|        2     |       1     | 0.51422616E-02 | 0.14377668E+03 |  377.909
 BASOPT|        3     |       1     | 0.58984609E-02 | 0.17463487E+03 |  604.756
 BASOPT| -----------------------------------------------------------------------
 BASOPT| Total residuum value: -.98813806E+03

 BASOPT| Information at iteration number:    6400
 BASOPT| Training set | Combination | Rho difference | Condition num. | Time
 BASOPT| -----------------------------------------------------------------------
 BASOPT|        1     |       1     | 0.78142148E-02 | 0.16820294E+03 |  678.432
 BASOPT|        2     |       1     | 0.51242612E-02 | 0.14419059E+03 |  384.008
 BASOPT|        3     |       1     | 0.58857672E-02 | 0.17566555E+03 |  614.454
 BASOPT| -----------------------------------------------------------------------
 BASOPT| Total residuum value: -.98813830E+03

 BASOPT| Information at iteration number:    6500
 BASOPT| Training set | Combination | Rho difference | Condition num. | Time
 BASOPT| -----------------------------------------------------------------------
 BASOPT|        1     |       1     | 0.78269518E-02 | 0.16940812E+03 |  689.023
 BASOPT|        2     |       1     | 0.51178184E-02 | 0.14611078E+03 |  390.100
 BASOPT|        3     |       1     | 0.58825506E-02 | 0.17831263E+03 |  624.145
 BASOPT| -----------------------------------------------------------------------
 BASOPT| Total residuum value: -.98813885E+03

 BASOPT| Information at iteration number:    6600
 BASOPT| Training set | Combination | Rho difference | Condition num. | Time
 BASOPT| -----------------------------------------------------------------------
 BASOPT|        1     |       1     | 0.78245941E-02 | 0.16913362E+03 |  699.648
 BASOPT|        2     |       1     | 0.51309894E-02 | 0.14583684E+03 |  396.203
 BASOPT|        3     |       1     | 0.59152847E-02 | 0.17830999E+03 |  633.842
 BASOPT| -----------------------------------------------------------------------
 BASOPT| Total residuum value: -.98813918E+03

 BASOPT| Information at iteration number:    6700
 BASOPT| Training set | Combination | Rho difference | Condition num. | Time
 BASOPT| -----------------------------------------------------------------------
 BASOPT|        1     |       1     | 0.78106073E-02 | 0.16838288E+03 |  710.248
 BASOPT|        2     |       1     | 0.51314113E-02 | 0.14467697E+03 |  402.306
 BASOPT|        3     |       1     | 0.59316408E-02 | 0.17716473E+03 |  643.541
 BASOPT| -----------------------------------------------------------------------
 BASOPT| Total residuum value: -.98813926E+03

 BASOPT| Information at iteration number:    6800
 BASOPT| Training set | Combination | Rho difference | Condition num. | Time
 BASOPT| -----------------------------------------------------------------------
 BASOPT|        1     |       1     | 0.78285929E-02 | 0.16933930E+03 |  720.841
 BASOPT|        2     |       1     | 0.51460471E-02 | 0.14613259E+03 |  408.410
 BASOPT|        3     |       1     | 0.59340420E-02 | 0.17923721E+03 |  653.243
 BASOPT| -----------------------------------------------------------------------
 BASOPT| Total residuum value: -.98813953E+03

 BASOPT| Information at iteration number:    6900
 BASOPT| Training set | Combination | Rho difference | Condition num. | Time
 BASOPT| -----------------------------------------------------------------------
 BASOPT|        1     |       1     | 0.78394898E-02 | 0.16926423E+03 |  731.427
 BASOPT|        2     |       1     | 0.51557079E-02 | 0.14572940E+03 |  414.508
 BASOPT|        3     |       1     | 0.59558436E-02 | 0.17913263E+03 |  662.940
 BASOPT| -----------------------------------------------------------------------
 BASOPT| Total residuum value: -.98813973E+03

 BASOPT| Information at iteration number:    7000
 BASOPT| Training set | Combination | Rho difference | Condition num. | Time
 BASOPT| -----------------------------------------------------------------------
 BASOPT|        1     |       1     | 0.78436642E-02 | 0.17026437E+03 |  742.012
 BASOPT|        2     |       1     | 0.51413764E-02 | 0.14694972E+03 |  420.604
 BASOPT|        3     |       1     | 0.59388735E-02 | 0.18082784E+03 |  672.633
 BASOPT| -----------------------------------------------------------------------
 BASOPT| Total residuum value: -.98813976E+03

 BASOPT| Information at iteration number:    7100
 BASOPT| Training set | Combination | Rho difference | Condition num. | Time
 BASOPT| -----------------------------------------------------------------------
 BASOPT|        1     |       1     | 0.78328054E-02 | 0.17069243E+03 |  752.599
 BASOPT|        2     |       1     | 0.51415519E-02 | 0.14748101E+03 |  426.685
 BASOPT|        3     |       1     | 0.59421343E-02 | 0.18179241E+03 |  682.329
 BASOPT| -----------------------------------------------------------------------
 BASOPT| Total residuum value: -.98814004E+03

 BASOPT| Information at iteration number:    7200
 BASOPT| Training set | Combination | Rho difference | Condition num. | Time
 BASOPT| -----------------------------------------------------------------------
 BASOPT|        1     |       1     | 0.78096094E-02 | 0.17101367E+03 |  763.211
 BASOPT|        2     |       1     | 0.51071123E-02 | 0.14768552E+03 |  432.778
 BASOPT|        3     |       1     | 0.59175449E-02 | 0.18227396E+03 |  692.033
 BASOPT| -----------------------------------------------------------------------
 BASOPT| Total residuum value: -.98814015E+03

 BASOPT| Information at iteration number:    7300
 BASOPT| Training set | Combination | Rho difference | Condition num. | Time
 BASOPT| -----------------------------------------------------------------------
 BASOPT|        1     |       1     | 0.78266251E-02 | 0.17112795E+03 |  773.844
 BASOPT|        2     |       1     | 0.51259692E-02 | 0.14760527E+03 |  438.868
 BASOPT|        3     |       1     | 0.59396647E-02 | 0.18235337E+03 |  701.733
 BASOPT| -----------------------------------------------------------------------
 BASOPT| Total residuum value: -.98814034E+03

 BASOPT| Information at iteration number:    7400
 BASOPT| Training set | Combination | Rho difference | Condition num. | Time
 BASOPT| -----------------------------------------------------------------------
 BASOPT|        1     |       1     | 0.78604291E-02 | 0.17162877E+03 |  784.478
 BASOPT|        2     |       1     | 0.51635215E-02 | 0.14823005E+03 |  444.962
 BASOPT|        3     |       1     | 0.59538875E-02 | 0.18327253E+03 |  711.433
 BASOPT| -----------------------------------------------------------------------
 BASOPT| Total residuum value: -.98814038E+03

 BASOPT| Information at iteration number:    7500
 BASOPT| Training set | Combination | Rho difference | Condition num. | Time
 BASOPT| -----------------------------------------------------------------------
 BASOPT|        1     |       1     | 0.78223259E-02 | 0.17236946E+03 |  795.092
 BASOPT|        2     |       1     | 0.51084930E-02 | 0.14900076E+03 |  451.071
 BASOPT|        3     |       1     | 0.59258748E-02 | 0.18447549E+03 |  721.133
 BASOPT| -----------------------------------------------------------------------
 BASOPT| Total residuum value: -.98814063E+03

 BASOPT| Information at iteration number:    7600
 BASOPT| Training set | Combination | Rho difference | Condition num. | Time
 BASOPT| -----------------------------------------------------------------------
 BASOPT|        1     |       1     | 0.78306056E-02 | 0.17287841E+03 |  805.696
 BASOPT|        2     |       1     | 0.51307215E-02 | 0.14961648E+03 |  457.165
 BASOPT|        3     |       1     | 0.59486795E-02 | 0.18542882E+03 |  730.827
 BASOPT| -----------------------------------------------------------------------
 BASOPT| Total residuum value: -.98814070E+03

 BASOPT| Information at iteration number:    7700
 BASOPT| Training set | Combination | Rho difference | Condition num. | Time
 BASOPT| -----------------------------------------------------------------------
 BASOPT|        1     |       1     | 0.78443440E-02 | 0.17288273E+03 |  816.280
 BASOPT|        2     |       1     | 0.51401302E-02 | 0.14896282E+03 |  463.232
 BASOPT|        3     |       1     | 0.59474479E-02 | 0.18474832E+03 |  740.490
 BASOPT| -----------------------------------------------------------------------
 BASOPT| Total residuum value: -.98814093E+03

 BASOPT| Information at iteration number:    7800
 BASOPT| Training set | Combination | Rho difference | Condition num. | Time
 BASOPT| -----------------------------------------------------------------------
 BASOPT|        1     |       1     | 0.78461789E-02 | 0.17352691E+03 |  827.379
 BASOPT|        2     |       1     | 0.51199283E-02 | 0.14968923E+03 |  469.210
 BASOPT|        3     |       1     | 0.59164241E-02 | 0.18565045E+03 |  750.080
 BASOPT| -----------------------------------------------------------------------
 BASOPT| Total residuum value: -.98814106E+03

 BASOPT| Information at iteration number:    7900
 BASOPT| Training set | Combination | Rho difference | Condition num. | Time
 BASOPT| -----------------------------------------------------------------------
 BASOPT|        1     |       1     | 0.78274127E-02 | 0.17421309E+03 |  837.979
 BASOPT|        2     |       1     | 0.51024417E-02 | 0.15019065E+03 |  475.180
 BASOPT|        3     |       1     | 0.59153399E-02 | 0.18642840E+03 |  759.674
 BASOPT| -----------------------------------------------------------------------
 BASOPT| Total residuum value: -.98814138E+03

 BASOPT| Information at iteration number:    8000
 BASOPT| Training set | Combination | Rho difference | Condition num. | Time
 BASOPT| -----------------------------------------------------------------------
 BASOPT|        1     |       1     | 0.78359716E-02 | 0.17492382E+03 |  848.584
 BASOPT|        2     |       1     | 0.51017434E-02 | 0.15115203E+03 |  481.160
 BASOPT|        3     |       1     | 0.59090920E-02 | 0.18759256E+03 |  769.252
 BASOPT| -----------------------------------------------------------------------
 BASOPT| Total residuum value: -.98814151E+03

 BASOPT| Information at iteration number:    8100
 BASOPT| Training set | Combination | Rho difference | Condition num. | Time
 BASOPT| -----------------------------------------------------------------------
 BASOPT|        1     |       1     | 0.78267115E-02 | 0.17506272E+03 |  859.180
 BASOPT|        2     |       1     | 0.50994229E-02 | 0.15112556E+03 |  487.149
 BASOPT|        3     |       1     | 0.59349383E-02 | 0.18719062E+03 |  778.832
 BASOPT| -----------------------------------------------------------------------
 BASOPT| Total residuum value: -.98814189E+03

 BASOPT| Information at iteration number:    8200
 BASOPT| Training set | Combination | Rho difference | Condition num. | Time
 BASOPT| -----------------------------------------------------------------------
 BASOPT|        1     |       1     | 0.78666710E-02 | 0.17577871E+03 |  869.777
 BASOPT|        2     |       1     | 0.51426540E-02 | 0.15239100E+03 |  493.131
 BASOPT|        3     |       1     | 0.59765169E-02 | 0.18832543E+03 |  788.411
 BASOPT| -----------------------------------------------------------------------
 BASOPT| Total residuum value: -.98814195E+03

 BASOPT| Information at iteration number:    8300
 BASOPT| Training set | Combination | Rho difference | Condition num. | Time
 BASOPT| -----------------------------------------------------------------------
 BASOPT|        1     |       1     | 0.77988967E-02 | 0.17578578E+03 |  880.380
 BASOPT|        2     |       1     | 0.50539476E-02 | 0.15184395E+03 |  499.115
 BASOPT|        3     |       1     | 0.59173728E-02 | 0.18766897E+03 |  797.991
 BASOPT| -----------------------------------------------------------------------
 BASOPT| Total residuum value: -.98814222E+03

 BASOPT| Information at iteration number:    8400
 BASOPT| Training set | Combination | Rho difference | Condition num. | Time
 BASOPT| -----------------------------------------------------------------------
 BASOPT|        1     |       1     | 0.78458963E-02 | 0.17581783E+03 |  890.964
 BASOPT|        2     |       1     | 0.51098988E-02 | 0.15188612E+03 |  505.090
 BASOPT|        3     |       1     | 0.59583394E-02 | 0.18785487E+03 |  807.566
 BASOPT| -----------------------------------------------------------------------
 BASOPT| Total residuum value: -.98814210E+03

 BASOPT| Information at iteration number:    8500
 BASOPT| Training set | Combination | Rho difference | Condition num. | Time
 BASOPT| -----------------------------------------------------------------------
 BASOPT|        1     |       1     | 0.78624285E-02 | 0.17754493E+03 |  901.565
 BASOPT|        2     |       1     | 0.51005890E-02 | 0.15486848E+03 |  511.057
 BASOPT|        3     |       1     | 0.59408503E-02 | 0.19158882E+03 |  817.150
 BASOPT| -----------------------------------------------------------------------
 BASOPT| Total residuum value: -.98814237E+03

 BASOPT| Information at iteration number:    8600
 BASOPT| Training set | Combination | Rho difference | Condition num. | Time
 BASOPT| -----------------------------------------------------------------------
 BASOPT|        1     |       1     | 0.78623628E-02 | 0.17748026E+03 |  912.142
 BASOPT|        2     |       1     | 0.50991591E-02 | 0.15441386E+03 |  517.044
 BASOPT|        3     |       1     | 0.59610733E-02 | 0.19104056E+03 |  826.732
 BASOPT| -----------------------------------------------------------------------
 BASOPT| Total residuum value: -.98814287E+03

 BASOPT| Information at iteration number:    8700
 BASOPT| Training set | Combination | Rho difference | Condition num. | Time
 BASOPT| -----------------------------------------------------------------------
 BASOPT|        1     |       1     | 0.78329821E-02 | 0.17742893E+03 |  922.779
 BASOPT|        2     |       1     | 0.50584458E-02 | 0.15393691E+03 |  523.031
 BASOPT|        3     |       1     | 0.59346134E-02 | 0.19040426E+03 |  836.318
 BASOPT| -----------------------------------------------------------------------
 BASOPT| Total residuum value: -.98814296E+03

 BASOPT| Information at iteration number:    8800
 BASOPT| Training set | Combination | Rho difference | Condition num. | Time
 BASOPT| -----------------------------------------------------------------------
 BASOPT|        1     |       1     | 0.78542705E-02 | 0.17885445E+03 |  933.446
 BASOPT|        2     |       1     | 0.50716494E-02 | 0.15612572E+03 |  529.005
 BASOPT|        3     |       1     | 0.59598937E-02 | 0.19306283E+03 |  845.904
 BASOPT| -----------------------------------------------------------------------
 BASOPT| Total residuum value: -.98814344E+03

 BASOPT| Information at iteration number:    8900
 BASOPT| Training set | Combination | Rho difference | Condition num. | Time
 BASOPT| -----------------------------------------------------------------------
 BASOPT|        1     |       1     | 0.78436585E-02 | 0.17855394E+03 |  944.092
 BASOPT|        2     |       1     | 0.50742578E-02 | 0.15530631E+03 |  534.984
 BASOPT|        3     |       1     | 0.59930942E-02 | 0.19162069E+03 |  855.489
 BASOPT| -----------------------------------------------------------------------
 BASOPT| Total residuum value: -.98814339E+03

 BASOPT| Information at iteration number:    9000
 BASOPT| Training set | Combination | Rho difference | Condition num. | Time
 BASOPT| -----------------------------------------------------------------------
 BASOPT|        1     |       1     | 0.78453810E-02 | 0.17882101E+03 |  954.676
 BASOPT|        2     |       1     | 0.50698178E-02 | 0.15592888E+03 |  540.971
 BASOPT|        3     |       1     | 0.59943407E-02 | 0.19230527E+03 |  865.076
 BASOPT| -----------------------------------------------------------------------
 BASOPT| Total residuum value: -.98814387E+03

 BASOPT| Information at iteration number:    9100
 BASOPT| Training set | Combination | Rho difference | Condition num. | Time
 BASOPT| -----------------------------------------------------------------------
 BASOPT|        1     |       1     | 0.78314068E-02 | 0.17892894E+03 |  965.253
 BASOPT|        2     |       1     | 0.50362221E-02 | 0.15634898E+03 |  546.952
 BASOPT|        3     |       1     | 0.59605948E-02 | 0.19279210E+03 |  874.655
 BASOPT| -----------------------------------------------------------------------
 BASOPT| Total residuum value: -.98814394E+03

 BASOPT| Information at iteration number:    9200
 BASOPT| Training set | Combination | Rho difference | Condition num. | Time
 BASOPT| -----------------------------------------------------------------------
 BASOPT|        1     |       1     | 0.78641650E-02 | 0.17967951E+03 |  975.840
 BASOPT|        2     |       1     | 0.50777239E-02 | 0.15897716E+03 |  552.926
 BASOPT|        3     |       1     | 0.59728962E-02 | 0.19592636E+03 |  884.238
 BASOPT| -----------------------------------------------------------------------
 BASOPT| Total residuum value: -.98814410E+03

 BASOPT| Information at iteration number:    9300
 BASOPT| Training set | Combination | Rho difference | Condition num. | Time
 BASOPT| -----------------------------------------------------------------------
 BASOPT|        1     |       1     | 0.78585570E-02 | 0.17905034E+03 |  986.438
 BASOPT|        2     |       1     | 0.50576363E-02 | 0.15780331E+03 |  558.893
 BASOPT|        3     |       1     | 0.59709252E-02 | 0.19453043E+03 |  893.823
 BASOPT| -----------------------------------------------------------------------
 BASOPT| Total residuum value: -.98814438E+03

 BASOPT| Information at iteration number:    9400
 BASOPT| Training set | Combination | Rho difference | Condition num. | Time
 BASOPT| -----------------------------------------------------------------------
 BASOPT|        1     |       1     | 0.78372325E-02 | 0.17953283E+03 |  997.084
 BASOPT|        2     |       1     | 0.50206844E-02 | 0.15856604E+03 |  564.867
 BASOPT|        3     |       1     | 0.59459535E-02 | 0.19559404E+03 |  903.403
 BASOPT| -----------------------------------------------------------------------
 BASOPT| Total residuum value: -.98814454E+03

 BASOPT| Information at iteration number:    9500
 BASOPT| Training set | Combination | Rho difference | Condition num. | Time
 BASOPT| -----------------------------------------------------------------------
 BASOPT|        1     |       1     | 0.78472426E-02 | 0.17971333E+03 | 1007.678
 BASOPT|        2     |       1     | 0.50132877E-02 | 0.15937780E+03 |  570.850
 BASOPT|        3     |       1     | 0.59257303E-02 | 0.19660984E+03 |  912.990
 BASOPT| -----------------------------------------------------------------------
 BASOPT| Total residuum value: -.98814463E+03

 BASOPT| Information at iteration number:    9600
 BASOPT| Training set | Combination | Rho difference | Condition num. | Time
 BASOPT| -----------------------------------------------------------------------
 BASOPT|        1     |       1     | 0.78624401E-02 | 0.17968002E+03 | 1018.288
 BASOPT|        2     |       1     | 0.50219584E-02 | 0.15974112E+03 |  576.832
 BASOPT|        3     |       1     | 0.59180932E-02 | 0.19687137E+03 |  922.577
 BASOPT| -----------------------------------------------------------------------
 BASOPT| Total residuum value: -.98814485E+03

 BASOPT| Information at iteration number:    9700
 BASOPT| Training set | Combination | Rho difference | Condition num. | Time
 BASOPT| -----------------------------------------------------------------------
 BASOPT|        1     |       1     | 0.78596144E-02 | 0.17967440E+03 | 1028.927
 BASOPT|        2     |       1     | 0.50247515E-02 | 0.15965588E+03 |  582.813
 BASOPT|        3     |       1     | 0.59204796E-02 | 0.19649238E+03 |  932.152
 BASOPT| -----------------------------------------------------------------------
 BASOPT| Total residuum value: -.98814506E+03

 BASOPT| Information at iteration number:    9800
 BASOPT| Training set | Combination | Rho difference | Condition num. | Time
 BASOPT| -----------------------------------------------------------------------
 BASOPT|        1     |       1     | 0.78649319E-02 | 0.18009330E+03 | 1039.573
 BASOPT|        2     |       1     | 0.50350373E-02 | 0.16052464E+03 |  588.812
 BASOPT|        3     |       1     | 0.59462188E-02 | 0.19743719E+03 |  941.738
 BASOPT| -----------------------------------------------------------------------
 BASOPT| Total residuum value: -.98814528E+03

 BASOPT| Information at iteration number:    9900
 BASOPT| Training set | Combination | Rho difference | Condition num. | Time
 BASOPT| -----------------------------------------------------------------------
 BASOPT|        1     |       1     | 0.78356115E-02 | 0.18081842E+03 | 1050.175
 BASOPT|        2     |       1     | 0.49971715E-02 | 0.16222193E+03 |  594.805
 BASOPT|        3     |       1     | 0.59110337E-02 | 0.19912733E+03 |  951.315
 BASOPT| -----------------------------------------------------------------------
 BASOPT| Total residuum value: -.98814541E+03

 BASOPT| Information at iteration number:   10000
 BASOPT| Training set | Combination | Rho difference | Condition num. | Time
 BASOPT| -----------------------------------------------------------------------
 BASOPT|        1     |       1     | 0.78463720E-02 | 0.18040362E+03 | 1060.788
 BASOPT|        2     |       1     | 0.50010533E-02 | 0.16154714E+03 |  600.793
 BASOPT|        3     |       1     | 0.59167772E-02 | 0.19808949E+03 |  960.898
 BASOPT| -----------------------------------------------------------------------
 BASOPT| Total residuum value: -.98814573E+03

 BASOPT| Information at iteration number:   10100
 BASOPT| Training set | Combination | Rho difference | Condition num. | Time
 BASOPT| -----------------------------------------------------------------------
 BASOPT|        1     |       1     | 0.78587274E-02 | 0.17993520E+03 | 1071.419
 BASOPT|        2     |       1     | 0.50313579E-02 | 0.16005477E+03 |  606.782
 BASOPT|        3     |       1     | 0.59664047E-02 | 0.19627218E+03 |  970.483
 BASOPT| -----------------------------------------------------------------------
 BASOPT| Total residuum value: -.98814568E+03

 BASOPT| Information at iteration number:   10200
 BASOPT| Training set | Combination | Rho difference | Condition num. | Time
 BASOPT| -----------------------------------------------------------------------
 BASOPT|        1     |       1     | 0.78523415E-02 | 0.18017042E+03 | 1082.052
 BASOPT|        2     |       1     | 0.50235014E-02 | 0.16088621E+03 |  612.771
 BASOPT|        3     |       1     | 0.59603116E-02 | 0.19726030E+03 |  980.075
 BASOPT| -----------------------------------------------------------------------
 BASOPT| Total residuum value: -.98814609E+03

 BASOPT| Information at iteration number:   10300
 BASOPT| Training set | Combination | Rho difference | Condition num. | Time
 BASOPT| -----------------------------------------------------------------------
 BASOPT|        1     |       1     | 0.78592215E-02 | 0.18004082E+03 | 1092.674
 BASOPT|        2     |       1     | 0.50339139E-02 | 0.16079265E+03 |  618.763
 BASOPT|        3     |       1     | 0.59620746E-02 | 0.19699927E+03 |  989.664
 BASOPT| -----------------------------------------------------------------------
 BASOPT| Total residuum value: -.98814614E+03

 BASOPT| Information at iteration number:   10400
 BASOPT| Training set | Combination | Rho difference | Condition num. | Time
 BASOPT| -----------------------------------------------------------------------
 BASOPT|        1     |       1     | 0.78325692E-02 | 0.18057657E+03 | 1103.294
 BASOPT|        2     |       1     | 0.49824727E-02 | 0.16155866E+03 |  624.755
 BASOPT|        3     |       1     | 0.59137628E-02 | 0.19811561E+03 |  999.249
 BASOPT| -----------------------------------------------------------------------
 BASOPT| Total residuum value: -.98814638E+03

 BASOPT| Information at iteration number:   10500
 BASOPT| Training set | Combination | Rho difference | Condition num. | Time
 BASOPT| -----------------------------------------------------------------------
 BASOPT|        1     |       1     | 0.78401558E-02 | 0.18068111E+03 | 1113.909
 BASOPT|        2     |       1     | 0.50048320E-02 | 0.16156067E+03 |  630.743
 BASOPT|        3     |       1     | 0.59407239E-02 | 0.19828723E+03 | 1008.834
 BASOPT| -----------------------------------------------------------------------
 BASOPT| Total residuum value: -.98814653E+03

 BASOPT| Information at iteration number:   10600
 BASOPT| Training set | Combination | Rho difference | Condition num. | Time
 BASOPT| -----------------------------------------------------------------------
 BASOPT|        1     |       1     | 0.78268345E-02 | 0.18105794E+03 | 1124.506
 BASOPT|        2     |       1     | 0.49878992E-02 | 0.16256595E+03 |  636.729
 BASOPT|        3     |       1     | 0.59055929E-02 | 0.19960019E+03 | 1018.414
 BASOPT| -----------------------------------------------------------------------
 BASOPT| Total residuum value: -.98814646E+03

 BASOPT| Information at iteration number:   10700
 BASOPT| Training set | Combination | Rho difference | Condition num. | Time
 BASOPT| -----------------------------------------------------------------------
 BASOPT|        1     |       1     | 0.78350969E-02 | 0.18044291E+03 | 1135.116
 BASOPT|        2     |       1     | 0.49811519E-02 | 0.16160981E+03 |  642.702
 BASOPT|        3     |       1     | 0.58959336E-02 | 0.19825861E+03 | 1027.998
 BASOPT| -----------------------------------------------------------------------
 BASOPT| Total residuum value: -.98814672E+03

 BASOPT| Information at iteration number:   10800
 BASOPT| Training set | Combination | Rho difference | Condition num. | Time
 BASOPT| -----------------------------------------------------------------------
 BASOPT|        1     |       1     | 0.78409860E-02 | 0.18042230E+03 | 1145.730
 BASOPT|        2     |       1     | 0.49924932E-02 | 0.16178068E+03 |  648.681
 BASOPT|        3     |       1     | 0.58956436E-02 | 0.19829383E+03 | 1037.571
 BASOPT| -----------------------------------------------------------------------
 BASOPT| Total residuum value: -.98814685E+03

 BASOPT| Information at iteration number:   10900
 BASOPT| Training set | Combination | Rho difference | Condition num. | Time
 BASOPT| -----------------------------------------------------------------------
 BASOPT|        1     |       1     | 0.78590973E-02 | 0.18148846E+03 | 1156.331
 BASOPT|        2     |       1     | 0.50049143E-02 | 0.16442566E+03 |  654.657
 BASOPT|        3     |       1     | 0.58751925E-02 | 0.20149832E+03 | 1047.149
 BASOPT| -----------------------------------------------------------------------
 BASOPT| Total residuum value: -.98814693E+03

 BASOPT| Information at iteration number:   11000
 BASOPT| Training set | Combination | Rho difference | Condition num. | Time
 BASOPT| -----------------------------------------------------------------------
 BASOPT|        1     |       1     | 0.78031089E-02 | 0.18098623E+03 | 1166.938
 BASOPT|        2     |       1     | 0.49277707E-02 | 0.16312908E+03 |  660.630
 BASOPT|        3     |       1     | 0.58161467E-02 | 0.19987175E+03 | 1056.725
 BASOPT| -----------------------------------------------------------------------
 BASOPT| Total residuum value: -.98814706E+03

 BASOPT| Information at iteration number:   11100
 BASOPT| Training set | Combination | Rho difference | Condition num. | Time
 BASOPT| -----------------------------------------------------------------------
 BASOPT|        1     |       1     | 0.78393258E-02 | 0.18115216E+03 | 1177.550
 BASOPT|        2     |       1     | 0.49803233E-02 | 0.16350027E+03 |  666.607
 BASOPT|        3     |       1     | 0.58668221E-02 | 0.20041972E+03 | 1066.304
 BASOPT| -----------------------------------------------------------------------
 BASOPT| Total residuum value: -.98814722E+03

 BASOPT| Information at iteration number:   11200
 BASOPT| Training set | Combination | Rho difference | Condition num. | Time
 BASOPT| -----------------------------------------------------------------------
 BASOPT|        1     |       1     | 0.78323020E-02 | 0.18136381E+03 | 1188.175
 BASOPT|        2     |       1     | 0.49808811E-02 | 0.16372590E+03 |  672.595
 BASOPT|        3     |       1     | 0.58753730E-02 | 0.20065151E+03 | 1075.887
 BASOPT| -----------------------------------------------------------------------
 BASOPT| Total residuum value: -.98814735E+03

 BASOPT| Information at iteration number:   11300
 BASOPT| Training set | Combination | Rho difference | Condition num. | Time
 BASOPT| -----------------------------------------------------------------------
 BASOPT|        1     |       1     | 0.78217500E-02 | 0.18182869E+03 | 1198.789
 BASOPT|        2     |       1     | 0.49585143E-02 | 0.16451488E+03 |  678.588
 BASOPT|        3     |       1     | 0.58506973E-02 | 0.20153424E+03 | 1085.475
 BASOPT| -----------------------------------------------------------------------
 BASOPT| Total residuum value: -.98814754E+03

 BASOPT| Information at iteration number:   11400
 BASOPT| Training set | Combination | Rho difference | Condition num. | Time
 BASOPT| -----------------------------------------------------------------------
 BASOPT|        1     |       1     | 0.78237697E-02 | 0.18161885E+03 | 1209.416
 BASOPT|        2     |       1     | 0.49614935E-02 | 0.16426774E+03 |  684.575
 BASOPT|        3     |       1     | 0.58614962E-02 | 0.20143487E+03 | 1095.052
 BASOPT| -----------------------------------------------------------------------
 BASOPT| Total residuum value: -.98814760E+03

 BASOPT| Information at iteration number:   11500
 BASOPT| Training set | Combination | Rho difference | Condition num. | Time
 BASOPT| -----------------------------------------------------------------------
 BASOPT|        1     |       1     | 0.78087609E-02 | 0.18136032E+03 | 1220.051
 BASOPT|        2     |       1     | 0.49510618E-02 | 0.16371253E+03 |  690.555
 BASOPT|        3     |       1     | 0.58651156E-02 | 0.20054817E+03 | 1104.623
 BASOPT| -----------------------------------------------------------------------
 BASOPT| Total residuum value: -.98814771E+03

 BASOPT| Information at iteration number:   11600
 BASOPT| Training set | Combination | Rho difference | Condition num. | Time
 BASOPT| -----------------------------------------------------------------------
 BASOPT|        1     |       1     | 0.78002231E-02 | 0.18077509E+03 | 1230.679
 BASOPT|        2     |       1     | 0.49496930E-02 | 0.16234599E+03 |  696.522
 BASOPT|        3     |       1     | 0.58656657E-02 | 0.19859893E+03 | 1114.198
 BASOPT| -----------------------------------------------------------------------
 BASOPT| Total residuum value: -.98814779E+03

 BASOPT| Information at iteration number:   11700
 BASOPT| Training set | Combination | Rho difference | Condition num. | Time
 BASOPT| -----------------------------------------------------------------------
 BASOPT|        1     |       1     | 0.78300276E-02 | 0.18128175E+03 | 1241.351
 BASOPT|        2     |       1     | 0.49883584E-02 | 0.16349430E+03 |  702.500
 BASOPT|        3     |       1     | 0.58955446E-02 | 0.20013878E+03 | 1123.773
 BASOPT| -----------------------------------------------------------------------
 BASOPT| Total residuum value: -.98814790E+03

 BASOPT| Information at iteration number:   11800
 BASOPT| Training set | Combination | Rho difference | Condition num. | Time
 BASOPT| -----------------------------------------------------------------------
 BASOPT|        1     |       1     | 0.78161409E-02 | 0.18100465E+03 | 1252.033
 BASOPT|        2     |       1     | 0.49853059E-02 | 0.16186445E+03 |  708.468
 BASOPT|        3     |       1     | 0.59201387E-02 | 0.19844621E+03 | 1133.343
 BASOPT| -----------------------------------------------------------------------
 BASOPT| Total residuum value: -.98814793E+03

 BASOPT| Information at iteration number:   11900
 BASOPT| Training set | Combination | Rho difference | Condition num. | Time
 BASOPT| -----------------------------------------------------------------------
 BASOPT|        1     |       1     | 0.78151661E-02 | 0.18074178E+03 | 1262.695
 BASOPT|        2     |       1     | 0.49725979E-02 | 0.16123854E+03 |  714.447
 BASOPT|        3     |       1     | 0.59015383E-02 | 0.19784067E+03 | 1142.919
 BASOPT| -----------------------------------------------------------------------
 BASOPT| Total residuum value: -.98814830E+03

 BASOPT| Information at iteration number:   12000
 BASOPT| Training set | Combination | Rho difference | Condition num. | Time
 BASOPT| -----------------------------------------------------------------------
 BASOPT|        1     |       1     | 0.78185447E-02 | 0.18094391E+03 | 1273.307
 BASOPT|        2     |       1     | 0.49824167E-02 | 0.16139658E+03 |  720.440
 BASOPT|        3     |       1     | 0.59049676E-02 | 0.19797294E+03 | 1152.498
 BASOPT| -----------------------------------------------------------------------
 BASOPT| Total residuum value: -.98814840E+03

 BASOPT| Information at iteration number:   12100
 BASOPT| Training set | Combination | Rho difference | Condition num. | Time
 BASOPT| -----------------------------------------------------------------------
 BASOPT|        1     |       1     | 0.78035887E-02 | 0.18074586E+03 | 1283.930
 BASOPT|        2     |       1     | 0.49726204E-02 | 0.16106567E+03 |  726.431
 BASOPT|        3     |       1     | 0.58943878E-02 | 0.19768870E+03 | 1162.074
 BASOPT| -----------------------------------------------------------------------
 BASOPT| Total residuum value: -.98814853E+03

 BASOPT| Information at iteration number:   12200
 BASOPT| Training set | Combination | Rho difference | Condition num. | Time
 BASOPT| -----------------------------------------------------------------------
 BASOPT|        1     |       1     | 0.78024354E-02 | 0.18128521E+03 | 1294.550
 BASOPT|        2     |       1     | 0.49669925E-02 | 0.16219247E+03 |  732.429
 BASOPT|        3     |       1     | 0.58718147E-02 | 0.19904548E+03 | 1171.655
 BASOPT| -----------------------------------------------------------------------
 BASOPT| Total residuum value: -.98814856E+03

 BASOPT| Information at iteration number:   12300
 BASOPT| Training set | Combination | Rho difference | Condition num. | Time
 BASOPT| -----------------------------------------------------------------------
 BASOPT|        1     |       1     | 0.77974283E-02 | 0.18133830E+03 | 1305.174
 BASOPT|        2     |       1     | 0.49850494E-02 | 0.16202538E+03 |  738.423
 BASOPT|        3     |       1     | 0.58918390E-02 | 0.19870233E+03 | 1181.234
 BASOPT| -----------------------------------------------------------------------
 BASOPT| Total residuum value: -.98814865E+03

 BASOPT| Information at iteration number:   12400
 BASOPT| Training set | Combination | Rho difference | Condition num. | Time
 BASOPT| -----------------------------------------------------------------------
 BASOPT|        1     |       1     | 0.78185766E-02 | 0.18120084E+03 | 1315.782
 BASOPT|        2     |       1     | 0.50061323E-02 | 0.16133611E+03 |  744.422
 BASOPT|        3     |       1     | 0.59099844E-02 | 0.19776439E+03 | 1190.823
[...]
 BASOPT| Total residuum value: -.98819310E+03

 BASOPT| Information at iteration number:   99100
 BASOPT| Training set | Combination | Rho difference | Condition num. | Time
 BASOPT| -----------------------------------------------------------------------
 BASOPT|        1     |       1     | 0.77218765E-02 | 0.18929765E+03 | ********
 BASOPT|        2     |       1     | 0.47488592E-02 | 0.18224540E+03 | 5911.448
 BASOPT|        3     |       1     | 0.55783331E-02 | 0.22589070E+03 | 9476.096
 BASOPT| -----------------------------------------------------------------------
 BASOPT| Total residuum value: -.98819311E+03

 BASOPT| Information at iteration number:   99200
 BASOPT| Training set | Combination | Rho difference | Condition num. | Time
 BASOPT| -----------------------------------------------------------------------
 BASOPT|        1     |       1     | 0.77224527E-02 | 0.18928480E+03 | ********
 BASOPT|        2     |       1     | 0.47499099E-02 | 0.18221364E+03 | 5917.412
 BASOPT|        3     |       1     | 0.55802909E-02 | 0.22588234E+03 | 9485.681
 BASOPT| -----------------------------------------------------------------------
 BASOPT| Total residuum value: -.98819312E+03

 BASOPT| Information at iteration number:   99300
 BASOPT| Training set | Combination | Rho difference | Condition num. | Time
 BASOPT| -----------------------------------------------------------------------
 BASOPT|        1     |       1     | 0.77230460E-02 | 0.18923196E+03 | ********
 BASOPT|        2     |       1     | 0.47463693E-02 | 0.18223641E+03 | 5923.413
 BASOPT|        3     |       1     | 0.55724444E-02 | 0.22603815E+03 | 9495.246
 BASOPT| -----------------------------------------------------------------------
 BASOPT| Total residuum value: -.98819312E+03

 BASOPT| Information at iteration number:   99400
 BASOPT| Training set | Combination | Rho difference | Condition num. | Time
 BASOPT| -----------------------------------------------------------------------
 BASOPT|        1     |       1     | 0.77235960E-02 | 0.18920068E+03 | ********
 BASOPT|        2     |       1     | 0.47452518E-02 | 0.18231086E+03 | 5929.382
 BASOPT|        3     |       1     | 0.55688319E-02 | 0.22629353E+03 | 9504.828
 BASOPT| -----------------------------------------------------------------------
 BASOPT| Total residuum value: -.98819313E+03

 BASOPT| Information at iteration number:   99500
 BASOPT| Training set | Combination | Rho difference | Condition num. | Time
 BASOPT| -----------------------------------------------------------------------
 BASOPT|        1     |       1     | 0.77232804E-02 | 0.18921876E+03 | ********
 BASOPT|        2     |       1     | 0.47459319E-02 | 0.18224720E+03 | 5935.357
 BASOPT|        3     |       1     | 0.55731404E-02 | 0.22621702E+03 | 9514.388
 BASOPT| -----------------------------------------------------------------------
 BASOPT| Total residuum value: -.98819314E+03

 BASOPT| Information at iteration number:   99600
 BASOPT| Training set | Combination | Rho difference | Condition num. | Time
 BASOPT| -----------------------------------------------------------------------
 BASOPT|        1     |       1     | 0.77224682E-02 | 0.18923646E+03 | ********
 BASOPT|        2     |       1     | 0.47455029E-02 | 0.18216779E+03 | 5941.323
 BASOPT|        3     |       1     | 0.55753954E-02 | 0.22609076E+03 | 9523.971
 BASOPT| -----------------------------------------------------------------------
 BASOPT| Total residuum value: -.98819314E+03

 BASOPT| Information at iteration number:   99700
 BASOPT| Training set | Combination | Rho difference | Condition num. | Time
 BASOPT| -----------------------------------------------------------------------
 BASOPT|        1     |       1     | 0.77199011E-02 | 0.18936772E+03 | ********
 BASOPT|        2     |       1     | 0.47443871E-02 | 0.18234275E+03 | 5947.319
 BASOPT|        3     |       1     | 0.55766036E-02 | 0.22624347E+03 | 9533.541
 BASOPT| -----------------------------------------------------------------------
 BASOPT| Total residuum value: -.98819315E+03

 BASOPT| Information at iteration number:   99800
 BASOPT| Training set | Combination | Rho difference | Condition num. | Time
 BASOPT| -----------------------------------------------------------------------
 BASOPT|        1     |       1     | 0.77219125E-02 | 0.18941477E+03 | ********
 BASOPT|        2     |       1     | 0.47475144E-02 | 0.18231828E+03 | 5953.296
 BASOPT|        3     |       1     | 0.55810602E-02 | 0.22617758E+03 | 9543.122
 BASOPT| -----------------------------------------------------------------------
 BASOPT| Total residuum value: -.98819315E+03

 BASOPT| Information at iteration number:   99900
 BASOPT| Training set | Combination | Rho difference | Condition num. | Time
 BASOPT| -----------------------------------------------------------------------
 BASOPT|        1     |       1     | 0.77223241E-02 | 0.18947629E+03 | ********
 BASOPT|        2     |       1     | 0.47472273E-02 | 0.18244937E+03 | 5959.289
 BASOPT|        3     |       1     | 0.55788268E-02 | 0.22635169E+03 | 9552.696
 BASOPT| -----------------------------------------------------------------------
 BASOPT| Total residuum value: -.98819316E+03

 BASOPT| Information at iteration number:  100000
 BASOPT| Training set | Combination | Rho difference | Condition num. | Time
 BASOPT| -----------------------------------------------------------------------
 BASOPT|        1     |       1     | 0.77225201E-02 | 0.18953318E+03 | ********
 BASOPT|        2     |       1     | 0.47490389E-02 | 0.18236784E+03 | 5965.256
 BASOPT|        3     |       1     | 0.55832874E-02 | 0.22618952E+03 | 9562.267
 BASOPT| -----------------------------------------------------------------------
 BASOPT| Total residuum value: -.98819317E+03


 -------------------------------------------------------------------------------
 -                                                                             -
 -                                DBCSR STATISTICS                             -
 -                                                                             -
 -------------------------------------------------------------------------------
 COUNTER                                    TOTAL       BLAS       SMM       ACC
 flops   112 x   112 x    15               376320       0.0%    100.0%      0.0%
 flops   116 x   112 x    15               389760       0.0%    100.0%      0.0%
 flops   112 x   116 x    15               389760       0.0%    100.0%      0.0%
 flops   112 x   112 x    16               401408       0.0%    100.0%      0.0%
 flops   116 x   112 x    16               415744       0.0%    100.0%      0.0%
 flops   112 x   116 x    16               415744       0.0%    100.0%      0.0%
 flops   116 x   116 x    15              1211040       0.0%    100.0%      0.0%
 flops   116 x   116 x    16              1291776       0.0%    100.0%      0.0%
 flops   112 x   112 x    19              1906688       0.0%    100.0%      0.0%
 flops   112 x   116 x    19              1974784       0.0%    100.0%      0.0%
 flops   116 x   112 x    19              3949568       0.0%    100.0%      0.0%
 flops   116 x   116 x    19             12271872       0.0%    100.0%      0.0%
 flops inhomo. stacks                           0       0.0%      0.0%      0.0%
 flops total                        24.994464E+06       0.0%    100.0%      0.0%
 flops max/rank                      3.067968E+06       0.0%    100.0%      0.0%
 matmuls inhomo. stacks                         0       0.0%      0.0%      0.0%
 matmuls total                                 52       0.0%    100.0%      0.0%
 number of processed stacks                    38       0.0%    100.0%      0.0%
 average stack size                                     0.0       1.4       0.0
 marketing flops                    39.500032E+06
 -------------------------------------------------------------------------------
 # multiplications                              2
 max memory usage/rank             119.754752E+06
 # max total images/rank                        3
 # max 3D layers                                1
 # MPI messages exchanged                     164
 MPI messages size (bytes):
  total size                         1.320128E+06
  min size                           0.000000E+00
  max size                          69.920000E+03
  average size                       8.049561E+03
 MPI breakdown and total messages size (bytes):
             size <=      128                 134                        0
       128 < size <=     8192                   0                        0
      8192 < size <=    32768                   4                    69312
     32768 < size <=   131072                  26                  1250816
    131072 < size <=  4194304                   0                        0
   4194304 < size <= 16777216                   0                        0
  16777216 < size                               0                        0
 -------------------------------------------------------------------------------

 *** WARNING in dbcsr_mm.F:294 :: Using a non-square number of MPI ranks ***
 *** might lead to poor performance. Used ranks: 6 Suggested: 4 9        ***

 -------------------------------------------------------------------------------
 -                                                                             -
 -                      DBCSR MESSAGE PASSING PERFORMANCE                      -
 -                                                                             -
 -------------------------------------------------------------------------------
 ROUTINE             CALLS      AVE VOLUME [Bytes]
 MP_Bcast               13                     12.
 MP_Allreduce           57                     20.
 MP_Alltoall       7200102                  80347.
 MP_ISend               36                   3978.
 MP_IRecv               36                     57.
 -------------------------------------------------------------------------------

 -------------------------------------------------------------------------------
 -                                                                             -
 -                                GRID STATISTICS                              -
 -                                                                             -
 -------------------------------------------------------------------------------
 LP    KERNEL             BACKEND                              COUNT     PERCENT
 5     collocate ortho    REF                                   5684      17.44%
 5     integrate ortho    REF                                   5684      17.44%
 2     collocate ortho    REF                                   5276      16.19%
 2     integrate ortho    REF                                   5276      16.19%
 4     collocate ortho    REF                                   2296       7.04%
 4     integrate ortho    REF                                   2296       7.04%
 8     collocate ortho    REF                                   1650       5.06%
 8     integrate ortho    REF                                   1650       5.06%
 7     collocate ortho    REF                                    916       2.81%
 7     integrate ortho    REF                                    916       2.81%
 6     collocate ortho    REF                                    468       1.44%
 6     integrate ortho    REF                                    468       1.44%
 0     collocate general  REF                                     11       0.03%
 -------------------------------------------------------------------------------

 MEMORY| Estimated peak process memory [MiB]                                 759

 -------------------------------------------------------------------------------
 -                                                                             -
 -                         MESSAGE PASSING PERFORMANCE                         -
 -                                                                             -
 -------------------------------------------------------------------------------

 ROUTINE             CALLS      AVE VOLUME [Bytes]
 MP_Bcast           400032                    228.
 MP_Allreduce      1800390                     36.
 MP_Sync            400004
 MP_Alltoall            34                1916356.
 MP_ISendRecv           85                 125530.
 MP_Wait                85
 MP_comm_split      300004
 -------------------------------------------------------------------------------


 -------------------------------------------------------------------------------
 -                                                                             -
 -                           R E F E R E N C E S                               -
 -                                                                             -
 -------------------------------------------------------------------------------
 
 CP2K version 9.0 (Development Version), the CP2K developers group (2020).
 CP2K is freely available from https://www.cp2k.org/ .

 Kuehne,Thomas D.; Iannuzzi,Marcella; Del Ben,Mauro;
 Rybkin,Vladimir V.; Seewald,Patrick; Stein,Frederick; Laino,Teodoro;
 Khaliullin,Rustam Z.; Schuett,Ole; Schiffmann,Florian; Golze,Dorothea;
 Wilhelm,Jan; Chulkov,Sergey; Bani-Hashemian,Mohammad Hossein;
 Weber,Valery; Borstnik,Urban; Taillefumier,Mathieu;
 Jakobovits,Alice Shoshana; Lazzaro,Alfio; Pabst,Hans; Mueller,Tiziano;
 Schade,Robert; Guidon,Manuel; Andermatt,Samuel; Holmberg,Nico;
 Schenter,Gregory K.; Hehn,Anna; Bussy,Augustin; Belleflamme,Fabian;
 Tabacchi,Gloria; Gloess,Andreas; Lass,Michael; Bethune,Iain;
 Mundy,Christopher J.; Plessl,Christian; Watkins,Matt;
 VandeVondele,Joost; Krack,Matthias; Hutter,Juerg. 
 The Journal of Chemical Physics, 152 (19), (2020). 
 CP2K: An electronic structure and molecular dynamics software package -
 Quickstep: Efficient and accurate electronic structure calculations.
 https://doi.org/10.1063/5.0007045

 Schuett, Ole; Messmer, Peter; Hutter, Juerg; VandeVondele, Joost. 
 Electronic Structure Calculations on Graphics Processing Units, John
 Wiley & Sons, Ltd, 173-190 (2016). 
 GPU-Accelerated Sparse Matrix-Matrix Multiplication for
 Linear Scaling Density Functional Theory.
 https://doi.org/10.1002/9781118670712.ch8

 Borstnik, U; VandeVondele, J; Weber, V; Hutter, J. 
 PARALLEL COMPUTING, 40 (5-6), 47-58 (2014). 
 Sparse matrix multiplication: The distributed block-compressed sparse
 row library.
 https://doi.org/10.1016/j.parco.2014.03.012

 Hutter, J; Iannuzzi, M; Schiffmann, F; VandeVondele, J. 
 WIREs Comput Mol Sci., 4 (1), 15-25 (2014). 
 CP2K: atomistic simulations of condensed matter systems.
 https://doi.org/10.1002/wcms.1159

 Marek, A; Blum, V; Johanni, R; Havu, V; Lang, B; Auckenthaler, T;
 Heinecke, A; Bungartz, H; Lederer, H. 
 Journal of Physics: Condensed Matter, 26 (21), (2014). 
 The ELPA library: scalable parallel eigenvalue solutions for
 electronic structure
 theory and computational science.
 https://doi.org/10.1088/0953-8984/26/21/213201

 Guidon, M; Hutter, J; VandeVondele, J. 
 JOURNAL OF CHEMICAL THEORY AND COMPUTATION, 6 (8), 2348-2364 (2010). 
 Auxiliary Density Matrix Methods for Hartree-Fock Exchange Calculations.
 https://doi.org/10.1021/ct1002225

 VandeVondele, J; Hutter, J. 
 JOURNAL OF CHEMICAL PHYSICS, 127 (11), 114105 (2007). 
 Gaussian basis sets for accurate calculations on molecular systems in
 gas and condensed phases.
 https://doi.org/10.1063/1.2770708

 Krack, M. 
 THEORETICAL CHEMISTRY ACCOUNTS, 114 (1-3), 145-152 (2005). 
 Pseudopotentials for H to Kr optimized for gradient-corrected
 exchange-correlation functionals.
 https://doi.org/10.1007/s00214-005-0655-y

 VandeVondele, J; Krack, M; Mohamed, F; Parrinello, M; Chassaing, T;
 Hutter, J. COMPUTER PHYSICS COMMUNICATIONS, 167 (2), 103-128 (2005). 
 QUICKSTEP: Fast and accurate density functional calculations using a
 mixed Gaussian and plane waves approach.
 https://doi.org/10.1016/j.cpc.2004.12.014

 Frigo, M; Johnson, SG. 
 PROCEEDINGS OF THE IEEE, 93 (2), 216-231 (2005). 
 The design and implementation of FFTW3.
 https://doi.org/10.1109/JPROC.2004.840301

 Hartwigsen, C; Goedecker, S; Hutter, J. 
 PHYSICAL REVIEW B, 58 (7), 3641-3662 (1998). 
 Relativistic separable dual-space Gaussian pseudopotentials from H to Rn.
 https://doi.org/10.1103/PhysRevB.58.3641

 Lippert, G; Hutter, J; Parrinello, M. 
 MOLECULAR PHYSICS, 92 (3), 477-487 (1997). 
 A hybrid Gaussian and plane wave density functional scheme.
 https://doi.org/10.1080/002689797170220

 Perdew, JP; Burke, K; Ernzerhof, M. 
 PHYSICAL REVIEW LETTERS, 77 (18), 3865-3868 (1996). 
 Generalized gradient approximation made simple.
 https://doi.org/10.1103/PhysRevLett.77.3865

 Goedecker, S; Teter, M; Hutter, J. 
 PHYSICAL REVIEW B, 54 (3), 1703-1710 (1996). 
 Separable dual-space Gaussian pseudopotentials.
 https://doi.org/10.1103/PhysRevB.54.1703


 -------------------------------------------------------------------------------
 -                                                                             -
 -                                T I M I N G                                  -
 -                                                                             -
 -------------------------------------------------------------------------------
 SUBROUTINE                       CALLS  ASD         SELF TIME        TOTAL TIME
                                MAXIMUM       AVERAGE  MAXIMUM  AVERAGE  MAXIMUM
 CP2K                                 1  1.0     0.00     0.00 10614.88 10615.07
 run_optimize_basis                   1  2.0     0.00     0.00 10614.87 10615.06
 driver_para_opt_basis                1  3.0     0.00     0.00 10614.87 10615.05
 driver_optimization_para_low         1  4.0     0.52     1.07 10614.87 10615.05
 compute_residuum_vectors        100001  5.0     5.89     7.26 10579.66 10580.25
 cp_gemm                        2100021  7.1     2.88     3.39  5370.14  6361.01
 cp_gemm_fm_gemm                2100021  8.1     1.85     2.03  5367.26  6357.92
 cp_fm_gemm                     2100021  9.1  5365.41  6355.97  5365.41  6355.97
 admm_fit_mo_coeffs              100001  6.0     0.24     0.36  3338.95  4963.45
 mp_sum_dv                       500006  5.8  1761.73  4614.68  1761.73  4614.68
 fit_mo_coeffs                   100001  7.0     0.91     1.07  2157.22  3641.32
 build_overlap_matrix_low        200006  6.0  1070.75  2799.94  1074.83  2803.58
 copy_dbcsr_to_fm                600007  6.7     6.20     8.41  1423.22  2740.97
 dbcsr_desymmetrize_deep         600007  7.7    17.11    25.15  1107.36  2413.87
 mp_alltoall_i22                1200016  8.7  1002.82  2286.76  1002.82  2286.76
 purify_mo_diag                  100001  7.0     2.23     2.82  1181.48  1354.15
 cp_fm_syevd                     300003  7.3     0.88     1.18   513.11   580.24
 cp_fm_redistribute_end          300003  8.3   128.50   470.01   131.84   474.27
 cp_fm_syevd_base                300003  8.3   297.75   435.18   297.75   435.18
 cp_fm_upper_to_full             400006  7.0   269.37   333.65   269.37   333.65
 dbcsr_complete_redistribute     600009  7.7    55.66    71.75   277.29   309.25
 -------------------------------------------------------------------------------

 The number of warnings for this run is : 5
 
 -------------------------------------------------------------------------------
  **** **** ******  **  PROGRAM ENDED AT                 2021-01-05 20:08:28.891
 ***** ** ***  *** **   PROGRAM RAN ON                                   tcopt10
 **    ****   ******    PROGRAM RAN BY                                    hutter
 ***** **    ** ** **   PROGRAM PROCESS ID                                 37861
  **** **  *******  **  PROGRAM STOPPED IN /data/hutter/GITHUB/BASIS/MOLOPT/PBE/
                                           Co
