
  **** **** ******  **  PROGRAM STARTED AT               2021-01-22 14:32:52.063
 ***** ** ***  *** **   PROGRAM STARTED ON                               tcopt10
 **    ****   ******    PROGRAM STARTED BY                                hutter
 ***** **    ** ** **   PROGRAM PROCESS ID                                 71925
  **** **  *******  **  PROGRAM STARTED IN /data/hutter/GITHUB/BASIS/MOLOPT/PBE/
                                           Co

 CP2K| version string:                    CP2K version 9.0 (Development Version)
 CP2K| source code revision number:                                  git:7d6847f
 CP2K| cp2kflags: omp libint fftw3 libxc elpa parallel mpi3 scalapack xsmm spgli
 CP2K|            b sirius libvori libbqb
 CP2K| is freely available from                            https://www.cp2k.org/
 CP2K| Program compiled at                          Fre Jan 15 16:26:00 CET 2021
 CP2K| Program compiled on                                               tcopt10
 CP2K| Program compiled for                                                local
 CP2K| Data directory path                 /data/hutter/GITHUB/CURRENT/cp2k/data
 CP2K| Input file name                                               opt-all.inp

 GLOBAL| Method name                                              OPTIMIZE_BASIS
 GLOBAL| Project name                                                     molopt
 GLOBAL| Preferred FFT library                                             FFTW3
 GLOBAL| Preferred diagonalization lib.                                     ELPA
 GLOBAL| Run type                                                   ENERGY_FORCE
 GLOBAL| All-to-all communication in single precision                          F
 GLOBAL| FFTs using library dependent lengths                                  F
 GLOBAL| Global print level                                               MEDIUM
 GLOBAL| MPI I/O enabled                                                       T
 GLOBAL| Total number of message passing processes                            48
 GLOBAL| Number of threads for this process                                    1
 GLOBAL| This output is from process                                           0
 GLOBAL| CPU model name                          AMD EPYC 7401 24-Core Processor
 GLOBAL| CPUID                                                              1002

 MEMORY| system memory details [Kb]
 MEMORY|                        rank 0           min           max       average
 MEMORY| MemTotal            263969964     263969964     263969964     263969964
 MEMORY| MemFree             258716516     258716516     258716516     258716516
 MEMORY| Buffers                    20            20            20            20
 MEMORY| Cached                1175780       1175780       1175780       1175780
 MEMORY| Slab                   608648        608648        608648        608648
 MEMORY| SReclaimable           245432        245432        245432        245432
 MEMORY| MemLikelyFree       260137748     260137748     260137748     260137748


 *** Fundamental physical constants (SI units) ***

 *** Literature: B. J. Mohr and B. N. Taylor,
 ***             CODATA recommended values of the fundamental physical
 ***             constants: 2006, Web Version 5.1
 ***             http://physics.nist.gov/constants

 Speed of light in vacuum [m/s]                             2.99792458000000E+08
 Magnetic constant or permeability of vacuum [N/A**2]       1.25663706143592E-06
 Electric constant or permittivity of vacuum [F/m]          8.85418781762039E-12
 Planck constant (h) [J*s]                                  6.62606896000000E-34
 Planck constant (h-bar) [J*s]                              1.05457162825177E-34
 Elementary charge [C]                                      1.60217648700000E-19
 Electron mass [kg]                                         9.10938215000000E-31
 Electron g factor [ ]                                     -2.00231930436220E+00
 Proton mass [kg]                                           1.67262163700000E-27
 Fine-structure constant                                    7.29735253760000E-03
 Rydberg constant [1/m]                                     1.09737315685270E+07
 Avogadro constant [1/mol]                                  6.02214179000000E+23
 Boltzmann constant [J/K]                                   1.38065040000000E-23
 Atomic mass unit [kg]                                      1.66053878200000E-27
 Bohr radius [m]                                            5.29177208590000E-11

 *** Conversion factors ***

 [u] -> [a.u.]                                              1.82288848426455E+03
 [Angstrom] -> [Bohr] = [a.u.]                              1.88972613288564E+00
 [a.u.] = [Bohr] -> [Angstrom]                              5.29177208590000E-01
 [a.u.] -> [s]                                              2.41888432650478E-17
 [a.u.] -> [fs]                                             2.41888432650478E-02
 [a.u.] -> [J]                                              4.35974393937059E-18
 [a.u.] -> [N]                                              8.23872205491840E-08
 [a.u.] -> [K]                                              3.15774647902944E+05
 [a.u.] -> [kJ/mol]                                         2.62549961709828E+03
 [a.u.] -> [kcal/mol]                                       6.27509468713739E+02
 [a.u.] -> [Pa]                                             2.94210107994716E+13
 [a.u.] -> [bar]                                            2.94210107994716E+08
 [a.u.] -> [atm]                                            2.90362800883016E+08
 [a.u.] -> [eV]                                             2.72113838565563E+01
 [a.u.] -> [Hz]                                             6.57968392072181E+15
 [a.u.] -> [1/cm] (wave numbers)                            2.19474631370540E+05
 [a.u./Bohr**2] -> [1/cm]                                   5.14048714338585E+03
 
 DBCSR| CPU Multiplication driver                                           XSMM
 DBCSR| Multrec recursion limit                                              512
 DBCSR| Multiplication stack size                                           1000
 DBCSR| Maximum elements for images                                    UNLIMITED
 DBCSR| Multiplicative factor virtual images                                   1
 DBCSR| Use multiplication densification                                       T
 DBCSR| Multiplication size stacks                                             3
 DBCSR| Use memory pool for CPU allocation                                     F
 DBCSR| Number of 3D layers                                               SINGLE
 DBCSR| Use MPI memory allocation                                              F
 DBCSR| Use RMA algorithm                                                      F
 DBCSR| Use Communication thread                                               T
 DBCSR| Communication thread load                                             87
 DBCSR| MPI: My node id                                                        0
 DBCSR| MPI: Number of nodes                                                  48
 DBCSR| OMP: Current number of threads                                         1
 DBCSR| OMP: Max number of threads                                             1
 DBCSR| Split modifier for TAS multiplication algorithm                  1.0E+00

 BASOPT| Total number of calculations      9

 BASOPT| Content of basis combination      1
 BASOPT|     Element:   CO    Basis set:    TZV2P-MOLOPT-PBE-GTH-Q17
 BASOPT|     Element:   CL    Basis set:    TZV2P-MOLOPT-PBE-GTH-Q7
 BASOPT|     Element:    F    Basis set:    TZV2P-MOLOPT-PBE-GTH-Q7

 BASOPT| Content of basis combination      2
 BASOPT|     Element:   CO    Basis set:    TZVP-MOLOPT-PBE-GTH-q17
 BASOPT|     Element:   CL    Basis set:    TZVP-MOLOPT-PBE-GTH-q7
 BASOPT|     Element:    F    Basis set:    TZVP-MOLOPT-PBE-GTH-q7

 BASOPT| Content of basis combination      3
 BASOPT|     Element:   CO    Basis set:    DZVP-MOLOPT-PBE-GTH-q17
 BASOPT|     Element:   CL    Basis set:    DZVP-MOLOPT-PBE-GTH-q7
 BASOPT|     Element:    F    Basis set:    DZVP-MOLOPT-PBE-GTH-q7

 BASOPT| Information at iteration number:       0
 BASOPT| Training set | Combination | Rho difference | Condition num. | Time
 BASOPT| -----------------------------------------------------------------------
 BASOPT|        1     |       1     | 0.43265337E-02 | 0.13794482E+04 |    0.188
 BASOPT|        1     |       2     | 0.59632592E-02 | 0.73123975E+03 |    0.128
 BASOPT|        1     |       3     | 0.76930463E-02 | 0.19192529E+03 |    0.106
 BASOPT|        2     |       1     | 0.16727542E-02 | 0.59127392E+03 |    0.099
 BASOPT|        2     |       2     | 0.22478346E-02 | 0.33533234E+03 |    0.073
 BASOPT|        2     |       3     | 0.47497545E-02 | 0.18236706E+03 |    0.060
 BASOPT|        3     |       1     | 0.19278172E-02 | 0.58987234E+03 |    0.166
 BASOPT|        3     |       2     | 0.29519279E-02 | 0.38810040E+03 |    0.117
 BASOPT|        3     |       3     | 0.55838412E-02 | 0.22618419E+03 |    0.096
 BASOPT| -----------------------------------------------------------------------
 BASOPT| Total residuum value: -.29644970E+04

 BASOPT| Information at iteration number:     100
 BASOPT| Training set | Combination | Rho difference | Condition num. | Time
 BASOPT| -----------------------------------------------------------------------
 BASOPT|        1     |       1     | 0.43266075E-02 | 0.13848082E+04 |   17.731
 BASOPT|        1     |       2     | 0.59371454E-02 | 0.73440404E+03 |   12.731
 BASOPT|        1     |       3     | 0.76973850E-02 | 0.18068169E+03 |   10.499
 BASOPT|        2     |       1     | 0.17171699E-02 | 0.59203823E+03 |    9.383
 BASOPT|        2     |       2     | 0.22893934E-02 | 0.33598786E+03 |    7.003
 BASOPT|        2     |       3     | 0.48596227E-02 | 0.17235892E+03 |    5.707
 BASOPT|        3     |       1     | 0.19661043E-02 | 0.51334402E+03 |   16.480
 BASOPT|        3     |       2     | 0.29944951E-02 | 0.33710716E+03 |   11.504
 BASOPT|        3     |       3     | 0.56592854E-02 | 0.20520653E+03 |    9.534
 BASOPT| -----------------------------------------------------------------------
 BASOPT| Total residuum value: -.29644662E+04

 BASOPT| Information at iteration number:     200
 BASOPT| Training set | Combination | Rho difference | Condition num. | Time
 BASOPT| -----------------------------------------------------------------------
 BASOPT|        1     |       1     | 0.44588507E-02 | 0.11934580E+04 |   35.084
 BASOPT|        1     |       2     | 0.60787016E-02 | 0.66384811E+03 |   25.310
 BASOPT|        1     |       3     | 0.79109007E-02 | 0.19148832E+03 |   20.886
 BASOPT|        2     |       1     | 0.17651483E-02 | 0.58904250E+03 |   18.646
 BASOPT|        2     |       2     | 0.23342204E-02 | 0.33134116E+03 |   13.925
 BASOPT|        2     |       3     | 0.50156794E-02 | 0.18393726E+03 |   11.351
 BASOPT|        3     |       1     | 0.19840983E-02 | 0.59293455E+03 |   32.896
 BASOPT|        3     |       2     | 0.29952856E-02 | 0.39002987E+03 |   22.902
 BASOPT|        3     |       3     | 0.57987485E-02 | 0.22782264E+03 |   18.975
 BASOPT| -----------------------------------------------------------------------
 BASOPT| Total residuum value: -.29645225E+04

 BASOPT| Information at iteration number:     300
 BASOPT| Training set | Combination | Rho difference | Condition num. | Time
 BASOPT| -----------------------------------------------------------------------
 BASOPT|        1     |       1     | 0.45360464E-02 | 0.11437593E+04 |   52.529
 BASOPT|        1     |       2     | 0.61436560E-02 | 0.64547400E+03 |   37.916
 BASOPT|        1     |       3     | 0.79517066E-02 | 0.19307638E+03 |   31.251
 BASOPT|        2     |       1     | 0.18166361E-02 | 0.59872194E+03 |   27.908
 BASOPT|        2     |       2     | 0.23791147E-02 | 0.33812186E+03 |   20.850
 BASOPT|        2     |       3     | 0.50399006E-02 | 0.18465243E+03 |   16.997
 BASOPT|        3     |       1     | 0.20279888E-02 | 0.59490698E+03 |   49.247
 BASOPT|        3     |       2     | 0.30331550E-02 | 0.38974803E+03 |   34.282
 BASOPT|        3     |       3     | 0.58444175E-02 | 0.22744689E+03 |   28.424
 BASOPT| -----------------------------------------------------------------------
 BASOPT| Total residuum value: -.29645284E+04

 BASOPT| Information at iteration number:     400
 BASOPT| Training set | Combination | Rho difference | Condition num. | Time
 BASOPT| -----------------------------------------------------------------------
 BASOPT|        1     |       1     | 0.45266442E-02 | 0.11320268E+04 |   69.986
 BASOPT|        1     |       2     | 0.61365089E-02 | 0.64131942E+03 |   50.521
 BASOPT|        1     |       3     | 0.78445875E-02 | 0.19267241E+03 |   41.618
 BASOPT|        2     |       1     | 0.18002785E-02 | 0.60125068E+03 |   37.174
 BASOPT|        2     |       2     | 0.23642300E-02 | 0.33845181E+03 |   27.776
 BASOPT|        2     |       3     | 0.48629531E-02 | 0.18280486E+03 |   22.644
 BASOPT|        3     |       1     | 0.20153924E-02 | 0.58996667E+03 |   65.578
 BASOPT|        3     |       2     | 0.30222627E-02 | 0.38546071E+03 |   45.652
 BASOPT|        3     |       3     | 0.56955254E-02 | 0.22558895E+03 |   37.875
 BASOPT| -----------------------------------------------------------------------
 BASOPT| Total residuum value: -.29645283E+04

 BASOPT| Information at iteration number:     500
 BASOPT| Training set | Combination | Rho difference | Condition num. | Time
 BASOPT| -----------------------------------------------------------------------
 BASOPT|        1     |       1     | 0.47245411E-02 | 0.10507520E+04 |   87.475
 BASOPT|        1     |       2     | 0.63264419E-02 | 0.61031421E+03 |   63.114
 BASOPT|        1     |       3     | 0.80249023E-02 | 0.19017813E+03 |   51.987
 BASOPT|        2     |       1     | 0.19899311E-02 | 0.60743251E+03 |   46.440
 BASOPT|        2     |       2     | 0.25560103E-02 | 0.34075298E+03 |   34.703
 BASOPT|        2     |       3     | 0.50370124E-02 | 0.18299385E+03 |   28.291
 BASOPT|        3     |       1     | 0.21848047E-02 | 0.59669522E+03 |   81.895
 BASOPT|        3     |       2     | 0.31867679E-02 | 0.39034537E+03 |   57.023
 BASOPT|        3     |       3     | 0.58362332E-02 | 0.22785492E+03 |   47.327
 BASOPT| -----------------------------------------------------------------------
 BASOPT| Total residuum value: -.29641218E+04

 BASOPT| Information at iteration number:     600
 BASOPT| Training set | Combination | Rho difference | Condition num. | Time
 BASOPT| -----------------------------------------------------------------------
 BASOPT|        1     |       1     | 0.45448954E-02 | 0.10331352E+04 |  104.900
 BASOPT|        1     |       2     | 0.61454182E-02 | 0.60403577E+03 |   75.710
 BASOPT|        1     |       3     | 0.78709791E-02 | 0.18965690E+03 |   62.354
 BASOPT|        2     |       1     | 0.18089481E-02 | 0.60785884E+03 |   55.707
 BASOPT|        2     |       2     | 0.23764427E-02 | 0.34081597E+03 |   41.628
 BASOPT|        2     |       3     | 0.49088001E-02 | 0.18250095E+03 |   33.940
 BASOPT|        3     |       1     | 0.20136218E-02 | 0.59400593E+03 |   98.209
 BASOPT|        3     |       2     | 0.30141729E-02 | 0.38829208E+03 |   68.392
 BASOPT|        3     |       3     | 0.57057588E-02 | 0.22720153E+03 |   56.784
 BASOPT| -----------------------------------------------------------------------
 BASOPT| Total residuum value: -.29645418E+04

 BASOPT| Information at iteration number:     700
 BASOPT| Training set | Combination | Rho difference | Condition num. | Time
 BASOPT| -----------------------------------------------------------------------
 BASOPT|        1     |       1     | 0.45385114E-02 | 0.96508544E+03 |  122.271
 BASOPT|        1     |       2     | 0.61325690E-02 | 0.57667315E+03 |   88.308
 BASOPT|        1     |       3     | 0.76804499E-02 | 0.18784038E+03 |   72.722
 BASOPT|        2     |       1     | 0.18074075E-02 | 0.59778226E+03 |   64.977
 BASOPT|        2     |       2     | 0.23786129E-02 | 0.33534261E+03 |   48.553
 BASOPT|        2     |       3     | 0.46103170E-02 | 0.18173821E+03 |   39.596
 BASOPT|        3     |       1     | 0.20168768E-02 | 0.59344592E+03 |  114.521
 BASOPT|        3     |       2     | 0.30184573E-02 | 0.38935332E+03 |   79.764
 BASOPT|        3     |       3     | 0.54354612E-02 | 0.22799549E+03 |   66.239
 BASOPT| -----------------------------------------------------------------------
 BASOPT| Total residuum value: -.29645539E+04

 BASOPT| Information at iteration number:     800
 BASOPT| Training set | Combination | Rho difference | Condition num. | Time
 BASOPT| -----------------------------------------------------------------------
 BASOPT|        1     |       1     | 0.45919830E-02 | 0.85055278E+03 |  139.674
 BASOPT|        1     |       2     | 0.61869273E-02 | 0.52996131E+03 |  100.907
 BASOPT|        1     |       3     | 0.77255658E-02 | 0.18484965E+03 |   83.091
 BASOPT|        2     |       1     | 0.18458050E-02 | 0.59884147E+03 |   74.246
 BASOPT|        2     |       2     | 0.24189525E-02 | 0.33689467E+03 |   55.474
 BASOPT|        2     |       3     | 0.46352741E-02 | 0.17850945E+03 |   45.249
 BASOPT|        3     |       1     | 0.20416526E-02 | 0.58798885E+03 |  130.826
 BASOPT|        3     |       2     | 0.30416222E-02 | 0.38727174E+03 |   91.136
 BASOPT|        3     |       3     | 0.54414089E-02 | 0.22723700E+03 |   75.696
 BASOPT| -----------------------------------------------------------------------
 BASOPT| Total residuum value: -.29645698E+04

 BASOPT| Information at iteration number:     900
 BASOPT| Training set | Combination | Rho difference | Condition num. | Time
 BASOPT| -----------------------------------------------------------------------
 BASOPT|        1     |       1     | 0.46416688E-02 | 0.70137839E+03 |  157.120
 BASOPT|        1     |       2     | 0.62357997E-02 | 0.46022353E+03 |  113.507
 BASOPT|        1     |       3     | 0.76962392E-02 | 0.18193071E+03 |   93.462
 BASOPT|        2     |       1     | 0.18791554E-02 | 0.59406883E+03 |   83.514
 BASOPT|        2     |       2     | 0.24518300E-02 | 0.33376671E+03 |   62.397
 BASOPT|        2     |       3     | 0.45264883E-02 | 0.17188730E+03 |   50.902
 BASOPT|        3     |       1     | 0.20612087E-02 | 0.57600957E+03 |  147.142
 BASOPT|        3     |       2     | 0.30548424E-02 | 0.38073126E+03 |  102.508
 BASOPT|        3     |       3     | 0.52710143E-02 | 0.22409114E+03 |   85.153
 BASOPT| -----------------------------------------------------------------------
 BASOPT| Total residuum value: -.29645894E+04

 BASOPT| Information at iteration number:    1000
 BASOPT| Training set | Combination | Rho difference | Condition num. | Time
 BASOPT| -----------------------------------------------------------------------
 BASOPT|        1     |       1     | 0.46567707E-02 | 0.59805482E+03 |  174.534
 BASOPT|        1     |       2     | 0.62382260E-02 | 0.42233460E+03 |  126.114
 BASOPT|        1     |       3     | 0.76106690E-02 | 0.17907295E+03 |  103.840
 BASOPT|        2     |       1     | 0.18846180E-02 | 0.58316536E+03 |   92.781
 BASOPT|        2     |       2     | 0.24537722E-02 | 0.32517443E+03 |   69.320
 BASOPT|        2     |       3     | 0.43540856E-02 | 0.16663365E+03 |   56.552
 BASOPT|        3     |       1     | 0.20614160E-02 | 0.56713903E+03 |  163.474
 BASOPT|        3     |       2     | 0.30431355E-02 | 0.37589131E+03 |  113.878
 BASOPT|        3     |       3     | 0.50871447E-02 | 0.22192073E+03 |   94.607
 BASOPT| -----------------------------------------------------------------------
 BASOPT| Total residuum value: -.29646028E+04

 BASOPT| Information at iteration number:    1100
 BASOPT| Training set | Combination | Rho difference | Condition num. | Time
 BASOPT| -----------------------------------------------------------------------
 BASOPT|        1     |       1     | 0.47106118E-02 | 0.54533314E+03 |  191.938
 BASOPT|        1     |       2     | 0.62997906E-02 | 0.40129811E+03 |  138.731
 BASOPT|        1     |       3     | 0.76758239E-02 | 0.17300684E+03 |  114.221
 BASOPT|        2     |       1     | 0.19538526E-02 | 0.58044628E+03 |  102.051
 BASOPT|        2     |       2     | 0.25200573E-02 | 0.32382840E+03 |   76.239
 BASOPT|        2     |       3     | 0.43964248E-02 | 0.16135399E+03 |   62.201
 BASOPT|        3     |       1     | 0.21158226E-02 | 0.55500221E+03 |  179.786
 BASOPT|        3     |       2     | 0.30811727E-02 | 0.36957712E+03 |  125.248
 BASOPT|        3     |       3     | 0.50881736E-02 | 0.21971849E+03 |  104.060
 BASOPT| -----------------------------------------------------------------------
 BASOPT| Total residuum value: -.29646277E+04

 BASOPT| Information at iteration number:    1200
 BASOPT| Training set | Combination | Rho difference | Condition num. | Time
 BASOPT| -----------------------------------------------------------------------
 BASOPT|        1     |       1     | 0.47815556E-02 | 0.50692244E+03 |  209.686
 BASOPT|        1     |       2     | 0.63895808E-02 | 0.38081649E+03 |  151.347
 BASOPT|        1     |       3     | 0.77604688E-02 | 0.16708207E+03 |  124.606
 BASOPT|        2     |       1     | 0.20321737E-02 | 0.58163695E+03 |  111.320
 BASOPT|        2     |       2     | 0.25913419E-02 | 0.32259292E+03 |   83.157
 BASOPT|        2     |       3     | 0.44180535E-02 | 0.15625866E+03 |   67.851
 BASOPT|        3     |       1     | 0.21415412E-02 | 0.54091309E+03 |  196.100
 BASOPT|        3     |       2     | 0.30957575E-02 | 0.36012359E+03 |  136.618
 BASOPT|        3     |       3     | 0.49922809E-02 | 0.21609030E+03 |  113.511
 BASOPT| -----------------------------------------------------------------------
 BASOPT| Total residuum value: -.29646534E+04

 BASOPT| Information at iteration number:    1300
 BASOPT| Training set | Combination | Rho difference | Condition num. | Time
 BASOPT| -----------------------------------------------------------------------
 BASOPT|        1     |       1     | 0.48746341E-02 | 0.46537379E+03 |  227.328
 BASOPT|        1     |       2     | 0.65132977E-02 | 0.35827653E+03 |  163.966
 BASOPT|        1     |       3     | 0.78624183E-02 | 0.15940919E+03 |  134.980
 BASOPT|        2     |       1     | 0.21456103E-02 | 0.57801050E+03 |  120.583
 BASOPT|        2     |       2     | 0.27021455E-02 | 0.32290955E+03 |   90.072
 BASOPT|        2     |       3     | 0.43686450E-02 | 0.14975620E+03 |   73.496
 BASOPT|        3     |       1     | 0.21999193E-02 | 0.52696701E+03 |  212.417
 BASOPT|        3     |       2     | 0.31478589E-02 | 0.35271824E+03 |  147.980
 BASOPT|        3     |       3     | 0.48782123E-02 | 0.21306590E+03 |  122.962
 BASOPT| -----------------------------------------------------------------------
 BASOPT| Total residuum value: -.29646879E+04

 BASOPT| Information at iteration number:    1400
 BASOPT| Training set | Combination | Rho difference | Condition num. | Time
 BASOPT| -----------------------------------------------------------------------
 BASOPT|        1     |       1     | 0.49375866E-02 | 0.43078437E+03 |  244.927
 BASOPT|        1     |       2     | 0.65802233E-02 | 0.33569924E+03 |  176.578
 BASOPT|        1     |       3     | 0.79777140E-02 | 0.15378592E+03 |  145.360
 BASOPT|        2     |       1     | 0.22879062E-02 | 0.57713847E+03 |  129.849
 BASOPT|        2     |       2     | 0.28366097E-02 | 0.32192689E+03 |   96.988
 BASOPT|        2     |       3     | 0.45165431E-02 | 0.14367664E+03 |   79.141
 BASOPT|        3     |       1     | 0.22676754E-02 | 0.51597180E+03 |  228.730
 BASOPT|        3     |       2     | 0.32084503E-02 | 0.34496279E+03 |  159.341
 BASOPT|        3     |       3     | 0.49561109E-02 | 0.20779049E+03 |  132.413
 BASOPT| -----------------------------------------------------------------------
 BASOPT| Total residuum value: -.29647304E+04

 BASOPT| Information at iteration number:    1500
 BASOPT| Training set | Combination | Rho difference | Condition num. | Time
 BASOPT| -----------------------------------------------------------------------
 BASOPT|        1     |       1     | 0.50138445E-02 | 0.40592983E+03 |  262.348
 BASOPT|        1     |       2     | 0.66751296E-02 | 0.31839345E+03 |  189.196
 BASOPT|        1     |       3     | 0.80965010E-02 | 0.14964830E+03 |  155.732
 BASOPT|        2     |       1     | 0.24284768E-02 | 0.59652827E+03 |  139.116
 BASOPT|        2     |       2     | 0.29613818E-02 | 0.33078452E+03 |  103.904
 BASOPT|        2     |       3     | 0.45480306E-02 | 0.14520817E+03 |   84.788
 BASOPT|        3     |       1     | 0.23131799E-02 | 0.50398032E+03 |  245.048
 BASOPT|        3     |       2     | 0.32391735E-02 | 0.33560336E+03 |  170.708
 BASOPT|        3     |       3     | 0.49430906E-02 | 0.20025035E+03 |  141.867
 BASOPT| -----------------------------------------------------------------------
 BASOPT| Total residuum value: -.29647612E+04

 BASOPT| Information at iteration number:    1600
 BASOPT| Training set | Combination | Rho difference | Condition num. | Time
 BASOPT| -----------------------------------------------------------------------
 BASOPT|        1     |       1     | 0.51379294E-02 | 0.38601645E+03 |  279.817
 BASOPT|        1     |       2     | 0.68392350E-02 | 0.30159580E+03 |  201.799
 BASOPT|        1     |       3     | 0.83190241E-02 | 0.14672656E+03 |  166.094
 BASOPT|        2     |       1     | 0.26776538E-02 | 0.59750634E+03 |  148.394
 BASOPT|        2     |       2     | 0.31966735E-02 | 0.33007657E+03 |  110.821
 BASOPT|        2     |       3     | 0.47067410E-02 | 0.14512462E+03 |   90.442
 BASOPT|        3     |       1     | 0.23894909E-02 | 0.49570364E+03 |  261.371
 BASOPT|        3     |       2     | 0.33290427E-02 | 0.32858119E+03 |  182.072
 BASOPT|        3     |       3     | 0.49721636E-02 | 0.19279990E+03 |  151.320
 BASOPT| -----------------------------------------------------------------------
 BASOPT| Total residuum value: -.29647936E+04

 BASOPT| Information at iteration number:    1700
 BASOPT| Training set | Combination | Rho difference | Condition num. | Time
 BASOPT| -----------------------------------------------------------------------
 BASOPT|        1     |       1     | 0.51819773E-02 | 0.38569435E+03 |  297.250
 BASOPT|        1     |       2     | 0.68895857E-02 | 0.30079727E+03 |  214.391
 BASOPT|        1     |       3     | 0.84047415E-02 | 0.14616752E+03 |  176.459
 BASOPT|        2     |       1     | 0.27969666E-02 | 0.60794986E+03 |  157.665
 BASOPT|        2     |       2     | 0.33052298E-02 | 0.33342199E+03 |  117.737
 BASOPT|        2     |       3     | 0.47457548E-02 | 0.14594250E+03 |   96.088
 BASOPT|        3     |       1     | 0.24008461E-02 | 0.49863087E+03 |  277.690
 BASOPT|        3     |       2     | 0.33431546E-02 | 0.33056205E+03 |  193.453
 BASOPT|        3     |       3     | 0.49644351E-02 | 0.19069287E+03 |  160.771
 BASOPT| -----------------------------------------------------------------------
 BASOPT| Total residuum value: -.29648145E+04

 BASOPT| Information at iteration number:    1800
 BASOPT| Training set | Combination | Rho difference | Condition num. | Time
 BASOPT| -----------------------------------------------------------------------
 BASOPT|        1     |       1     | 0.52257535E-02 | 0.38302825E+03 |  314.696
 BASOPT|        1     |       2     | 0.69511518E-02 | 0.29846855E+03 |  226.986
 BASOPT|        1     |       3     | 0.84838410E-02 | 0.14451166E+03 |  186.823
 BASOPT|        2     |       1     | 0.29350713E-02 | 0.62121757E+03 |  166.932
 BASOPT|        2     |       2     | 0.34319838E-02 | 0.33776368E+03 |  124.659
 BASOPT|        2     |       3     | 0.48718302E-02 | 0.14846457E+03 |  101.735
 BASOPT|        3     |       1     | 0.24429097E-02 | 0.49563551E+03 |  294.018
 BASOPT|        3     |       2     | 0.33908217E-02 | 0.32857361E+03 |  204.834
 BASOPT|        3     |       3     | 0.50694515E-02 | 0.18585787E+03 |  170.224
 BASOPT| -----------------------------------------------------------------------
 BASOPT| Total residuum value: -.29648414E+04

 BASOPT| Information at iteration number:    1900
 BASOPT| Training set | Combination | Rho difference | Condition num. | Time
 BASOPT| -----------------------------------------------------------------------
 BASOPT|        1     |       1     | 0.52436543E-02 | 0.38507373E+03 |  332.187
 BASOPT|        1     |       2     | 0.69820598E-02 | 0.29975596E+03 |  239.595
 BASOPT|        1     |       3     | 0.85049681E-02 | 0.14485299E+03 |  197.186
 BASOPT|        2     |       1     | 0.30170916E-02 | 0.62832124E+03 |  176.201
 BASOPT|        2     |       2     | 0.35026573E-02 | 0.33710838E+03 |  131.579
 BASOPT|        2     |       3     | 0.49443458E-02 | 0.14872955E+03 |  107.380
 BASOPT|        3     |       1     | 0.24483416E-02 | 0.49499020E+03 |  310.344
 BASOPT|        3     |       2     | 0.34032305E-02 | 0.32826288E+03 |  216.205
 BASOPT|        3     |       3     | 0.50864449E-02 | 0.18375544E+03 |  179.680
 BASOPT| -----------------------------------------------------------------------
 BASOPT| Total residuum value: -.29648595E+04

 BASOPT| Information at iteration number:    2000
 BASOPT| Training set | Combination | Rho difference | Condition num. | Time
 BASOPT| -----------------------------------------------------------------------
 BASOPT|        1     |       1     | 0.52634848E-02 | 0.38903423E+03 |  349.736
 BASOPT|        1     |       2     | 0.70057602E-02 | 0.30282584E+03 |  252.212
 BASOPT|        1     |       3     | 0.85396916E-02 | 0.14409083E+03 |  207.558
 BASOPT|        2     |       1     | 0.30284708E-02 | 0.62548312E+03 |  185.473
 BASOPT|        2     |       2     | 0.35068217E-02 | 0.33367210E+03 |  138.497
 BASOPT|        2     |       3     | 0.49182946E-02 | 0.14840534E+03 |  113.030
 BASOPT|        3     |       1     | 0.24533953E-02 | 0.49981553E+03 |  326.661
 BASOPT|        3     |       2     | 0.33972441E-02 | 0.33143784E+03 |  227.561
 BASOPT|        3     |       3     | 0.50469431E-02 | 0.18403774E+03 |  189.147
 BASOPT| -----------------------------------------------------------------------
 BASOPT| Total residuum value: -.29648733E+04

 BASOPT| Information at iteration number:    2100
 BASOPT| Training set | Combination | Rho difference | Condition num. | Time
 BASOPT| -----------------------------------------------------------------------
 BASOPT|        1     |       1     | 0.53254164E-02 | 0.40206102E+03 |  367.178
 BASOPT|        1     |       2     | 0.70937602E-02 | 0.31270739E+03 |  264.820
 BASOPT|        1     |       3     | 0.86277883E-02 | 0.14710279E+03 |  217.930
 BASOPT|        2     |       1     | 0.31491514E-02 | 0.62292750E+03 |  194.743
 BASOPT|        2     |       2     | 0.36117108E-02 | 0.32735462E+03 |  145.405
 BASOPT|        2     |       3     | 0.50193599E-02 | 0.14657634E+03 |  118.680
 BASOPT|        3     |       1     | 0.24801004E-02 | 0.50865797E+03 |  342.981
 BASOPT|        3     |       2     | 0.34369141E-02 | 0.33755835E+03 |  238.916
 BASOPT|        3     |       3     | 0.50888142E-02 | 0.18590946E+03 |  198.604
 BASOPT| -----------------------------------------------------------------------
 BASOPT| Total residuum value: -.29648948E+04

 BASOPT| Information at iteration number:    2200
 BASOPT| Training set | Combination | Rho difference | Condition num. | Time
 BASOPT| -----------------------------------------------------------------------
 BASOPT|        1     |       1     | 0.53162370E-02 | 0.42501266E+03 |  384.472
 BASOPT|        1     |       2     | 0.70747268E-02 | 0.32799962E+03 |  277.446
 BASOPT|        1     |       3     | 0.85468615E-02 | 0.15225671E+03 |  228.306
 BASOPT|        2     |       1     | 0.31098779E-02 | 0.61115482E+03 |  204.018
 BASOPT|        2     |       2     | 0.35624904E-02 | 0.31889758E+03 |  152.317
 BASOPT|        2     |       3     | 0.49500148E-02 | 0.14541166E+03 |  124.335
 BASOPT|        3     |       1     | 0.24711822E-02 | 0.53007152E+03 |  359.309
 BASOPT|        3     |       2     | 0.34239112E-02 | 0.35186422E+03 |  250.270
 BASOPT|        3     |       3     | 0.50403351E-02 | 0.19238907E+03 |  208.064
 BASOPT| -----------------------------------------------------------------------
 BASOPT| Total residuum value: -.29649181E+04

 BASOPT| Information at iteration number:    2300
 BASOPT| Training set | Combination | Rho difference | Condition num. | Time
 BASOPT| -----------------------------------------------------------------------
 BASOPT|        1     |       1     | 0.52822891E-02 | 0.44445746E+03 |  401.859
 BASOPT|        1     |       2     | 0.70106960E-02 | 0.33910298E+03 |  290.068
 BASOPT|        1     |       3     | 0.84095879E-02 | 0.15627151E+03 |  238.684
 BASOPT|        2     |       1     | 0.30410264E-02 | 0.61375985E+03 |  213.312
 BASOPT|        2     |       2     | 0.34953210E-02 | 0.31975591E+03 |  159.229
 BASOPT|        2     |       3     | 0.48530926E-02 | 0.14684731E+03 |  129.991
 BASOPT|        3     |       1     | 0.24822335E-02 | 0.55339018E+03 |  375.637
 BASOPT|        3     |       2     | 0.34308400E-02 | 0.36544311E+03 |  261.623
 BASOPT|        3     |       3     | 0.49837002E-02 | 0.19909474E+03 |  217.518
 BASOPT| -----------------------------------------------------------------------
 BASOPT| Total residuum value: -.29649391E+04

 BASOPT| Information at iteration number:    2400
 BASOPT| Training set | Combination | Rho difference | Condition num. | Time
 BASOPT| -----------------------------------------------------------------------
 BASOPT|        1     |       1     | 0.53723024E-02 | 0.45942355E+03 |  419.108
 BASOPT|        1     |       2     | 0.71223935E-02 | 0.34723720E+03 |  302.680
 BASOPT|        1     |       3     | 0.85190004E-02 | 0.15908189E+03 |  249.056
 BASOPT|        2     |       1     | 0.31783971E-02 | 0.62432264E+03 |  222.578
 BASOPT|        2     |       2     | 0.36252319E-02 | 0.32356159E+03 |  166.142
 BASOPT|        2     |       3     | 0.49572095E-02 | 0.14840307E+03 |  135.645
 BASOPT|        3     |       1     | 0.25239417E-02 | 0.57088212E+03 |  391.966
 BASOPT|        3     |       2     | 0.35014740E-02 | 0.37540312E+03 |  272.980
 BASOPT|        3     |       3     | 0.50275388E-02 | 0.20419191E+03 |  226.974
 BASOPT| -----------------------------------------------------------------------
 BASOPT| Total residuum value: -.29649586E+04

 BASOPT| Information at iteration number:    2500
 BASOPT| Training set | Combination | Rho difference | Condition num. | Time
 BASOPT| -----------------------------------------------------------------------
 BASOPT|        1     |       1     | 0.52774204E-02 | 0.48194745E+03 |  436.492
 BASOPT|        1     |       2     | 0.69776716E-02 | 0.36013136E+03 |  315.283
 BASOPT|        1     |       3     | 0.82890596E-02 | 0.16349691E+03 |  259.438
 BASOPT|        2     |       1     | 0.29892281E-02 | 0.63079445E+03 |  231.847
 BASOPT|        2     |       2     | 0.34500530E-02 | 0.33023127E+03 |  173.054
 BASOPT|        2     |       3     | 0.47394460E-02 | 0.15128749E+03 |  141.299
 BASOPT|        3     |       1     | 0.24953418E-02 | 0.59515398E+03 |  408.292
 BASOPT|        3     |       2     | 0.34634765E-02 | 0.39059794E+03 |  284.336
 BASOPT|        3     |       3     | 0.49308268E-02 | 0.21295301E+03 |  236.430
 BASOPT| -----------------------------------------------------------------------
 BASOPT| Total residuum value: -.29649789E+04

 BASOPT| Information at iteration number:    2600
 BASOPT| Training set | Combination | Rho difference | Condition num. | Time
 BASOPT| -----------------------------------------------------------------------
 BASOPT|        1     |       1     | 0.53467237E-02 | 0.48805917E+03 |  453.724
 BASOPT|        1     |       2     | 0.70692572E-02 | 0.36366139E+03 |  327.898
 BASOPT|        1     |       3     | 0.83723334E-02 | 0.16511311E+03 |  269.814
 BASOPT|        2     |       1     | 0.31004026E-02 | 0.63529172E+03 |  241.130
 BASOPT|        2     |       2     | 0.35591433E-02 | 0.33346961E+03 |  179.969
 BASOPT|        2     |       3     | 0.48366733E-02 | 0.15301983E+03 |  146.954
 BASOPT|        3     |       1     | 0.25493620E-02 | 0.59790560E+03 |  424.614
 BASOPT|        3     |       2     | 0.35446686E-02 | 0.39242137E+03 |  295.693
 BASOPT|        3     |       3     | 0.50131811E-02 | 0.21465217E+03 |  245.886
 BASOPT| -----------------------------------------------------------------------
 BASOPT| Total residuum value: -.29649902E+04

 BASOPT| Information at iteration number:    2700
 BASOPT| Training set | Combination | Rho difference | Condition num. | Time
 BASOPT| -----------------------------------------------------------------------
 BASOPT|        1     |       1     | 0.53437916E-02 | 0.49490796E+03 |  470.998
 BASOPT|        1     |       2     | 0.70571422E-02 | 0.36787546E+03 |  340.512
 BASOPT|        1     |       3     | 0.83376077E-02 | 0.16584663E+03 |  280.194
 BASOPT|        2     |       1     | 0.30780079E-02 | 0.63768730E+03 |  250.403
 BASOPT|        2     |       2     | 0.35374264E-02 | 0.33475355E+03 |  186.887
 BASOPT|        2     |       3     | 0.48141830E-02 | 0.15359541E+03 |  152.610
 BASOPT|        3     |       1     | 0.25500231E-02 | 0.60624853E+03 |  440.937
 BASOPT|        3     |       2     | 0.35422816E-02 | 0.39740667E+03 |  307.062
 BASOPT|        3     |       3     | 0.50045397E-02 | 0.21730580E+03 |  255.343
 BASOPT| -----------------------------------------------------------------------
 BASOPT| Total residuum value: -.29649985E+04

 BASOPT| Information at iteration number:    2800
 BASOPT| Training set | Combination | Rho difference | Condition num. | Time
 BASOPT| -----------------------------------------------------------------------
 BASOPT|        1     |       1     | 0.53809500E-02 | 0.51268485E+03 |  488.235
 BASOPT|        1     |       2     | 0.70856279E-02 | 0.37813852E+03 |  353.132
 BASOPT|        1     |       3     | 0.83489883E-02 | 0.16874819E+03 |  290.560
 BASOPT|        2     |       1     | 0.31386607E-02 | 0.64928268E+03 |  259.673
 BASOPT|        2     |       2     | 0.35966349E-02 | 0.33991957E+03 |  193.803
 BASOPT|        2     |       3     | 0.48541140E-02 | 0.15585081E+03 |  158.265
 BASOPT|        3     |       1     | 0.25898799E-02 | 0.62452362E+03 |  457.274
 BASOPT|        3     |       2     | 0.35973148E-02 | 0.40910638E+03 |  318.418
 BASOPT|        3     |       3     | 0.50422788E-02 | 0.22196439E+03 |  264.798
 BASOPT| -----------------------------------------------------------------------
 BASOPT| Total residuum value: -.29650145E+04

 BASOPT| Information at iteration number:    2900
 BASOPT| Training set | Combination | Rho difference | Condition num. | Time
 BASOPT| -----------------------------------------------------------------------
 BASOPT|        1     |       1     | 0.53469126E-02 | 0.51930900E+03 |  505.491
 BASOPT|        1     |       2     | 0.70383684E-02 | 0.38124457E+03 |  365.746
 BASOPT|        1     |       3     | 0.82708831E-02 | 0.17081829E+03 |  300.927
 BASOPT|        2     |       1     | 0.31014455E-02 | 0.65516352E+03 |  268.946
 BASOPT|        2     |       2     | 0.35604925E-02 | 0.34242355E+03 |  200.725
 BASOPT|        2     |       3     | 0.48185052E-02 | 0.15700581E+03 |  163.922
 BASOPT|        3     |       1     | 0.25840025E-02 | 0.62988966E+03 |  473.600
 BASOPT|        3     |       2     | 0.35937123E-02 | 0.41266722E+03 |  329.780
 BASOPT|        3     |       3     | 0.50464414E-02 | 0.22396505E+03 |  274.257
 BASOPT| -----------------------------------------------------------------------
 BASOPT| Total residuum value: -.29650261E+04

 BASOPT| Information at iteration number:    3000
 BASOPT| Training set | Combination | Rho difference | Condition num. | Time
 BASOPT| -----------------------------------------------------------------------
 BASOPT|        1     |       1     | 0.53612623E-02 | 0.52440534E+03 |  522.786
 BASOPT|        1     |       2     | 0.70559634E-02 | 0.38347554E+03 |  378.351
 BASOPT|        1     |       3     | 0.82756315E-02 | 0.17263078E+03 |  311.293
 BASOPT|        2     |       1     | 0.31316488E-02 | 0.65711836E+03 |  278.223
 BASOPT|        2     |       2     | 0.35878706E-02 | 0.34409040E+03 |  207.644
 BASOPT|        2     |       3     | 0.48460631E-02 | 0.15765845E+03 |  169.581
 BASOPT|        3     |       1     | 0.25962825E-02 | 0.63337386E+03 |  489.948
 BASOPT|        3     |       2     | 0.36169987E-02 | 0.41494228E+03 |  341.143
 BASOPT|        3     |       3     | 0.50678559E-02 | 0.22560983E+03 |  283.716
 BASOPT| -----------------------------------------------------------------------
 BASOPT| Total residuum value: -.29650353E+04

 BASOPT| Information at iteration number:    3100
 BASOPT| Training set | Combination | Rho difference | Condition num. | Time
 BASOPT| -----------------------------------------------------------------------
 BASOPT|        1     |       1     | 0.53391591E-02 | 0.53113056E+03 |  540.028
 BASOPT|        1     |       2     | 0.70285365E-02 | 0.38602923E+03 |  390.941
 BASOPT|        1     |       3     | 0.82362963E-02 | 0.17548633E+03 |  321.658
 BASOPT|        2     |       1     | 0.31121813E-02 | 0.66058401E+03 |  287.498
 BASOPT|        2     |       2     | 0.35681595E-02 | 0.34698828E+03 |  214.558
 BASOPT|        2     |       3     | 0.48106775E-02 | 0.15850806E+03 |  175.239
 BASOPT|        3     |       1     | 0.25933678E-02 | 0.63728668E+03 |  506.279
 BASOPT|        3     |       2     | 0.36184033E-02 | 0.41716534E+03 |  352.509
 BASOPT|        3     |       3     | 0.50257191E-02 | 0.22730400E+03 |  293.178
 BASOPT| -----------------------------------------------------------------------
 BASOPT| Total residuum value: -.29650484E+04

 BASOPT| Information at iteration number:    3200
 BASOPT| Training set | Combination | Rho difference | Condition num. | Time
 BASOPT| -----------------------------------------------------------------------
 BASOPT|        1     |       1     | 0.53228567E-02 | 0.53377961E+03 |  557.282
 BASOPT|        1     |       2     | 0.70051651E-02 | 0.38670845E+03 |  403.538
 BASOPT|        1     |       3     | 0.82054320E-02 | 0.17630969E+03 |  332.026
 BASOPT|        2     |       1     | 0.30896554E-02 | 0.65675881E+03 |  296.774
 BASOPT|        2     |       2     | 0.35454883E-02 | 0.34600434E+03 |  221.473
 BASOPT|        2     |       3     | 0.47828318E-02 | 0.15990048E+03 |  180.894
 BASOPT|        3     |       1     | 0.25924975E-02 | 0.63971455E+03 |  522.609
 BASOPT|        3     |       2     | 0.36192711E-02 | 0.41807133E+03 |  363.872
 BASOPT|        3     |       3     | 0.50151668E-02 | 0.22841415E+03 |  302.641
 BASOPT| -----------------------------------------------------------------------
 BASOPT| Total residuum value: -.29650564E+04

 BASOPT| Information at iteration number:    3300
 BASOPT| Training set | Combination | Rho difference | Condition num. | Time
 BASOPT| -----------------------------------------------------------------------
 BASOPT|        1     |       1     | 0.53899251E-02 | 0.54887441E+03 |  574.538
 BASOPT|        1     |       2     | 0.70848078E-02 | 0.39293543E+03 |  416.125
 BASOPT|        1     |       3     | 0.82847036E-02 | 0.18035369E+03 |  342.392
 BASOPT|        2     |       1     | 0.32192231E-02 | 0.64865839E+03 |  306.046
 BASOPT|        2     |       2     | 0.36598143E-02 | 0.34231809E+03 |  228.392
 BASOPT|        2     |       3     | 0.48744679E-02 | 0.16520852E+03 |  186.550
 BASOPT|        3     |       1     | 0.26620722E-02 | 0.65230989E+03 |  538.933
 BASOPT|        3     |       2     | 0.37128027E-02 | 0.42253248E+03 |  375.245
 BASOPT|        3     |       3     | 0.50455755E-02 | 0.23124332E+03 |  312.103
 BASOPT| -----------------------------------------------------------------------
 BASOPT| Total residuum value: -.29650732E+04

 BASOPT| Information at iteration number:    3400
 BASOPT| Training set | Combination | Rho difference | Condition num. | Time
 BASOPT| -----------------------------------------------------------------------
 BASOPT|        1     |       1     | 0.54014935E-02 | 0.55745228E+03 |  591.828
 BASOPT|        1     |       2     | 0.70978886E-02 | 0.39675673E+03 |  428.714
 BASOPT|        1     |       3     | 0.82881707E-02 | 0.18286479E+03 |  352.761
 BASOPT|        2     |       1     | 0.32523284E-02 | 0.64717031E+03 |  315.319
 BASOPT|        2     |       2     | 0.36884391E-02 | 0.34126026E+03 |  235.309
 BASOPT|        2     |       3     | 0.49097136E-02 | 0.16793188E+03 |  192.203
 BASOPT|        3     |       1     | 0.26863276E-02 | 0.65872276E+03 |  555.253
 BASOPT|        3     |       2     | 0.37442113E-02 | 0.42514543E+03 |  386.611
 BASOPT|        3     |       3     | 0.50839105E-02 | 0.23301621E+03 |  321.564
 BASOPT| -----------------------------------------------------------------------
 BASOPT| Total residuum value: -.29650824E+04

 BASOPT| Information at iteration number:    3500
 BASOPT| Training set | Combination | Rho difference | Condition num. | Time
 BASOPT| -----------------------------------------------------------------------
 BASOPT|        1     |       1     | 0.54449021E-02 | 0.55741773E+03 |  609.165
 BASOPT|        1     |       2     | 0.71539615E-02 | 0.39609552E+03 |  441.297
 BASOPT|        1     |       3     | 0.83462770E-02 | 0.18288559E+03 |  363.131
 BASOPT|        2     |       1     | 0.33491780E-02 | 0.64765514E+03 |  324.592
 BASOPT|        2     |       2     | 0.37798583E-02 | 0.34160451E+03 |  242.226
 BASOPT|        2     |       3     | 0.50125273E-02 | 0.16854239E+03 |  197.851
 BASOPT|        3     |       1     | 0.27177158E-02 | 0.65939181E+03 |  571.568
 BASOPT|        3     |       2     | 0.37899154E-02 | 0.42618085E+03 |  397.967
 BASOPT|        3     |       3     | 0.51289915E-02 | 0.23381884E+03 |  331.026
 BASOPT| -----------------------------------------------------------------------
 BASOPT| Total residuum value: -.29650937E+04

 BASOPT| Information at iteration number:    3600
 BASOPT| Training set | Combination | Rho difference | Condition num. | Time
 BASOPT| -----------------------------------------------------------------------
 BASOPT|        1     |       1     | 0.54148070E-02 | 0.54467395E+03 |  626.609
 BASOPT|        1     |       2     | 0.71092168E-02 | 0.38600864E+03 |  453.882
 BASOPT|        1     |       3     | 0.82918618E-02 | 0.17927469E+03 |  373.502
 BASOPT|        2     |       1     | 0.33373648E-02 | 0.63106323E+03 |  333.864
 BASOPT|        2     |       2     | 0.37518230E-02 | 0.33333813E+03 |  249.147
 BASOPT|        2     |       3     | 0.49937291E-02 | 0.16845785E+03 |  203.503
 BASOPT|        3     |       1     | 0.26747843E-02 | 0.65880088E+03 |  587.885
 BASOPT|        3     |       2     | 0.37141078E-02 | 0.42764192E+03 |  409.323
 BASOPT|        3     |       3     | 0.50656820E-02 | 0.23520602E+03 |  340.487
 BASOPT| -----------------------------------------------------------------------
 BASOPT| Total residuum value: -.29651184E+04

 BASOPT| Information at iteration number:    3700
 BASOPT| Training set | Combination | Rho difference | Condition num. | Time
 BASOPT| -----------------------------------------------------------------------
 BASOPT|        1     |       1     | 0.54194996E-02 | 0.54474796E+03 |  643.881
 BASOPT|        1     |       2     | 0.71299805E-02 | 0.38586759E+03 |  466.462
 BASOPT|        1     |       3     | 0.83245158E-02 | 0.18096193E+03 |  383.874
 BASOPT|        2     |       1     | 0.33429617E-02 | 0.63570285E+03 |  343.136
 BASOPT|        2     |       2     | 0.37541557E-02 | 0.33328107E+03 |  256.067
 BASOPT|        2     |       3     | 0.49895859E-02 | 0.16792857E+03 |  209.157
 BASOPT|        3     |       1     | 0.26593897E-02 | 0.65395799E+03 |  604.203
 BASOPT|        3     |       2     | 0.37039455E-02 | 0.42433613E+03 |  420.677
 BASOPT|        3     |       3     | 0.50427671E-02 | 0.23415624E+03 |  349.950
 BASOPT| -----------------------------------------------------------------------
 BASOPT| Total residuum value: -.29651310E+04

 BASOPT| Information at iteration number:    3800
 BASOPT| Training set | Combination | Rho difference | Condition num. | Time
 BASOPT| -----------------------------------------------------------------------
 BASOPT|        1     |       1     | 0.54339912E-02 | 0.54095120E+03 |  661.121
 BASOPT|        1     |       2     | 0.71603735E-02 | 0.38438116E+03 |  479.045
 BASOPT|        1     |       3     | 0.83810616E-02 | 0.18186495E+03 |  394.246
 BASOPT|        2     |       1     | 0.33804987E-02 | 0.64130396E+03 |  352.409
 BASOPT|        2     |       2     | 0.37906183E-02 | 0.33342212E+03 |  262.985
 BASOPT|        2     |       3     | 0.50216208E-02 | 0.16735696E+03 |  214.817
 BASOPT|        3     |       1     | 0.26572049E-02 | 0.64602226E+03 |  620.521
 BASOPT|        3     |       2     | 0.37075521E-02 | 0.41964178E+03 |  432.036
 BASOPT|        3     |       3     | 0.50451336E-02 | 0.23347144E+03 |  359.414
 BASOPT| -----------------------------------------------------------------------
 BASOPT| Total residuum value: -.29651513E+04

 BASOPT| Information at iteration number:    3900
 BASOPT| Training set | Combination | Rho difference | Condition num. | Time
 BASOPT| -----------------------------------------------------------------------
 BASOPT|        1     |       1     | 0.54310739E-02 | 0.53516646E+03 |  678.394
 BASOPT|        1     |       2     | 0.71578292E-02 | 0.38121312E+03 |  491.620
 BASOPT|        1     |       3     | 0.83902464E-02 | 0.18113858E+03 |  404.619
 BASOPT|        2     |       1     | 0.33579344E-02 | 0.63806392E+03 |  361.698
 BASOPT|        2     |       2     | 0.37652718E-02 | 0.33139421E+03 |  269.906
 BASOPT|        2     |       3     | 0.50017540E-02 | 0.16713525E+03 |  220.473
 BASOPT|        3     |       1     | 0.26498656E-02 | 0.63960762E+03 |  636.842
 BASOPT|        3     |       2     | 0.36838299E-02 | 0.41564514E+03 |  443.395
 BASOPT|        3     |       3     | 0.50301173E-02 | 0.23307180E+03 |  368.877
 BASOPT| -----------------------------------------------------------------------
 BASOPT| Total residuum value: -.29651652E+04

 BASOPT| Information at iteration number:    4000
 BASOPT| Training set | Combination | Rho difference | Condition num. | Time
 BASOPT| -----------------------------------------------------------------------
 BASOPT|        1     |       1     | 0.53974366E-02 | 0.52626997E+03 |  695.653
 BASOPT|        1     |       2     | 0.71249990E-02 | 0.37650471E+03 |  504.195
 BASOPT|        1     |       3     | 0.83654856E-02 | 0.18045311E+03 |  414.991
 BASOPT|        2     |       1     | 0.33152002E-02 | 0.61882075E+03 |  370.968
 BASOPT|        2     |       2     | 0.37189553E-02 | 0.32598487E+03 |  276.826
 BASOPT|        2     |       3     | 0.49664911E-02 | 0.16655243E+03 |  226.129
 BASOPT|        3     |       1     | 0.26103304E-02 | 0.62493840E+03 |  653.171
 BASOPT|        3     |       2     | 0.36371498E-02 | 0.40792809E+03 |  454.754
 BASOPT|        3     |       3     | 0.49907529E-02 | 0.23117548E+03 |  378.335
 BASOPT| -----------------------------------------------------------------------
 BASOPT| Total residuum value: -.29651833E+04

 BASOPT| Information at iteration number:    4100
 BASOPT| Training set | Combination | Rho difference | Condition num. | Time
 BASOPT| -----------------------------------------------------------------------
 BASOPT|        1     |       1     | 0.53955719E-02 | 0.51703722E+03 |  712.881
 BASOPT|        1     |       2     | 0.71306573E-02 | 0.37172453E+03 |  516.788
 BASOPT|        1     |       3     | 0.83857211E-02 | 0.17891372E+03 |  425.369
 BASOPT|        2     |       1     | 0.32936580E-02 | 0.61776149E+03 |  380.239
 BASOPT|        2     |       2     | 0.36957518E-02 | 0.32242855E+03 |  283.746
 BASOPT|        2     |       3     | 0.49507273E-02 | 0.16528519E+03 |  231.788
 BASOPT|        3     |       1     | 0.25940404E-02 | 0.61217698E+03 |  669.498
 BASOPT|        3     |       2     | 0.36122138E-02 | 0.40065590E+03 |  466.111
 BASOPT|        3     |       3     | 0.50026526E-02 | 0.22941898E+03 |  387.794
 BASOPT| -----------------------------------------------------------------------
 BASOPT| Total residuum value: -.29651991E+04

 BASOPT| Information at iteration number:    4200
 BASOPT| Training set | Combination | Rho difference | Condition num. | Time
 BASOPT| -----------------------------------------------------------------------
 BASOPT|        1     |       1     | 0.53870063E-02 | 0.51428603E+03 |  730.171
 BASOPT|        1     |       2     | 0.71249635E-02 | 0.36999909E+03 |  529.382
 BASOPT|        1     |       3     | 0.83777439E-02 | 0.17821054E+03 |  435.744
 BASOPT|        2     |       1     | 0.32761356E-02 | 0.61672922E+03 |  389.519
 BASOPT|        2     |       2     | 0.36757582E-02 | 0.31974795E+03 |  290.667
 BASOPT|        2     |       3     | 0.49564785E-02 | 0.16440308E+03 |  237.446
 BASOPT|        3     |       1     | 0.25756655E-02 | 0.60783123E+03 |  685.818
 BASOPT|        3     |       2     | 0.35903555E-02 | 0.39821216E+03 |  477.463
 BASOPT|        3     |       3     | 0.50303620E-02 | 0.22847019E+03 |  397.253
 BASOPT| -----------------------------------------------------------------------
 BASOPT| Total residuum value: -.29652070E+04

 BASOPT| Information at iteration number:    4300
 BASOPT| Training set | Combination | Rho difference | Condition num. | Time
 BASOPT| -----------------------------------------------------------------------
 BASOPT|        1     |       1     | 0.54364483E-02 | 0.51437976E+03 |  747.458
 BASOPT|        1     |       2     | 0.71897570E-02 | 0.36980413E+03 |  541.978
 BASOPT|        1     |       3     | 0.84667492E-02 | 0.17781703E+03 |  446.127
 BASOPT|        2     |       1     | 0.33745891E-02 | 0.62281053E+03 |  398.790
 BASOPT|        2     |       2     | 0.37709827E-02 | 0.32012191E+03 |  297.589
 BASOPT|        2     |       3     | 0.50514435E-02 | 0.16402935E+03 |  243.104
 BASOPT|        3     |       1     | 0.25998991E-02 | 0.60962552E+03 |  702.138
 BASOPT|        3     |       2     | 0.36317830E-02 | 0.39909954E+03 |  488.820
 BASOPT|        3     |       3     | 0.50810146E-02 | 0.22859756E+03 |  406.720
 BASOPT| -----------------------------------------------------------------------
 BASOPT| Total residuum value: -.29652123E+04

 BASOPT| Information at iteration number:    4400
 BASOPT| Training set | Combination | Rho difference | Condition num. | Time
 BASOPT| -----------------------------------------------------------------------
 BASOPT|        1     |       1     | 0.54052944E-02 | 0.51885210E+03 |  764.744
 BASOPT|        1     |       2     | 0.71444612E-02 | 0.37128904E+03 |  554.568
 BASOPT|        1     |       3     | 0.83962196E-02 | 0.17715243E+03 |  456.513
 BASOPT|        2     |       1     | 0.32985650E-02 | 0.63078128E+03 |  408.061
 BASOPT|        2     |       2     | 0.36905713E-02 | 0.32141327E+03 |  304.510
 BASOPT|        2     |       3     | 0.49891545E-02 | 0.16464187E+03 |  248.761
 BASOPT|        3     |       1     | 0.25662469E-02 | 0.61931147E+03 |  718.461
 BASOPT|        3     |       2     | 0.35771301E-02 | 0.40351211E+03 |  500.177
 BASOPT|        3     |       3     | 0.50138523E-02 | 0.22998463E+03 |  416.184
 BASOPT| -----------------------------------------------------------------------
 BASOPT| Total residuum value: -.29652273E+04

 BASOPT| Information at iteration number:    4500
 BASOPT| Training set | Combination | Rho difference | Condition num. | Time
 BASOPT| -----------------------------------------------------------------------
 BASOPT|        1     |       1     | 0.54091282E-02 | 0.52258934E+03 |  782.028
 BASOPT|        1     |       2     | 0.71482975E-02 | 0.37273215E+03 |  567.157
 BASOPT|        1     |       3     | 0.84108569E-02 | 0.17770350E+03 |  466.882
 BASOPT|        2     |       1     | 0.32924437E-02 | 0.63664475E+03 |  417.331
 BASOPT|        2     |       2     | 0.36824784E-02 | 0.32192050E+03 |  311.437
 BASOPT|        2     |       3     | 0.49698217E-02 | 0.16513514E+03 |  254.418
 BASOPT|        3     |       1     | 0.25659750E-02 | 0.62480855E+03 |  734.780
 BASOPT|        3     |       2     | 0.35740854E-02 | 0.40637073E+03 |  511.537
 BASOPT|        3     |       3     | 0.49963160E-02 | 0.23113569E+03 |  425.641
 BASOPT| -----------------------------------------------------------------------
 BASOPT| Total residuum value: -.29652350E+04

 BASOPT| Information at iteration number:    4600
 BASOPT| Training set | Combination | Rho difference | Condition num. | Time
 BASOPT| -----------------------------------------------------------------------
 BASOPT|        1     |       1     | 0.54297761E-02 | 0.52701972E+03 |  799.697
 BASOPT|        1     |       2     | 0.71818265E-02 | 0.37442312E+03 |  579.750
 BASOPT|        1     |       3     | 0.84423078E-02 | 0.17922211E+03 |  477.247
 BASOPT|        2     |       1     | 0.33139990E-02 | 0.64079955E+03 |  426.600
 BASOPT|        2     |       2     | 0.37018075E-02 | 0.32241954E+03 |  318.359
 BASOPT|        2     |       3     | 0.49902309E-02 | 0.16601859E+03 |  260.067
 BASOPT|        3     |       1     | 0.25726161E-02 | 0.62893817E+03 |  751.103
 BASOPT|        3     |       2     | 0.35896702E-02 | 0.40824006E+03 |  522.895
 BASOPT|        3     |       3     | 0.50077844E-02 | 0.23234199E+03 |  435.099
 BASOPT| -----------------------------------------------------------------------
 BASOPT| Total residuum value: -.29652430E+04

 BASOPT| Information at iteration number:    4700
 BASOPT| Training set | Combination | Rho difference | Condition num. | Time
 BASOPT| -----------------------------------------------------------------------
 BASOPT|        1     |       1     | 0.54250817E-02 | 0.52880600E+03 |  817.100
 BASOPT|        1     |       2     | 0.71773098E-02 | 0.37493574E+03 |  592.339
 BASOPT|        1     |       3     | 0.84367537E-02 | 0.17965327E+03 |  487.612
 BASOPT|        2     |       1     | 0.32921411E-02 | 0.64416594E+03 |  435.870
 BASOPT|        2     |       2     | 0.36799577E-02 | 0.32254502E+03 |  325.277
 BASOPT|        2     |       3     | 0.49640372E-02 | 0.16684800E+03 |  265.721
 BASOPT|        3     |       1     | 0.25628978E-02 | 0.63258611E+03 |  767.426
 BASOPT|        3     |       2     | 0.35780135E-02 | 0.40965656E+03 |  534.252
 BASOPT|        3     |       3     | 0.49903859E-02 | 0.23341772E+03 |  444.556
 BASOPT| -----------------------------------------------------------------------
 BASOPT| Total residuum value: -.29652503E+04

 BASOPT| Information at iteration number:    4800
 BASOPT| Training set | Combination | Rho difference | Condition num. | Time
 BASOPT| -----------------------------------------------------------------------
 BASOPT|        1     |       1     | 0.53810821E-02 | 0.53305273E+03 |  834.584
 BASOPT|        1     |       2     | 0.71184976E-02 | 0.37714073E+03 |  604.933
 BASOPT|        1     |       3     | 0.83558166E-02 | 0.18075755E+03 |  497.988
 BASOPT|        2     |       1     | 0.31939933E-02 | 0.64537854E+03 |  445.137
 BASOPT|        2     |       2     | 0.35836452E-02 | 0.32369269E+03 |  332.201
 BASOPT|        2     |       3     | 0.48648217E-02 | 0.16924631E+03 |  271.377
 BASOPT|        3     |       1     | 0.25315300E-02 | 0.64123110E+03 |  783.752
 BASOPT|        3     |       2     | 0.35300195E-02 | 0.41312685E+03 |  545.609
 BASOPT|        3     |       3     | 0.48975607E-02 | 0.23625782E+03 |  454.012
 BASOPT| -----------------------------------------------------------------------
 BASOPT| Total residuum value: -.29652599E+04

 BASOPT| Information at iteration number:    4900
 BASOPT| Training set | Combination | Rho difference | Condition num. | Time
 BASOPT| -----------------------------------------------------------------------
 BASOPT|        1     |       1     | 0.54294455E-02 | 0.53544714E+03 |  852.051
 BASOPT|        1     |       2     | 0.71823635E-02 | 0.37828451E+03 |  617.516
 BASOPT|        1     |       3     | 0.84186714E-02 | 0.18090434E+03 |  508.370
 BASOPT|        2     |       1     | 0.32500119E-02 | 0.64429620E+03 |  454.407
 BASOPT|        2     |       2     | 0.36391189E-02 | 0.32545596E+03 |  339.124
 BASOPT|        2     |       3     | 0.49260265E-02 | 0.17068861E+03 |  277.032
 BASOPT|        3     |       1     | 0.25628131E-02 | 0.64535511E+03 |  800.081
 BASOPT|        3     |       2     | 0.35755421E-02 | 0.41498190E+03 |  556.968
 BASOPT|        3     |       3     | 0.49381769E-02 | 0.23743349E+03 |  463.470
 BASOPT| -----------------------------------------------------------------------
 BASOPT| Total residuum value: -.29652662E+04

 BASOPT| Information at iteration number:    5000
 BASOPT| Training set | Combination | Rho difference | Condition num. | Time
 BASOPT| -----------------------------------------------------------------------
 BASOPT|        1     |       1     | 0.54863628E-02 | 0.53826615E+03 |  869.326
 BASOPT|        1     |       2     | 0.72534865E-02 | 0.37939557E+03 |  630.110
 BASOPT|        1     |       3     | 0.84922377E-02 | 0.18117319E+03 |  518.738
 BASOPT|        2     |       1     | 0.33373353E-02 | 0.64656525E+03 |  463.676
 BASOPT|        2     |       2     | 0.37250907E-02 | 0.32868039E+03 |  346.047
 BASOPT|        2     |       3     | 0.50221400E-02 | 0.17234762E+03 |  282.693
 BASOPT|        3     |       1     | 0.26045345E-02 | 0.64941126E+03 |  816.412
 BASOPT|        3     |       2     | 0.36387594E-02 | 0.41754209E+03 |  568.328
 BASOPT|        3     |       3     | 0.50321041E-02 | 0.23858955E+03 |  472.929
 BASOPT| -----------------------------------------------------------------------
 BASOPT| Total residuum value: -.29652734E+04

 BASOPT| Information at iteration number:    5100
 BASOPT| Training set | Combination | Rho difference | Condition num. | Time
 BASOPT| -----------------------------------------------------------------------
 BASOPT|        1     |       1     | 0.54562276E-02 | 0.54500078E+03 |  886.638
 BASOPT|        1     |       2     | 0.72051667E-02 | 0.38215285E+03 |  642.701
 BASOPT|        1     |       3     | 0.84236794E-02 | 0.18286347E+03 |  529.102
 BASOPT|        2     |       1     | 0.32653151E-02 | 0.64898347E+03 |  472.945
 BASOPT|        2     |       2     | 0.36558420E-02 | 0.33409597E+03 |  352.969
 BASOPT|        2     |       3     | 0.49427628E-02 | 0.17541434E+03 |  288.352
 BASOPT|        3     |       1     | 0.25968985E-02 | 0.65743460E+03 |  832.743
 BASOPT|        3     |       2     | 0.36242609E-02 | 0.42203081E+03 |  579.683
 BASOPT|        3     |       3     | 0.49878293E-02 | 0.24081366E+03 |  482.387
 BASOPT| -----------------------------------------------------------------------
 BASOPT| Total residuum value: -.29652827E+04

 BASOPT| Information at iteration number:    5200
 BASOPT| Training set | Combination | Rho difference | Condition num. | Time
 BASOPT| -----------------------------------------------------------------------
 BASOPT|        1     |       1     | 0.54523563E-02 | 0.54994760E+03 |  904.059
 BASOPT|        1     |       2     | 0.71871698E-02 | 0.38403842E+03 |  655.293
 BASOPT|        1     |       3     | 0.83891149E-02 | 0.18365598E+03 |  539.467
 BASOPT|        2     |       1     | 0.32545879E-02 | 0.64904030E+03 |  482.211
 BASOPT|        2     |       2     | 0.36451232E-02 | 0.34023796E+03 |  359.889
 BASOPT|        2     |       3     | 0.49379331E-02 | 0.17799745E+03 |  294.009
 BASOPT|        3     |       1     | 0.26000438E-02 | 0.66406414E+03 |  849.072
 BASOPT|        3     |       2     | 0.36227271E-02 | 0.42625709E+03 |  591.043
 BASOPT|        3     |       3     | 0.49895967E-02 | 0.24254294E+03 |  491.847
 BASOPT| -----------------------------------------------------------------------
 BASOPT| Total residuum value: -.29652893E+04

 BASOPT| Information at iteration number:    5300
 BASOPT| Training set | Combination | Rho difference | Condition num. | Time
 BASOPT| -----------------------------------------------------------------------
 BASOPT|        1     |       1     | 0.54558400E-02 | 0.55105018E+03 |  921.368
 BASOPT|        1     |       2     | 0.71857971E-02 | 0.38353638E+03 |  667.886
 BASOPT|        1     |       3     | 0.83870710E-02 | 0.18357012E+03 |  549.834
 BASOPT|        2     |       1     | 0.32331127E-02 | 0.64888881E+03 |  491.492
 BASOPT|        2     |       2     | 0.36253478E-02 | 0.34378598E+03 |  366.812
 BASOPT|        2     |       3     | 0.49233969E-02 | 0.18057366E+03 |  299.666
 BASOPT|        3     |       1     | 0.26057194E-02 | 0.66790879E+03 |  865.402
 BASOPT|        3     |       2     | 0.36297191E-02 | 0.42834723E+03 |  602.403
 BASOPT|        3     |       3     | 0.49955849E-02 | 0.24416288E+03 |  501.309
 BASOPT| -----------------------------------------------------------------------
 BASOPT| Total residuum value: -.29652961E+04

 BASOPT| Information at iteration number:    5400
 BASOPT| Training set | Combination | Rho difference | Condition num. | Time
 BASOPT| -----------------------------------------------------------------------
 BASOPT|        1     |       1     | 0.54276554E-02 | 0.55256340E+03 |  938.658
 BASOPT|        1     |       2     | 0.71443074E-02 | 0.38370799E+03 |  680.476
 BASOPT|        1     |       3     | 0.83283717E-02 | 0.18377002E+03 |  560.204
 BASOPT|        2     |       1     | 0.31812962E-02 | 0.64974448E+03 |  500.763
 BASOPT|        2     |       2     | 0.35767340E-02 | 0.34620135E+03 |  373.731
 BASOPT|        2     |       3     | 0.48709475E-02 | 0.18184444E+03 |  305.323
 BASOPT|        3     |       1     | 0.25891424E-02 | 0.67112815E+03 |  881.729
 BASOPT|        3     |       2     | 0.36044461E-02 | 0.43094770E+03 |  613.762
 BASOPT|        3     |       3     | 0.49500655E-02 | 0.24533831E+03 |  510.771
 BASOPT| -----------------------------------------------------------------------
 BASOPT| Total residuum value: -.29652999E+04

 BASOPT| Information at iteration number:    5500
 BASOPT| Training set | Combination | Rho difference | Condition num. | Time
 BASOPT| -----------------------------------------------------------------------
 BASOPT|        1     |       1     | 0.54435772E-02 | 0.55578098E+03 |  956.087
 BASOPT|        1     |       2     | 0.71561418E-02 | 0.38435248E+03 |  693.061
 BASOPT|        1     |       3     | 0.83266243E-02 | 0.18416762E+03 |  570.580
 BASOPT|        2     |       1     | 0.31938864E-02 | 0.65276946E+03 |  510.030
 BASOPT|        2     |       2     | 0.35901311E-02 | 0.35098438E+03 |  380.651
 BASOPT|        2     |       3     | 0.48891750E-02 | 0.18390201E+03 |  310.981
 BASOPT|        3     |       1     | 0.25995523E-02 | 0.67811414E+03 |  898.054
 BASOPT|        3     |       2     | 0.36150128E-02 | 0.43567522E+03 |  625.119
 BASOPT|        3     |       3     | 0.49561633E-02 | 0.24727007E+03 |  520.230
 BASOPT| -----------------------------------------------------------------------
 BASOPT| Total residuum value: -.29653039E+04

 BASOPT| Information at iteration number:    5600
 BASOPT| Training set | Combination | Rho difference | Condition num. | Time
 BASOPT| -----------------------------------------------------------------------
 BASOPT|        1     |       1     | 0.54658562E-02 | 0.55813329E+03 |  973.377
 BASOPT|        1     |       2     | 0.71800985E-02 | 0.38470650E+03 |  705.652
 BASOPT|        1     |       3     | 0.83394139E-02 | 0.18457057E+03 |  580.967
 BASOPT|        2     |       1     | 0.32251937E-02 | 0.65711779E+03 |  519.300
 BASOPT|        2     |       2     | 0.36214568E-02 | 0.35362467E+03 |  387.575
 BASOPT|        2     |       3     | 0.49259012E-02 | 0.18544188E+03 |  316.645
 BASOPT|        3     |       1     | 0.26156371E-02 | 0.68249354E+03 |  914.384
 BASOPT|        3     |       2     | 0.36355960E-02 | 0.43849262E+03 |  636.479
 BASOPT|        3     |       3     | 0.49820319E-02 | 0.24866593E+03 |  529.692
 BASOPT| -----------------------------------------------------------------------
 BASOPT| Total residuum value: -.29653074E+04

 BASOPT| Information at iteration number:    5700
 BASOPT| Training set | Combination | Rho difference | Condition num. | Time
 BASOPT| -----------------------------------------------------------------------
 BASOPT|        1     |       1     | 0.54860743E-02 | 0.55981126E+03 |  990.701
 BASOPT|        1     |       2     | 0.72028089E-02 | 0.38566791E+03 |  718.243
 BASOPT|        1     |       3     | 0.83587650E-02 | 0.18460802E+03 |  591.340
 BASOPT|        2     |       1     | 0.32550288E-02 | 0.66031834E+03 |  528.572
 BASOPT|        2     |       2     | 0.36510737E-02 | 0.35441532E+03 |  394.492
 BASOPT|        2     |       3     | 0.49557149E-02 | 0.18601346E+03 |  322.301
 BASOPT|        3     |       1     | 0.26272839E-02 | 0.68399329E+03 |  930.712
 BASOPT|        3     |       2     | 0.36539203E-02 | 0.43938738E+03 |  647.844
 BASOPT|        3     |       3     | 0.49925821E-02 | 0.24914247E+03 |  539.153
 BASOPT| -----------------------------------------------------------------------
 BASOPT| Total residuum value: -.29653104E+04

 BASOPT| Information at iteration number:    5800
 BASOPT| Training set | Combination | Rho difference | Condition num. | Time
 BASOPT| -----------------------------------------------------------------------
 BASOPT|        1     |       1     | 0.54779997E-02 | 0.56107634E+03 | 1007.973
 BASOPT|        1     |       2     | 0.71882701E-02 | 0.38649565E+03 |  730.830
 BASOPT|        1     |       3     | 0.83384712E-02 | 0.18451971E+03 |  601.727
 BASOPT|        2     |       1     | 0.32262643E-02 | 0.66305749E+03 |  537.841
 BASOPT|        2     |       2     | 0.36240465E-02 | 0.35527036E+03 |  401.411
 BASOPT|        2     |       3     | 0.49260232E-02 | 0.18705451E+03 |  327.956
 BASOPT|        3     |       1     | 0.26216120E-02 | 0.68660139E+03 |  947.035
 BASOPT|        3     |       2     | 0.36437543E-02 | 0.44022422E+03 |  659.205
 BASOPT|        3     |       3     | 0.49745397E-02 | 0.24995419E+03 |  548.613
 BASOPT| -----------------------------------------------------------------------
 BASOPT| Total residuum value: -.29653141E+04

 BASOPT| Information at iteration number:    5900
 BASOPT| Training set | Combination | Rho difference | Condition num. | Time
 BASOPT| -----------------------------------------------------------------------
 BASOPT|        1     |       1     | 0.54589694E-02 | 0.56032230E+03 | 1025.228
 BASOPT|        1     |       2     | 0.71640888E-02 | 0.38643462E+03 |  743.418
 BASOPT|        1     |       3     | 0.83155160E-02 | 0.18405266E+03 |  612.099
 BASOPT|        2     |       1     | 0.32061759E-02 | 0.66299916E+03 |  547.112
 BASOPT|        2     |       2     | 0.36039886E-02 | 0.35397810E+03 |  408.335
 BASOPT|        2     |       3     | 0.49002985E-02 | 0.18699835E+03 |  333.613
 BASOPT|        3     |       1     | 0.26054152E-02 | 0.68711098E+03 |  963.353
 BASOPT|        3     |       2     | 0.36222632E-02 | 0.44005739E+03 |  670.568
 BASOPT|        3     |       3     | 0.49400829E-02 | 0.25022076E+03 |  558.073
 BASOPT| -----------------------------------------------------------------------
 BASOPT| Total residuum value: -.29653191E+04

 BASOPT| Information at iteration number:    6000
 BASOPT| Training set | Combination | Rho difference | Condition num. | Time
 BASOPT| -----------------------------------------------------------------------
 BASOPT|        1     |       1     | 0.54579692E-02 | 0.56045884E+03 | 1042.528
 BASOPT|        1     |       2     | 0.71608986E-02 | 0.38707348E+03 |  756.006
 BASOPT|        1     |       3     | 0.83109300E-02 | 0.18370670E+03 |  622.473
 BASOPT|        2     |       1     | 0.32122866E-02 | 0.66189440E+03 |  556.392
 BASOPT|        2     |       2     | 0.36099251E-02 | 0.35326264E+03 |  415.260
 BASOPT|        2     |       3     | 0.49047209E-02 | 0.18686422E+03 |  339.273
 BASOPT|        3     |       1     | 0.26058951E-02 | 0.68717120E+03 |  979.677
 BASOPT|        3     |       2     | 0.36204566E-02 | 0.44001220E+03 |  681.933
 BASOPT|        3     |       3     | 0.49285590E-02 | 0.25029716E+03 |  567.537
 BASOPT| -----------------------------------------------------------------------
 BASOPT| Total residuum value: -.29653212E+04

 BASOPT| Information at iteration number:    6100
 BASOPT| Training set | Combination | Rho difference | Condition num. | Time
 BASOPT| -----------------------------------------------------------------------
 BASOPT|        1     |       1     | 0.54747159E-02 | 0.56090298E+03 | 1059.803
 BASOPT|        1     |       2     | 0.71809852E-02 | 0.38759125E+03 |  768.595
 BASOPT|        1     |       3     | 0.83330223E-02 | 0.18382707E+03 |  632.859
 BASOPT|        2     |       1     | 0.32456651E-02 | 0.66216428E+03 |  565.664
 BASOPT|        2     |       2     | 0.36417422E-02 | 0.35228336E+03 |  422.181
 BASOPT|        2     |       3     | 0.49342479E-02 | 0.18657246E+03 |  344.928
 BASOPT|        3     |       1     | 0.26155863E-02 | 0.68717975E+03 |  996.003
 BASOPT|        3     |       2     | 0.36324163E-02 | 0.43989276E+03 |  693.295
 BASOPT|        3     |       3     | 0.49319385E-02 | 0.25030575E+03 |  576.998
 BASOPT| -----------------------------------------------------------------------
 BASOPT| Total residuum value: -.29653231E+04

 BASOPT| Information at iteration number:    6200
 BASOPT| Training set | Combination | Rho difference | Condition num. | Time
 BASOPT| -----------------------------------------------------------------------
 BASOPT|        1     |       1     | 0.55092182E-02 | 0.55931039E+03 | 1077.100
 BASOPT|        1     |       2     | 0.72270118E-02 | 0.38675506E+03 |  781.184
 BASOPT|        1     |       3     | 0.83925400E-02 | 0.18394261E+03 |  643.232
 BASOPT|        2     |       1     | 0.33200968E-02 | 0.65717712E+03 |  574.932
 BASOPT|        2     |       2     | 0.37115568E-02 | 0.34972113E+03 |  429.100
 BASOPT|        2     |       3     | 0.49931447E-02 | 0.18554953E+03 |  350.586
 BASOPT|        3     |       1     | 0.26336841E-02 | 0.68100067E+03 | 1012.330
 BASOPT|        3     |       2     | 0.36602692E-02 | 0.43754296E+03 |  704.655
 BASOPT|        3     |       3     | 0.49447980E-02 | 0.24942817E+03 |  586.461
 BASOPT| -----------------------------------------------------------------------
 BASOPT| Total residuum value: -.29653243E+04

 BASOPT| Information at iteration number:    6300
 BASOPT| Training set | Combination | Rho difference | Condition num. | Time
 BASOPT| -----------------------------------------------------------------------
 BASOPT|        1     |       1     | 0.54978607E-02 | 0.55836095E+03 | 1094.438
 BASOPT|        1     |       2     | 0.72091896E-02 | 0.38647033E+03 |  793.782
 BASOPT|        1     |       3     | 0.83699009E-02 | 0.18379691E+03 |  653.608
 BASOPT|        2     |       1     | 0.33109163E-02 | 0.65441292E+03 |  584.205
 BASOPT|        2     |       2     | 0.37021537E-02 | 0.34908106E+03 |  436.022
 BASOPT|        2     |       3     | 0.49882913E-02 | 0.18525985E+03 |  356.243
 BASOPT|        3     |       1     | 0.26286483E-02 | 0.67961880E+03 | 1028.652
 BASOPT|        3     |       2     | 0.36478481E-02 | 0.43716165E+03 |  716.015
 BASOPT|        3     |       3     | 0.49437720E-02 | 0.24929541E+03 |  595.924
 BASOPT| -----------------------------------------------------------------------
 BASOPT| Total residuum value: -.29653274E+04

 BASOPT| Information at iteration number:    6400
 BASOPT| Training set | Combination | Rho difference | Condition num. | Time
 BASOPT| -----------------------------------------------------------------------
 BASOPT|        1     |       1     | 0.54699078E-02 | 0.55806659E+03 | 1111.722
 BASOPT|        1     |       2     | 0.71728768E-02 | 0.38636522E+03 |  806.378
 BASOPT|        1     |       3     | 0.83271084E-02 | 0.18407812E+03 |  663.984
 BASOPT|        2     |       1     | 0.32760844E-02 | 0.65646550E+03 |  593.479
 BASOPT|        2     |       2     | 0.36667063E-02 | 0.34821939E+03 |  442.946
 BASOPT|        2     |       3     | 0.49489607E-02 | 0.18487216E+03 |  361.897
 BASOPT|        3     |       1     | 0.26092613E-02 | 0.67712517E+03 | 1044.969
 BASOPT|        3     |       2     | 0.36203542E-02 | 0.43626228E+03 |  727.378
 BASOPT|        3     |       3     | 0.49125479E-02 | 0.24892890E+03 |  605.384
 BASOPT| -----------------------------------------------------------------------
 BASOPT| Total residuum value: -.29653294E+04

 BASOPT| Information at iteration number:    6500
 BASOPT| Training set | Combination | Rho difference | Condition num. | Time
 BASOPT| -----------------------------------------------------------------------
 BASOPT|        1     |       1     | 0.55043247E-02 | 0.55613881E+03 | 1128.948
 BASOPT|        1     |       2     | 0.72201824E-02 | 0.38520991E+03 |  818.940
 BASOPT|        1     |       3     | 0.83823345E-02 | 0.18430942E+03 |  674.368
 BASOPT|        2     |       1     | 0.33460307E-02 | 0.65777607E+03 |  602.751
 BASOPT|        2     |       2     | 0.37326727E-02 | 0.34576950E+03 |  449.866
 BASOPT|        2     |       3     | 0.50140980E-02 | 0.18394469E+03 |  367.551
 BASOPT|        3     |       1     | 0.26302132E-02 | 0.67143321E+03 | 1061.288
 BASOPT|        3     |       2     | 0.36532669E-02 | 0.43309953E+03 |  738.741
 BASOPT|        3     |       3     | 0.49513778E-02 | 0.24779084E+03 |  614.848
 BASOPT| -----------------------------------------------------------------------
 BASOPT| Total residuum value: -.29653316E+04

 BASOPT| Information at iteration number:    6600
 BASOPT| Training set | Combination | Rho difference | Condition num. | Time
 BASOPT| -----------------------------------------------------------------------
 BASOPT|        1     |       1     | 0.54872020E-02 | 0.55462689E+03 | 1146.215
 BASOPT|        1     |       2     | 0.72011256E-02 | 0.38445286E+03 |  831.502
 BASOPT|        1     |       3     | 0.83621791E-02 | 0.18428614E+03 |  684.756
 BASOPT|        2     |       1     | 0.33294076E-02 | 0.65835662E+03 |  612.026
 BASOPT|        2     |       2     | 0.37163182E-02 | 0.34382184E+03 |  456.786
 BASOPT|        2     |       3     | 0.49985726E-02 | 0.18321825E+03 |  373.204
 BASOPT|        3     |       1     | 0.26224742E-02 | 0.66770262E+03 | 1077.610
 BASOPT|        3     |       2     | 0.36439359E-02 | 0.43088090E+03 |  750.095
 BASOPT|        3     |       3     | 0.49468941E-02 | 0.24693686E+03 |  624.308
 BASOPT| -----------------------------------------------------------------------
 BASOPT| Total residuum value: -.29653324E+04

 BASOPT| Information at iteration number:    6700
 BASOPT| Training set | Combination | Rho difference | Condition num. | Time
 BASOPT| -----------------------------------------------------------------------
 BASOPT|        1     |       1     | 0.54857943E-02 | 0.55313532E+03 | 1163.466
 BASOPT|        1     |       2     | 0.72000414E-02 | 0.38343574E+03 |  844.078
 BASOPT|        1     |       3     | 0.83620671E-02 | 0.18405709E+03 |  695.126
[...]
 BASOPT|        2     |       1     | 0.34297694E-02 | 0.54465581E+03 | 4587.274
 BASOPT|        2     |       2     | 0.37798917E-02 | 0.27527629E+03 | 3423.710
 BASOPT|        2     |       3     | 0.51123160E-02 | 0.16594918E+03 | 2796.955
 BASOPT|        3     |       1     | 0.26311070E-02 | 0.50327798E+03 | 8079.853
 BASOPT|        3     |       2     | 0.36595669E-02 | 0.32187111E+03 | 5618.375
 BASOPT|        3     |       3     | 0.48425665E-02 | 0.20712656E+03 | 4677.963
 BASOPT| -----------------------------------------------------------------------
 BASOPT| Total residuum value: -.29653677E+04

 BASOPT| Information at iteration number:   49600
 BASOPT| Training set | Combination | Rho difference | Condition num. | Time
 BASOPT| -----------------------------------------------------------------------
 BASOPT|        1     |       1     | 0.54660682E-02 | 0.39671549E+03 | 8742.980
 BASOPT|        1     |       2     | 0.72002728E-02 | 0.25827686E+03 | 6239.736
 BASOPT|        1     |       3     | 0.83698088E-02 | 0.14811542E+03 | 5144.992
 BASOPT|        2     |       1     | 0.34310659E-02 | 0.54459932E+03 | 4596.532
 BASOPT|        2     |       2     | 0.37811705E-02 | 0.27514977E+03 | 3430.618
 BASOPT|        2     |       3     | 0.51136594E-02 | 0.16588632E+03 | 2802.603
 BASOPT|        3     |       1     | 0.26313957E-02 | 0.50303117E+03 | 8096.164
 BASOPT|        3     |       2     | 0.36604050E-02 | 0.32173125E+03 | 5629.703
 BASOPT|        3     |       3     | 0.48436756E-02 | 0.20704823E+03 | 4687.400
 BASOPT| -----------------------------------------------------------------------
 BASOPT| Total residuum value: -.29653677E+04

 BASOPT| Information at iteration number:   49700
 BASOPT| Training set | Combination | Rho difference | Condition num. | Time
 BASOPT| -----------------------------------------------------------------------
 BASOPT|        1     |       1     | 0.54660202E-02 | 0.39669337E+03 | 8760.635
 BASOPT|        1     |       2     | 0.72001508E-02 | 0.25825546E+03 | 6252.322
 BASOPT|        1     |       3     | 0.83700133E-02 | 0.14810767E+03 | 5155.359
 BASOPT|        2     |       1     | 0.34312933E-02 | 0.54460663E+03 | 4605.793
 BASOPT|        2     |       2     | 0.37814524E-02 | 0.27514782E+03 | 3437.534
 BASOPT|        2     |       3     | 0.51138175E-02 | 0.16588352E+03 | 2808.253
 BASOPT|        3     |       1     | 0.26313041E-02 | 0.50308011E+03 | 8112.478
 BASOPT|        3     |       2     | 0.36603823E-02 | 0.32175257E+03 | 5641.037
 BASOPT|        3     |       3     | 0.48436899E-02 | 0.20705877E+03 | 4696.841
 BASOPT| -----------------------------------------------------------------------
 BASOPT| Total residuum value: -.29653677E+04

 BASOPT| Information at iteration number:   49800
 BASOPT| Training set | Combination | Rho difference | Condition num. | Time
 BASOPT| -----------------------------------------------------------------------
 BASOPT|        1     |       1     | 0.54661436E-02 | 0.39671678E+03 | 8778.475
 BASOPT|        1     |       2     | 0.72003457E-02 | 0.25827625E+03 | 6264.909
 BASOPT|        1     |       3     | 0.83703137E-02 | 0.14811534E+03 | 5165.734
 BASOPT|        2     |       1     | 0.34319428E-02 | 0.54459392E+03 | 4615.051
 BASOPT|        2     |       2     | 0.37820688E-02 | 0.27515654E+03 | 3444.448
 BASOPT|        2     |       3     | 0.51141558E-02 | 0.16588643E+03 | 2813.901
 BASOPT|        3     |       1     | 0.26314351E-02 | 0.50305732E+03 | 8128.789
 BASOPT|        3     |       2     | 0.36607143E-02 | 0.32174131E+03 | 5652.375
 BASOPT|        3     |       3     | 0.48437499E-02 | 0.20705470E+03 | 4706.282
 BASOPT| -----------------------------------------------------------------------
 BASOPT| Total residuum value: -.29653677E+04

 BASOPT| Information at iteration number:   49900
 BASOPT| Training set | Combination | Rho difference | Condition num. | Time
 BASOPT| -----------------------------------------------------------------------
 BASOPT|        1     |       1     | 0.54671740E-02 | 0.39675154E+03 | 8796.236
 BASOPT|        1     |       2     | 0.72016118E-02 | 0.25829315E+03 | 6277.486
 BASOPT|        1     |       3     | 0.83716523E-02 | 0.14812410E+03 | 5176.103
 BASOPT|        2     |       1     | 0.34338559E-02 | 0.54448360E+03 | 4624.314
 BASOPT|        2     |       2     | 0.37839951E-02 | 0.27517763E+03 | 3451.365
 BASOPT|        2     |       3     | 0.51163564E-02 | 0.16589818E+03 | 2819.552
 BASOPT|        3     |       1     | 0.26324525E-02 | 0.50305597E+03 | 8145.099
 BASOPT|        3     |       2     | 0.36621932E-02 | 0.32174133E+03 | 5663.705
 BASOPT|        3     |       3     | 0.48458732E-02 | 0.20706851E+03 | 4715.724
 BASOPT| -----------------------------------------------------------------------
 BASOPT| Total residuum value: -.29653677E+04

 BASOPT| Information at iteration number:   50000
 BASOPT| Training set | Combination | Rho difference | Condition num. | Time
 BASOPT| -----------------------------------------------------------------------
 BASOPT|        1     |       1     | 0.54663276E-02 | 0.39681475E+03 | 8814.068
 BASOPT|        1     |       2     | 0.72002901E-02 | 0.25832426E+03 | 6290.061
 BASOPT|        1     |       3     | 0.83702195E-02 | 0.14813593E+03 | 5186.462
 BASOPT|        2     |       1     | 0.34319410E-02 | 0.54430145E+03 | 4633.574
 BASOPT|        2     |       2     | 0.37821136E-02 | 0.27524859E+03 | 3458.284
 BASOPT|        2     |       3     | 0.51143095E-02 | 0.16593830E+03 | 2825.205
 BASOPT|        3     |       1     | 0.26318839E-02 | 0.50320624E+03 | 8161.413
 BASOPT|        3     |       2     | 0.36612580E-02 | 0.32179608E+03 | 5675.045
 BASOPT|        3     |       3     | 0.48441213E-02 | 0.20710234E+03 | 4725.163
 BASOPT| -----------------------------------------------------------------------
 BASOPT| Total residuum value: -.29653677E+04


 -------------------------------------------------------------------------------
 -                                                                             -
 -                                DBCSR STATISTICS                             -
 -                                                                             -
 -------------------------------------------------------------------------------
 COUNTER                                    TOTAL       BLAS       SMM       ACC
 flops   112 x   112 x    15              1128960       0.0%    100.0%      0.0%
 flops   116 x   112 x    15              1169280       0.0%    100.0%      0.0%
 flops   112 x   116 x    15              1169280       0.0%    100.0%      0.0%
 flops   112 x   112 x    16              1204224       0.0%    100.0%      0.0%
 flops   116 x   112 x    16              1247232       0.0%    100.0%      0.0%
 flops   112 x   116 x    16              1247232       0.0%    100.0%      0.0%
 flops   116 x   116 x    15              3633120       0.0%    100.0%      0.0%
 flops   116 x   116 x    16              3875328       0.0%    100.0%      0.0%
 flops   112 x   112 x    19              5720064       0.0%    100.0%      0.0%
 flops   112 x   116 x    19              5924352       0.0%    100.0%      0.0%
 flops   116 x   112 x    19             11848704       0.0%    100.0%      0.0%
 flops   116 x   116 x    19             36815616       0.0%    100.0%      0.0%
 flops inhomo. stacks                           0       0.0%      0.0%      0.0%
 flops total                        74.983392E+06       0.0%    100.0%      0.0%
 flops max/rank                      3.067968E+06       0.0%    100.0%      0.0%
 matmuls inhomo. stacks                         0       0.0%      0.0%      0.0%
 matmuls total                                156       0.0%    100.0%      0.0%
 number of processed stacks                   114       0.0%    100.0%      0.0%
 average stack size                                     0.0       1.4       0.0
 marketing flops                   118.500104E+06
 -------------------------------------------------------------------------------
 # multiplications                              2
 max memory usage/rank             128.311296E+06
 # max total images/rank                        3
 # max 3D layers                                1
 # MPI messages exchanged                     492
 MPI messages size (bytes):
  total size                         3.960384E+06
  min size                           0.000000E+00
  max size                          69.920000E+03
  average size                       8.049561E+03
 MPI breakdown and total messages size (bytes):
             size <=      128                 402                        0
       128 < size <=     8192                   0                        0
      8192 < size <=    32768                  12                   207936
     32768 < size <=   131072                  78                  3752448
    131072 < size <=  4194304                   0                        0
   4194304 < size <= 16777216                   0                        0
  16777216 < size                               0                        0
 -------------------------------------------------------------------------------

 *** WARNING in dbcsr_mm.F:294 :: Using a non-square number of MPI ranks ***
 *** might lead to poor performance. Used ranks: 6 Suggested: 4 9        ***

 -------------------------------------------------------------------------------
 -                                                                             -
 -                      DBCSR MESSAGE PASSING PERFORMANCE                      -
 -                                                                             -
 -------------------------------------------------------------------------------
 ROUTINE             CALLS      AVE VOLUME [Bytes]
 MP_Bcast               13                     12.
 MP_Allreduce           57                     20.
 MP_Alltoall       3600102                  96460.
 MP_ISend               36                   3978.
 MP_IRecv               36                     57.
 -------------------------------------------------------------------------------

 -------------------------------------------------------------------------------
 -                                                                             -
 -                                GRID STATISTICS                              -
 -                                                                             -
 -------------------------------------------------------------------------------
 LP    KERNEL             BACKEND                              COUNT     PERCENT
 5     collocate ortho    REF                                  17052      17.44%
 5     integrate ortho    REF                                  17052      17.44%
 2     collocate ortho    REF                                  15828      16.19%
 2     integrate ortho    REF                                  15828      16.19%
 4     collocate ortho    REF                                   6888       7.04%
 4     integrate ortho    REF                                   6888       7.04%
 8     collocate ortho    REF                                   4950       5.06%
 8     integrate ortho    REF                                   4950       5.06%
 7     collocate ortho    REF                                   2748       2.81%
 7     integrate ortho    REF                                   2748       2.81%
 6     collocate ortho    REF                                   1404       1.44%
 6     integrate ortho    REF                                   1404       1.44%
 0     collocate general  REF                                     33       0.03%
 -------------------------------------------------------------------------------

 MEMORY| Estimated peak process memory [MiB]                                 147

 -------------------------------------------------------------------------------
 -                                                                             -
 -                         MESSAGE PASSING PERFORMANCE                         -
 -                                                                             -
 -------------------------------------------------------------------------------

 ROUTINE             CALLS      AVE VOLUME [Bytes]
 MP_Bcast           200032                    555.
 MP_Allreduce       900390                     55.
 MP_Sync            200004
 MP_Alltoall            34                1916356.
 MP_ISendRecv           85                 125530.
 MP_Wait                85
 MP_comm_split      150004
 -------------------------------------------------------------------------------


 -------------------------------------------------------------------------------
 -                                                                             -
 -                           R E F E R E N C E S                               -
 -                                                                             -
 -------------------------------------------------------------------------------
 
 CP2K version 9.0 (Development Version), the CP2K developers group (2020).
 CP2K is freely available from https://www.cp2k.org/ .

 Kuehne,Thomas D.; Iannuzzi,Marcella; Del Ben,Mauro;
 Rybkin,Vladimir V.; Seewald,Patrick; Stein,Frederick; Laino,Teodoro;
 Khaliullin,Rustam Z.; Schuett,Ole; Schiffmann,Florian; Golze,Dorothea;
 Wilhelm,Jan; Chulkov,Sergey; Bani-Hashemian,Mohammad Hossein;
 Weber,Valery; Borstnik,Urban; Taillefumier,Mathieu;
 Jakobovits,Alice Shoshana; Lazzaro,Alfio; Pabst,Hans; Mueller,Tiziano;
 Schade,Robert; Guidon,Manuel; Andermatt,Samuel; Holmberg,Nico;
 Schenter,Gregory K.; Hehn,Anna; Bussy,Augustin; Belleflamme,Fabian;
 Tabacchi,Gloria; Gloess,Andreas; Lass,Michael; Bethune,Iain;
 Mundy,Christopher J.; Plessl,Christian; Watkins,Matt;
 VandeVondele,Joost; Krack,Matthias; Hutter,Juerg. 
 The Journal of Chemical Physics, 152 (19), (2020). 
 CP2K: An electronic structure and molecular dynamics software package -
 Quickstep: Efficient and accurate electronic structure calculations.
 https://doi.org/10.1063/5.0007045

 Schuett, Ole; Messmer, Peter; Hutter, Juerg; VandeVondele, Joost. 
 Electronic Structure Calculations on Graphics Processing Units, John
 Wiley & Sons, Ltd, 173-190 (2016). 
 GPU-Accelerated Sparse Matrix-Matrix Multiplication for
 Linear Scaling Density Functional Theory.
 https://doi.org/10.1002/9781118670712.ch8

 Borstnik, U; VandeVondele, J; Weber, V; Hutter, J. 
 PARALLEL COMPUTING, 40 (5-6), 47-58 (2014). 
 Sparse matrix multiplication: The distributed block-compressed sparse
 row library.
 https://doi.org/10.1016/j.parco.2014.03.012

 Hutter, J; Iannuzzi, M; Schiffmann, F; VandeVondele, J. 
 WIREs Comput Mol Sci., 4 (1), 15-25 (2014). 
 CP2K: atomistic simulations of condensed matter systems.
 https://doi.org/10.1002/wcms.1159

 Marek, A; Blum, V; Johanni, R; Havu, V; Lang, B; Auckenthaler, T;
 Heinecke, A; Bungartz, H; Lederer, H. 
 Journal of Physics: Condensed Matter, 26 (21), (2014). 
 The ELPA library: scalable parallel eigenvalue solutions for
 electronic structure
 theory and computational science.
 https://doi.org/10.1088/0953-8984/26/21/213201

 Guidon, M; Hutter, J; VandeVondele, J. 
 JOURNAL OF CHEMICAL THEORY AND COMPUTATION, 6 (8), 2348-2364 (2010). 
 Auxiliary Density Matrix Methods for Hartree-Fock Exchange Calculations.
 https://doi.org/10.1021/ct1002225

 VandeVondele, J; Hutter, J. 
 JOURNAL OF CHEMICAL PHYSICS, 127 (11), 114105 (2007). 
 Gaussian basis sets for accurate calculations on molecular systems in
 gas and condensed phases.
 https://doi.org/10.1063/1.2770708

 Krack, M. 
 THEORETICAL CHEMISTRY ACCOUNTS, 114 (1-3), 145-152 (2005). 
 Pseudopotentials for H to Kr optimized for gradient-corrected
 exchange-correlation functionals.
 https://doi.org/10.1007/s00214-005-0655-y

 VandeVondele, J; Krack, M; Mohamed, F; Parrinello, M; Chassaing, T;
 Hutter, J. COMPUTER PHYSICS COMMUNICATIONS, 167 (2), 103-128 (2005). 
 QUICKSTEP: Fast and accurate density functional calculations using a
 mixed Gaussian and plane waves approach.
 https://doi.org/10.1016/j.cpc.2004.12.014

 Frigo, M; Johnson, SG. 
 PROCEEDINGS OF THE IEEE, 93 (2), 216-231 (2005). 
 The design and implementation of FFTW3.
 https://doi.org/10.1109/JPROC.2004.840301

 Hartwigsen, C; Goedecker, S; Hutter, J. 
 PHYSICAL REVIEW B, 58 (7), 3641-3662 (1998). 
 Relativistic separable dual-space Gaussian pseudopotentials from H to Rn.
 https://doi.org/10.1103/PhysRevB.58.3641

 Lippert, G; Hutter, J; Parrinello, M. 
 MOLECULAR PHYSICS, 92 (3), 477-487 (1997). 
 A hybrid Gaussian and plane wave density functional scheme.
 https://doi.org/10.1080/002689797170220

 Perdew, JP; Burke, K; Ernzerhof, M. 
 PHYSICAL REVIEW LETTERS, 77 (18), 3865-3868 (1996). 
 Generalized gradient approximation made simple.
 https://doi.org/10.1103/PhysRevLett.77.3865

 Goedecker, S; Teter, M; Hutter, J. 
 PHYSICAL REVIEW B, 54 (3), 1703-1710 (1996). 
 Separable dual-space Gaussian pseudopotentials.
 https://doi.org/10.1103/PhysRevB.54.1703


 -------------------------------------------------------------------------------
 -                                                                             -
 -                                T I M I N G                                  -
 -                                                                             -
 -------------------------------------------------------------------------------
 SUBROUTINE                       CALLS  ASD         SELF TIME        TOTAL TIME
                                MAXIMUM       AVERAGE  MAXIMUM  AVERAGE  MAXIMUM
 CP2K                                 1  1.0    0.002    0.005 8847.503 8850.123
 run_optimize_basis                   1  2.0    0.002    0.003 8847.493 8850.112
 driver_para_opt_basis                1  3.0    0.000    0.000 8847.485 8850.104
 driver_optimization_para_low         1  4.0    0.496    1.116 8847.484 8850.103
 compute_residuum_vectors         50001  5.0    3.548    4.254 8819.101 8821.892
 mp_sum_dv                       250006  5.8 3211.548 5993.742 3211.548 5993.742
 cp_gemm                        1050021  7.1    1.517    1.833 3546.940 5721.371
 cp_gemm_fm_gemm                1050021  8.1    0.903    1.127 3545.423 5719.861
 cp_fm_gemm                     1050021  9.1 3544.519 5718.909 3544.519 5718.909
 admm_fit_mo_coeffs               50001  6.0    0.141    0.228 1990.999 3523.659
 fit_mo_coeffs                    50001  7.0    0.473    0.604 1407.593 2831.368
 build_overlap_matrix_low        100006  6.0  688.531 2083.201  690.649 2085.254
 copy_dbcsr_to_fm                300007  6.7    3.233    4.459  798.169 1757.658
 dbcsr_desymmetrize_deep         300007  7.7    9.043   15.284  643.487 1572.480
 mp_alltoall_i22                 600016  8.7  595.454 1520.699  595.454 1520.699
 purify_mo_diag                   50001  7.0    1.127    1.465  583.265  705.890
 cp_fm_syevd                     150003  7.3    0.437    0.650  337.338  515.895
 cp_fm_redistribute_end          150003  8.3   84.406  478.657   86.054  480.204
 cp_fm_syevd_base                150003  8.3  206.606  466.025  206.606  466.025
 cp_fm_upper_to_full             200006  7.0  136.298  183.757  136.298  183.757
 -------------------------------------------------------------------------------

 The number of warnings for this run is : 5
 
 -------------------------------------------------------------------------------
  **** **** ******  **  PROGRAM ENDED AT                 2021-01-22 17:00:20.327
 ***** ** ***  *** **   PROGRAM RAN ON                                   tcopt10
 **    ****   ******    PROGRAM RAN BY                                    hutter
 ***** **    ** ** **   PROGRAM PROCESS ID                                 71925
  **** **  *******  **  PROGRAM STOPPED IN /data/hutter/GITHUB/BASIS/MOLOPT/PBE/
                                           Co
