 DBCSR| CPU Multiplication driver                                           XSMM
 DBCSR| Multrec recursion limit                                              512
 DBCSR| Multiplication stack size                                           1000
 DBCSR| Maximum elements for images                                    UNLIMITED
 DBCSR| Multiplicative factor virtual images                                   1
 DBCSR| Use multiplication densification                                       T
 DBCSR| Multiplication size stacks                                             3
 DBCSR| Use memory pool for CPU allocation                                     F
 DBCSR| Number of 3D layers                                               SINGLE
 DBCSR| Use MPI memory allocation                                              F
 DBCSR| Use RMA algorithm                                                      F
 DBCSR| Use Communication thread                                               T
 DBCSR| Communication thread load                                             87
 DBCSR| MPI: My node id                                                        0
 DBCSR| MPI: Number of nodes                                                  24
 DBCSR| OMP: Current number of threads                                         1
 DBCSR| OMP: Max number of threads                                             1
 DBCSR| Split modifier for TAS multiplication algorithm                  1.0E+00


  **** **** ******  **  PROGRAM STARTED AT               2022-05-12 11:59:35.878
 ***** ** ***  *** **   PROGRAM STARTED ON                               tcopt10
 **    ****   ******    PROGRAM STARTED BY                                hutter
 ***** **    ** ** **   PROGRAM PROCESS ID                                 57730
  **** **  *******  **  PROGRAM STARTED IN /data/hutter/GITHUB/BASIS/scMOLOPT/PB
                                           E/Be

 CP2K| version string:                   CP2K version 10.0 (Development Version)
 CP2K| source code revision number:                                  git:13fcfd8
 CP2K| cp2kflags: omp libint fftw3 libxc elpa parallel mpi3 scalapack cosma xsmm
 CP2K|             spglib sirius libvori libbqb
 CP2K| is freely available from                            https://www.cp2k.org/
 CP2K| Program compiled at                      Tue 10 May 2022 02:27:21 PM CEST
 CP2K| Program compiled on                                               tcopt10
 CP2K| Program compiled for                                                local
 CP2K| Data directory path                   /data/hutter/GITHUB/TDLRI/cp2k/data
 CP2K| Input file name                                            BeC2H6-ref.inp

 GLOBAL| Force Environment number                                              1
 GLOBAL| Basis set file name                                        ../def2QZVPP
 GLOBAL| Potential file name                                        ../POTENTIAL
 GLOBAL| MM Potential file name                                     MM_POTENTIAL
 GLOBAL| Coordinate file name                                      __STD_INPUT__
 GLOBAL| Method name                                                        CP2K
 GLOBAL| Project name                                                refBeC2H6q4
 GLOBAL| Run type                                                         ENERGY
 GLOBAL| FFT library                                                       FFTW3
 GLOBAL| Diagonalization library                                            ELPA
 GLOBAL| Minimum number of eigenvectors for ELPA usage                        16
 GLOBAL| Orthonormality check for eigenvectors                          DISABLED
 GLOBAL| Matrix multiplication library                                     COSMA
 GLOBAL| All-to-all communication in single precision                          F
 GLOBAL| FFTs using library dependent lengths                                  F
 GLOBAL| Grid backend                                                       AUTO
 GLOBAL| Global print level                                                  LOW
 GLOBAL| MPI I/O enabled                                                       T
 GLOBAL| Total number of message passing processes                            24
 GLOBAL| Number of threads for this process                                    1
 GLOBAL| This output is from process                                           0
 GLOBAL| Stack size for threads created by OpenMP (OMP_STACKSIZE)        default
 GLOBAL| CPU model name                          AMD EPYC 7401 24-Core Processor
 GLOBAL| CPUID                                                              1002

 MEMORY| system memory details [Kb]
 MEMORY|                        rank 0           min           max       average
 MEMORY| MemTotal            263969136     263969136     263969136     263969136
 MEMORY| MemFree             239978356     239978356     239978356     239978356
 MEMORY| Buffers                   136           136           136           136
 MEMORY| Cached               18906116      18906116      18906116      18906116
 MEMORY| Slab                  1424160       1424160       1424160       1424160
 MEMORY| SReclaimable           871316        871316        871316        871316
 MEMORY| MemLikelyFree       259755924     259755924     259755924     259755924


 GENERATE|  Preliminary Number of Bonds generated:                             0
 GENERATE|  Achieved consistency in connectivity generation.

 *******************************************************************************
 *******************************************************************************
 **                                                                           **
 **     #####                         ##              ##                      **
 **    ##   ##            ##          ##              ##                      **
 **   ##     ##                       ##            ######                    **
 **   ##     ##  ##   ##  ##   #####  ##  ##   ####   ##    #####    #####    **
 **   ##     ##  ##   ##  ##  ##      ## ##   ##      ##   ##   ##  ##   ##   **
 **   ##  ## ##  ##   ##  ##  ##      ####     ###    ##   ######   ######    **
 **    ##  ###   ##   ##  ##  ##      ## ##      ##   ##   ##       ##        **
 **     #######   #####   ##   #####  ##  ##  ####    ##    #####   ##        **
 **           ##                                                    ##        **
 **                                                                           **
 **                                                ... make the atoms dance   **
 **                                                                           **
 **            Copyright (C) by CP2K developers group (2000-2022)             **
 **                      J. Chem. Phys. 152, 194103 (2020)                    **
 **                                                                           **
 *******************************************************************************


 TOTAL NUMBERS AND MAXIMUM NUMBERS

  Total number of            - Atomic kinds:                                   3
                             - Atoms:                                          9
                             - Shell sets:                                   108
                             - Shells:                                       108
                             - Primitive Cartesian functions:                161
                             - Cartesian basis functions:                    395
                             - Spherical basis functions:                    330

  Maximum angular momentum of the orbital basis functions:                     4


 SCF PARAMETERS         Density guess:                                    ATOMIC
                        --------------------------------------------------------
                        max_scf:                                              20
                        max_scf_history:                                       0
                        max_diis:                                              4
                        --------------------------------------------------------
                        eps_scf:                                        1.00E-07
                        eps_scf_history:                                0.00E+00
                        eps_diis:                                       1.00E-01
                        eps_eigval:                                     1.00E-05
                        --------------------------------------------------------
                        level_shift [a.u.]:                             0.000000
                        --------------------------------------------------------
                        Outer loop SCF in use 
                        No variables optimised in outer loop
                        eps_scf                                         1.00E-07
                        max_scf                                               10
                        No outer loop optimization
                        step_size                                       5.00E-01

 Number of electrons:                                                         22
 Number of occupied orbitals:                                                 11
 Number of molecular orbitals:                                                11

 Number of orbital functions:                                                330
 Number of independent orbital functions:                                    330

 Extrapolation method: initial_guess


 SCF WAVEFUNCTION OPTIMIZATION

  ----------------------------------- OT ---------------------------------------
  Minimizer      : DIIS                : direct inversion
                                         in the iterative subspace
                                         using   7 DIIS vectors
                                         safer DIIS on
  Preconditioner : FULL_ALL            : diagonalization, state selective
  Precond_solver : DEFAULT
  stepsize       :    0.15000000                  energy_gap     :    0.08000000
  eps_taylor     :   0.10000E-15                  max_taylor     :             4
  ----------------------------------- OT ---------------------------------------

  Step     Update method      Time    Convergence         Total energy    Change
  ------------------------------------------------------------------------------
     1 OT DIIS     0.15E+00    0.7     0.08953877       -91.0389281433 -9.10E+01
     2 OT DIIS     0.15E+00    0.8     0.04479897       -93.6221293885 -2.58E+00
     3 OT DIIS     0.15E+00    0.8     0.02563701       -94.1510322378 -5.29E-01
     4 OT DIIS     0.15E+00    0.8     0.01241181       -94.3649558664 -2.14E-01
     5 OT DIIS     0.15E+00    0.8     0.00736240       -94.4169793295 -5.20E-02
     6 OT DIIS     0.15E+00    0.8     0.00371313       -94.4464791848 -2.95E-02
     7 OT DIIS     0.15E+00    0.8     0.00212287       -94.4548525181 -8.37E-03
     8 OT DIIS     0.15E+00    0.8     0.00116535       -94.4577971080 -2.94E-03
     9 OT DIIS     0.15E+00    0.8     0.00059332       -94.4589334160 -1.14E-03
    10 OT DIIS     0.15E+00    0.8     0.00029559       -94.4592598049 -3.26E-04
    11 OT DIIS     0.15E+00    0.8     0.00013876       -94.4593446579 -8.49E-05
    12 OT DIIS     0.15E+00    0.8     0.00007123       -94.4593629524 -1.83E-05
    13 OT DIIS     0.15E+00    0.8     0.00004585       -94.4593668138 -3.86E-06
    14 OT DIIS     0.15E+00    0.8     0.00002639       -94.4593681613 -1.35E-06
    15 OT DIIS     0.15E+00    0.8     0.00001360       -94.4593687396 -5.78E-07
    16 OT DIIS     0.15E+00    0.8     0.00000836       -94.4593688532 -1.14E-07
    17 OT DIIS     0.15E+00    0.8     0.00000434       -94.4593688978 -4.46E-08
    18 OT DIIS     0.15E+00    0.8     0.00000242       -94.4593689119 -1.41E-08
    19 OT DIIS     0.15E+00    0.8     0.00000146       -94.4593689165 -4.56E-09
    20 OT DIIS     0.15E+00    0.8     0.00000082       -94.4593689184 -1.91E-09

  Leaving inner SCF loop after reaching    20 steps.


  Electronic density on regular grids:        -16.5797002001        5.4202997999
  Core density on regular grids:               22.0000000000       -0.0000000000
  Hard and soft densities (Lebedev):          -67.3680532643      -61.9477534698
  Total Rho_soft + Rho1_hard - Rho1_soft      -21.9999999945
  Total charge density (r-space):               0.0000000055
  Total Rho_soft + Rho0_soft (g-space):        -0.0000000826

  Overlap energy of the core charge distribution:               0.00000284757831
  Self energy of the core charge distribution:                -80.57608058634047
  Core Hamiltonian energy:                                    -11.32940117118677
  Hartree energy:                                              31.38516664831306
  Exchange-correlation energy:                                 -6.46297146542994

  GAPW| Exc from hard and soft atomic rho1:                    -9.30474107876943
  GAPW| local Eh = 1 center integrals:                        -18.17134411252955

  Total energy:                                               -94.45936891836479

  outer SCF iter =    1 RMS gradient =   0.82E-06 energy =        -94.4593689184

  ----------------------------------- OT ---------------------------------------
  Minimizer      : DIIS                : direct inversion
                                         in the iterative subspace
                                         using   7 DIIS vectors
                                         safer DIIS on
  Preconditioner : FULL_ALL            : diagonalization, state selective
  Precond_solver : DEFAULT
  stepsize       :    0.15000000                  energy_gap     :    0.08000000
  eps_taylor     :   0.10000E-15                  max_taylor     :             4
  ----------------------------------- OT ---------------------------------------

  Step     Update method      Time    Convergence         Total energy    Change
  ------------------------------------------------------------------------------
     1 OT DIIS     0.15E+00    1.5     0.00000081       -94.4593689190 -5.88E-10
     2 OT DIIS     0.15E+00    0.8     0.00000033       -94.4593689192 -2.34E-10
     3 OT DIIS     0.15E+00    0.8     0.00000016       -94.4593689192 -3.95E-11
     4 OT DIIS     0.15E+00    0.8     0.00000001       -94.4593689192 -1.04E-11

  *** SCF run converged in     4 steps ***


  Electronic density on regular grids:        -16.5796995511        5.4203004489
  Core density on regular grids:               22.0000000000       -0.0000000000
  Hard and soft densities (Lebedev):          -67.3679928982      -61.9476924547
  Total Rho_soft + Rho1_hard - Rho1_soft      -21.9999999945
  Total charge density (r-space):               0.0000000055
  Total Rho_soft + Rho0_soft (g-space):        -0.0000000826

  Overlap energy of the core charge distribution:               0.00000284757831
  Self energy of the core charge distribution:                -80.57608058634047
  Core Hamiltonian energy:                                    -11.32940412288043
  Hartree energy:                                              31.38516856730908
  Exchange-correlation energy:                                 -6.46297005031520

  GAPW| Exc from hard and soft atomic rho1:                    -9.30474186260829
  GAPW| local Eh = 1 center integrals:                        -18.17134371197957

  Total energy:                                               -94.45936891923655

  outer SCF iter =    2 RMS gradient =   0.11E-07 energy =        -94.4593689192
  outer SCF loop converged in   2 iterations or   24 steps


 ENERGY| Total FORCE_EVAL ( QS ) energy [a.u.]:              -94.459368919236553

 -------------------------------------------------------------------------------
 -                                                                             -
 -                                DBCSR STATISTICS                             -
 -                                                                             -
 -------------------------------------------------------------------------------
 COUNTER                                    TOTAL       BLAS       SMM       ACC
 flops    11 x    11 x    11               473836       0.0%    100.0%      0.0%
 flops    36 x    36 x    11               712800       0.0%    100.0%      0.0%
 flops    36 x    57 x    11              1128600       0.0%    100.0%      0.0%
 flops    57 x    36 x    11              1128600       0.0%    100.0%      0.0%
 flops    36 x    11 x    36              1767744       0.0%    100.0%      0.0%
 flops    30 x    36 x    11              1782000       0.0%    100.0%      0.0%
 flops    36 x    30 x    11              1782000       0.0%    100.0%      0.0%
 flops    66 x    11 x    11              1948584       0.0%    100.0%      0.0%
 flops    11 x    11 x    57              2703624       0.0%    100.0%      0.0%
 flops    60 x    11 x    11              3542880       0.0%    100.0%      0.0%
 flops   144 x    11 x    11              4251456       0.0%    100.0%      0.0%
 flops    11 x    11 x    30              4268880       0.0%    100.0%      0.0%
 flops    57 x    57 x    11              5360850       0.0%    100.0%      0.0%
 flops    57 x    11 x    36              5597856       0.0%    100.0%      0.0%
 flops    36 x    11 x    57              5597856       0.0%    100.0%      0.0%
 flops    30 x    57 x    11              5643000       0.0%    100.0%      0.0%
 flops    57 x    30 x    11              5643000       0.0%    100.0%      0.0%
 flops    66 x    11 x    57              8607456       0.0%    100.0%      0.0%
 flops    30 x    11 x    36              8838720       0.0%    100.0%      0.0%
 flops    36 x    11 x    30              8838720       0.0%    100.0%      0.0%
 flops    30 x    30 x    11             10395000       0.0%    100.0%      0.0%
 flops    66 x    11 x    30             13590720       0.0%    100.0%      0.0%
 flops    60 x    11 x    57             15649920       0.0%    100.0%      0.0%
 flops    57 x    11 x    57             17726544       0.0%    100.0%      0.0%
 flops   144 x    11 x    57             18779904       0.0%    100.0%      0.0%
 flops    60 x    11 x    30             24710400       0.0%    100.0%      0.0%
 flops    30 x    11 x    57             27989280       0.0%    100.0%      0.0%
 flops    57 x    11 x    30             27989280       0.0%    100.0%      0.0%
 flops   144 x    11 x    30             29652480       0.0%    100.0%      0.0%
 flops    30 x    11 x    30             44193600       0.0%    100.0%      0.0%
 flops inhomo. stacks                    22870452     100.0%      0.0%      0.0%
 flops total                       333.166042E+06       6.9%     93.1%      0.0%
 flops max/rank                    141.990574E+06       7.6%     92.4%      0.0%
 matmuls inhomo. stacks                       306     100.0%      0.0%      0.0%
 matmuls total                               9567       3.2%     96.8%      0.0%
 number of processed stacks                  7643       4.0%     96.0%      0.0%
 average stack size                                     1.0       1.3       0.0
 marketing flops                   351.219328E+06
 -------------------------------------------------------------------------------
 # multiplications                            539
 max memory usage/rank             362.344448E+06
 # max total images/rank                        3
 # max 3D layers                                1
 # MPI messages exchanged                  245784
 MPI messages size (bytes):
  total size                       554.538112E+06
  min size                           0.000000E+00
  max size                          65.664000E+03
  average size                       2.256201E+03
 MPI breakdown and total messages size (bytes):
             size <=      128              209950                        0
       128 < size <=     8192               14504                 47887840
      8192 < size <=    32768               16200                289959120
     32768 < size <=   131072                5130                216691200
    131072 < size <=  4194304                   0                        0
   4194304 < size <= 16777216                   0                        0
  16777216 < size                               0                        0
 -------------------------------------------------------------------------------

 *** WARNING in dbcsr_mm.F:290 :: Using a non-square number of MPI ranks ***
 *** might lead to poor performance. Used ranks: 24 Suggested: 25 49     ***

 -------------------------------------------------------------------------------
 -                                                                             -
 -                      DBCSR MESSAGE PASSING PERFORMANCE                      -
 -                                                                             -
 -------------------------------------------------------------------------------
 ROUTINE             CALLS      AVE VOLUME [Bytes]
 MP_Bcast               31                     12.
 MP_Allreduce         2922                      8.
 MP_Alltoall          2118                   3393.
 MP_ISend            23052                   2318.
 MP_IRecv            22822                   1630.
 -------------------------------------------------------------------------------

 -------------------------------------------------------------------------------
 -                                                                             -
 -                                GRID STATISTICS                              -
 -                                                                             -
 -------------------------------------------------------------------------------
 LP    KERNEL             BACKEND                              COUNT     PERCENT
 1     collocate ortho    REF                                  51600      12.97%
 1     integrate ortho    REF                                  49536      12.45%
 2     collocate ortho    REF                                  48350      12.16%
 2     integrate ortho    REF                                  46416      11.67%
 3     collocate ortho    REF                                  35150       8.84%
 3     integrate ortho    REF                                  33744       8.48%
 0     collocate ortho    REF                                  32200       8.10%
 0     integrate ortho    REF                                  30912       7.77%
 4     collocate ortho    REF                                  19050       4.79%
 4     integrate ortho    REF                                  18288       4.60%
 5     collocate ortho    REF                                   7950       2.00%
 5     integrate ortho    REF                                   7632       1.92%
 2     collocate general  REF                                   5184       1.30%
 2     integrate general  REF                                   5184       1.30%
 6     collocate ortho    REF                                   2625       0.66%
 6     integrate ortho    REF                                   2520       0.63%
 7     collocate ortho    REF                                    650       0.16%
 7     integrate ortho    REF                                    624       0.16%
 8     collocate ortho    REF                                     75       0.02%
 8     integrate ortho    REF                                     72       0.02%
 -------------------------------------------------------------------------------

 MEMORY| Estimated peak process memory [MiB]                                 348

 -------------------------------------------------------------------------------
 -                                                                             -
 -                         MESSAGE PASSING PERFORMANCE                         -
 -                                                                             -
 -------------------------------------------------------------------------------

 ROUTINE             CALLS      AVE VOLUME [Bytes]
 MP_Group                4
 MP_Bcast              980                 239925.
 MP_Allreduce         2516                  46750.
 MP_Sync                56
 MP_Alltoall           498                9819505.
 MP_ISendRecv         3381                 191232.
 MP_Wait              6388
 MP_comm_split          26
 MP_ISend             2716                 468439.
 MP_IRecv             2716                 468487.
 MP_Recv                10                   5280.
 -------------------------------------------------------------------------------


 -------------------------------------------------------------------------------
 -                                                                             -
 -                           R E F E R E N C E S                               -
 -                                                                             -
 -------------------------------------------------------------------------------
 
 CP2K version 10.0 (Development Version), the CP2K developers group (2022).
 CP2K is freely available from https://www.cp2k.org/ .

 Kuehne,Thomas D.; Iannuzzi,Marcella; Del Ben,Mauro;
 Rybkin,Vladimir V.; Seewald,Patrick; Stein,Frederick; Laino,Teodoro;
 Khaliullin,Rustam Z.; Schuett,Ole; Schiffmann,Florian; Golze,Dorothea;
 Wilhelm,Jan; Chulkov,Sergey; Bani-Hashemian,Mohammad Hossein;
 Weber,Valery; Borstnik,Urban; Taillefumier,Mathieu;
 Jakobovits,Alice Shoshana; Lazzaro,Alfio; Pabst,Hans; Mueller,Tiziano;
 Schade,Robert; Guidon,Manuel; Andermatt,Samuel; Holmberg,Nico;
 Schenter,Gregory K.; Hehn,Anna; Bussy,Augustin; Belleflamme,Fabian;
 Tabacchi,Gloria; Gloess,Andreas; Lass,Michael; Bethune,Iain;
 Mundy,Christopher J.; Plessl,Christian; Watkins,Matt;
 VandeVondele,Joost; Krack,Matthias; Hutter,Juerg. 
 The Journal of Chemical Physics, 152 (19), (2020). 
 CP2K: An electronic structure and molecular dynamics software package -
 Quickstep: Efficient and accurate electronic structure calculations.
 https://doi.org/10.1063/5.0007045

 Schuett, Ole; Messmer, Peter; Hutter, Juerg; VandeVondele, Joost. 
 Electronic Structure Calculations on Graphics Processing Units, John
 Wiley & Sons, Ltd, 173-190 (2016). 
 GPU-Accelerated Sparse Matrix-Matrix Multiplication for
 Linear Scaling Density Functional Theory.
 https://doi.org/10.1002/9781118670712.ch8

 Heinecke, A; Henry, G; Hutchinson, M; Pabst, H. 
 Proceedings of Intl. Supercomputing Conference, 981-991 (2016). 
 LIBXSMM: Accelerating Small Matrix Multiplications
 by Runtime Code Generation.
 https://doi.org/10.1109/SC.2016.83

 Borstnik, U; VandeVondele, J; Weber, V; Hutter, J. 
 PARALLEL COMPUTING, 40 (5-6), 47-58 (2014). 
 Sparse matrix multiplication: The distributed block-compressed sparse
 row library.
 https://doi.org/10.1016/j.parco.2014.03.012

 Hutter, J; Iannuzzi, M; Schiffmann, F; VandeVondele, J. 
 WIREs Comput Mol Sci., 4 (1), 15-25 (2014). 
 CP2K: atomistic simulations of condensed matter systems.
 https://doi.org/10.1002/wcms.1159

 Marek, A; Blum, V; Johanni, R; Havu, V; Lang, B; Auckenthaler, T;
 Heinecke, A; Bungartz, H; Lederer, H. 
 Journal of Physics: Condensed Matter, 26 (21), (2014). 
 The ELPA library: scalable parallel eigenvalue solutions for
 electronic structure
 theory and computational science.
 https://doi.org/10.1088/0953-8984/26/21/213201

 Frigo, M; Johnson, SG. 
 PROCEEDINGS OF THE IEEE, 93 (2), 216-231 (2005). 
 The design and implementation of FFTW3.
 https://doi.org/10.1109/JPROC.2004.840301

 VandeVondele, J; Hutter, J. 
 JOURNAL OF CHEMICAL PHYSICS, 118 (10), 4365-4369 (2003). 
 An efficient orbital transformation method for electronic structure
 calculations.
 https://doi.org/10.1063/1.1543154

 Lippert, G; Hutter, J; Parrinello, M. 
 THEORETICAL CHEMISTRY ACCOUNTS, 103 (2), 124-140 (1999). 
 The Gaussian and augmented-plane-wave density functional method for ab
 initio molecular dynamics simulations.
 https://doi.org/10.1007/s002140050523

 Krack, M; Parrinello, M. 
 PHYSICAL CHEMISTRY CHEMICAL PHYSICS, 2 (10), 2105-2112 (2000). 
 All-electron ab-initio molecular dynamics.
 https://doi.org/10.1039/b001167n

 Perdew, JP; Burke, K; Ernzerhof, M. 
 PHYSICAL REVIEW LETTERS, 77 (18), 3865-3868 (1996). 
 Generalized gradient approximation made simple.
 https://doi.org/10.1103/PhysRevLett.77.3865


 -------------------------------------------------------------------------------
 -                                                                             -
 -                                T I M I N G                                  -
 -                                                                             -
 -------------------------------------------------------------------------------
 SUBROUTINE                       CALLS  ASD         SELF TIME        TOTAL TIME
                                MAXIMUM       AVERAGE  MAXIMUM  AVERAGE  MAXIMUM
 CP2K                                 1  1.0    0.009    0.030   18.979   18.982
 qs_energies                          1  2.0    0.000    0.000   18.756   18.759
 scf_env_do_scf                       1  3.0    0.000    0.000   18.536   18.539
 scf_env_do_scf_inner_loop           24  4.0    0.000    0.002   17.249   17.251
 qs_ks_update_qs_env                 26  5.0    0.000    0.000   14.675   14.679
 rebuild_ks_matrix                   24  6.0    0.000    0.000   14.673   14.677
 qs_ks_build_kohn_sham_matrix        24  7.0    0.005    0.006   14.673   14.677
 pw_transfer                        509 10.1    0.049    0.055    8.122    8.988
 fft_wrap_pw1pw2                    437 11.3    0.006    0.006    8.012    8.869
 fft_wrap_pw1pw2_300                290 12.6    0.449    0.474    7.561    8.454
 fft3d_ps                           437 13.3    3.122    3.626    6.179    7.256
 qs_vxc_create                       24  8.0    0.001    0.001    6.789    6.790
 xc_vxc_pw_create                    24  9.0    0.047    0.055    6.788    6.790
 xc_pw_derive                       144 11.0    0.001    0.002    4.163    5.070
 xc_rho_set_and_dset_create          24 10.0    0.041    0.043    3.635    4.149
 mp_alltoall_z22v                   437 15.3    2.413    4.025    2.413    4.025
 xc_pw_divergence                    24 10.0    0.001    0.001    3.015    3.939
 qs_rho_update_rho                   25  5.0    0.000    0.001    3.266    3.266
 calculate_rho_elec                  25  6.0    0.027    0.029    3.138    3.138
 rs_pw_transfer                     244  9.5    0.005    0.007    2.911    3.015
 yz_to_x                            220 13.9    0.297    0.398    1.707    2.938
 density_rs2pw                       25  7.0    0.001    0.001    2.443    2.534
 sum_up_and_integrate                24  8.0    0.013    0.016    2.387    2.389
 integrate_v_rspace                  24  9.0    0.001    0.001    2.374    2.377
 prepare_gapw_den                    24  8.0    0.001    0.001    2.184    2.213
 xc_functional_eval                 120 10.6    0.000    0.001    1.683    2.161
 pbe_lda_eval                       120 11.6    1.682    2.161    1.682    2.161
 potential_pw2rs                     24 10.0    0.002    0.002    1.826    1.828
 mp_sum_d                          1194  7.0    1.225    1.545    1.225    1.545
 x_to_yz                            217 14.7    0.332    0.398    1.335    1.535
 init_scf_loop                        2  4.0    0.000    0.000    1.286    1.286
 put_rho0_on_grid                    24  9.0    0.030    0.041    1.184    1.212
 integrate_vhg0_rspace               24  8.0    0.162    0.187    1.112    1.120
 rs_pw_transfer_RS2PW_300            49 10.0    0.658    0.737    1.042    1.114
 rs_pw_transfer_PW2RS_300            48 11.0    0.621    0.664    1.021    1.078
 calculate_vxc_atom                  24  8.0    0.033    0.156    1.029    1.029
 calculate_rho_atom                  72  9.0    0.428    0.829    0.428    0.829
 gaVxcgb_GC                          48  9.0    0.100    0.781    0.100    0.781
 pw_gather_p                        220 12.9    0.672    0.770    0.672    0.770
 pw_scatter_p                       217 13.7    0.687    0.720    0.687    0.720
 mp_waitall_1                     33856 14.0    0.612    0.703    0.612    0.703
 mp_waitany                        2716 11.5    0.593    0.700    0.593    0.700
 grid_collocate_task_list            25  7.0    0.599    0.661    0.599    0.661
 dbcsr_multiply_generic             539 10.1    0.016    0.016    0.611    0.624
 qs_scf_new_mos                      24  5.0    0.000    0.000    0.603    0.605
 qs_scf_loop_do_ot                   24  6.0    0.000    0.000    0.603    0.605
 ot_scf_mini                         24  7.0    0.000    0.000    0.577    0.580
 grid_integrate_task_list            24 10.0    0.446    0.545    0.446    0.545
 rs_pw_transfer_PW2RS_100            24 12.0    0.085    0.097    0.419    0.468
 mp_sum_dv                          850 13.0    0.377    0.458    0.377    0.458
 mp_sum_dm                          666  7.6    0.388    0.450    0.388    0.450
 fft_wrap_pw1pw2_100                 49 11.5    0.014    0.017    0.331    0.419
 -------------------------------------------------------------------------------

 The number of warnings for this run is : 1
 
 -------------------------------------------------------------------------------
  **** **** ******  **  PROGRAM ENDED AT                 2022-05-12 11:59:55.266
 ***** ** ***  *** **   PROGRAM RAN ON                                   tcopt10
 **    ****   ******    PROGRAM RAN BY                                    hutter
 ***** **    ** ** **   PROGRAM PROCESS ID                                 57730
  **** **  *******  **  PROGRAM STOPPED IN /data/hutter/GITHUB/BASIS/scMOLOPT/PB
                                           E/Be
