 DBCSR| CPU Multiplication driver                                           XSMM
 DBCSR| Multrec recursion limit                                              512
 DBCSR| Multiplication stack size                                           1000
 DBCSR| Maximum elements for images                                    UNLIMITED
 DBCSR| Multiplicative factor virtual images                                   1
 DBCSR| Use multiplication densification                                       T
 DBCSR| Multiplication size stacks                                             3
 DBCSR| Use memory pool for CPU allocation                                     F
 DBCSR| Number of 3D layers                                               SINGLE
 DBCSR| Use MPI memory allocation                                              F
 DBCSR| Use RMA algorithm                                                      F
 DBCSR| Use Communication thread                                               T
 DBCSR| Communication thread load                                             87
 DBCSR| MPI: My node id                                                        0
 DBCSR| MPI: Number of nodes                                                  24
 DBCSR| OMP: Current number of threads                                         1
 DBCSR| OMP: Max number of threads                                             1
 DBCSR| Split modifier for TAS multiplication algorithm                  1.0E+00


  **** **** ******  **  PROGRAM STARTED AT               2022-05-12 12:01:02.934
 ***** ** ***  *** **   PROGRAM STARTED ON                               tcopt10
 **    ****   ******    PROGRAM STARTED BY                                hutter
 ***** **    ** ** **   PROGRAM PROCESS ID                                 58029
  **** **  *******  **  PROGRAM STARTED IN /data/hutter/GITHUB/BASIS/scMOLOPT/PB
                                           E/Be

 CP2K| version string:                   CP2K version 10.0 (Development Version)
 CP2K| source code revision number:                                  git:13fcfd8
 CP2K| cp2kflags: omp libint fftw3 libxc elpa parallel mpi3 scalapack cosma xsmm
 CP2K|             spglib sirius libvori libbqb
 CP2K| is freely available from                            https://www.cp2k.org/
 CP2K| Program compiled at                      Tue 10 May 2022 02:27:21 PM CEST
 CP2K| Program compiled on                                               tcopt10
 CP2K| Program compiled for                                                local
 CP2K| Data directory path                   /data/hutter/GITHUB/TDLRI/cp2k/data
 CP2K| Input file name                                              BeH2-ref.inp

 GLOBAL| Force Environment number                                              1
 GLOBAL| Basis set file name                                        ../def2QZVPP
 GLOBAL| Potential file name                                        ../POTENTIAL
 GLOBAL| MM Potential file name                                     MM_POTENTIAL
 GLOBAL| Coordinate file name                                      __STD_INPUT__
 GLOBAL| Method name                                                        CP2K
 GLOBAL| Project name                                                  refBeH2q4
 GLOBAL| Run type                                                         ENERGY
 GLOBAL| FFT library                                                       FFTW3
 GLOBAL| Diagonalization library                                            ELPA
 GLOBAL| Minimum number of eigenvectors for ELPA usage                        16
 GLOBAL| Orthonormality check for eigenvectors                          DISABLED
 GLOBAL| Matrix multiplication library                                     COSMA
 GLOBAL| All-to-all communication in single precision                          F
 GLOBAL| FFTs using library dependent lengths                                  F
 GLOBAL| Grid backend                                                       AUTO
 GLOBAL| Global print level                                                  LOW
 GLOBAL| MPI I/O enabled                                                       T
 GLOBAL| Total number of message passing processes                            24
 GLOBAL| Number of threads for this process                                    1
 GLOBAL| This output is from process                                           0
 GLOBAL| Stack size for threads created by OpenMP (OMP_STACKSIZE)        default
 GLOBAL| CPU model name                          AMD EPYC 7401 24-Core Processor
 GLOBAL| CPUID                                                              1002

 MEMORY| system memory details [Kb]
 MEMORY|                        rank 0           min           max       average
 MEMORY| MemTotal            263969136     263969136     263969136     263969136
 MEMORY| MemFree             239968608     239968608     239968608     239968608
 MEMORY| Buffers                   136           136           136           136
 MEMORY| Cached               18906232      18906232      18906232      18906232
 MEMORY| Slab                  1423900       1423900       1423900       1423900
 MEMORY| SReclaimable           871212        871212        871212        871212
 MEMORY| MemLikelyFree       259746188     259746188     259746188     259746188


 GENERATE|  Preliminary Number of Bonds generated:                             1
 GENERATE|  Achieved consistency in connectivity generation.
 GENERATE|  Number of Bonds generated:                                         1
 GENERATE|  Preliminary Number of Bends generated:                             0
 GENERATE|  Preliminary Number of Torsions generated:                          0

 *******************************************************************************
 *******************************************************************************
 **                                                                           **
 **     #####                         ##              ##                      **
 **    ##   ##            ##          ##              ##                      **
 **   ##     ##                       ##            ######                    **
 **   ##     ##  ##   ##  ##   #####  ##  ##   ####   ##    #####    #####    **
 **   ##     ##  ##   ##  ##  ##      ## ##   ##      ##   ##   ##  ##   ##   **
 **   ##  ## ##  ##   ##  ##  ##      ####     ###    ##   ######   ######    **
 **    ##  ###   ##   ##  ##  ##      ## ##      ##   ##   ##       ##        **
 **     #######   #####   ##   #####  ##  ##  ####    ##    #####   ##        **
 **           ##                                                    ##        **
 **                                                                           **
 **                                                ... make the atoms dance   **
 **                                                                           **
 **            Copyright (C) by CP2K developers group (2000-2022)             **
 **                      J. Chem. Phys. 152, 194103 (2020)                    **
 **                                                                           **
 *******************************************************************************


 TOTAL NUMBERS AND MAXIMUM NUMBERS

  Total number of            - Atomic kinds:                                   2
                             - Atoms:                                          3
                             - Shell sets:                                    34
                             - Shells:                                        34
                             - Primitive Cartesian functions:                 51
                             - Cartesian basis functions:                    111
                             - Spherical basis functions:                     96

  Maximum angular momentum of the orbital basis functions:                     3


 SCF PARAMETERS         Density guess:                                    ATOMIC
                        --------------------------------------------------------
                        max_scf:                                              20
                        max_scf_history:                                       0
                        max_diis:                                              4
                        --------------------------------------------------------
                        eps_scf:                                        1.00E-07
                        eps_scf_history:                                0.00E+00
                        eps_diis:                                       1.00E-01
                        eps_eigval:                                     1.00E-05
                        --------------------------------------------------------
                        level_shift [a.u.]:                             0.000000
                        --------------------------------------------------------
                        Outer loop SCF in use 
                        No variables optimised in outer loop
                        eps_scf                                         1.00E-07
                        max_scf                                               10
                        No outer loop optimization
                        step_size                                       5.00E-01

 Number of electrons:                                                          6
 Number of occupied orbitals:                                                  3
 Number of molecular orbitals:                                                 3

 Number of orbital functions:                                                 96
 Number of independent orbital functions:                                     96

 Extrapolation method: initial_guess


 SCF WAVEFUNCTION OPTIMIZATION

  ----------------------------------- OT ---------------------------------------
  Minimizer      : DIIS                : direct inversion
                                         in the iterative subspace
                                         using   7 DIIS vectors
                                         safer DIIS on
  Preconditioner : FULL_ALL            : diagonalization, state selective
  Precond_solver : DEFAULT
  stepsize       :    0.15000000                  energy_gap     :    0.08000000
  eps_taylor     :   0.10000E-15                  max_taylor     :             4
  ----------------------------------- OT ---------------------------------------

  Step     Update method      Time    Convergence         Total energy    Change
  ------------------------------------------------------------------------------
     1 OT DIIS     0.15E+00    0.5     0.10027882       -15.5936181764 -1.56E+01
     2 OT DIIS     0.15E+00    0.6     0.03038358       -15.8406329030 -2.47E-01
     3 OT DIIS     0.15E+00    0.6     0.01306865       -15.8613130765 -2.07E-02
     4 OT DIIS     0.15E+00    0.7     0.00297575       -15.8649768034 -3.66E-03
     5 OT DIIS     0.15E+00    0.7     0.00047469       -15.8652789841 -3.02E-04
     6 OT DIIS     0.15E+00    0.7     0.00012605       -15.8652861011 -7.12E-06
     7 OT DIIS     0.15E+00    0.6     0.00002359       -15.8652865409 -4.40E-07
     8 OT DIIS     0.15E+00    0.7     0.00001001       -15.8652865595 -1.85E-08
     9 OT DIIS     0.15E+00    0.6     0.00000141       -15.8652865618 -2.37E-09
    10 OT DIIS     0.15E+00    0.6     0.00000038       -15.8652865619 -5.81E-11
    11 OT DIIS     0.15E+00    0.7     0.00000006       -15.8652865619 -5.23E-12

  *** SCF run converged in    11 steps ***


  Electronic density on regular grids:         -4.5366607753        1.4633392247
  Core density on regular grids:                6.0000000000       -0.0000000000
  Hard and soft densities (Lebedev):          -16.4329140321      -14.9695748141
  Total Rho_soft + Rho1_hard - Rho1_soft       -5.9999999933
  Total charge density (r-space):               0.0000000067
  Total Rho_soft + Rho0_soft (g-space):        -0.0000000061

  Overlap energy of the core charge distribution:               0.00000000008768
  Self energy of the core charge distribution:                -16.70869151276047
  Core Hamiltonian energy:                                      1.24524499492887
  Hartree energy:                                               5.68057176350941
  Exchange-correlation energy:                                 -1.48392408245130

  GAPW| Exc from hard and soft atomic rho1:                    -2.03331056700738
  GAPW| local Eh = 1 center integrals:                         -2.56517715820741

  Total energy:                                               -15.86528656190060

  outer SCF iter =    1 RMS gradient =   0.61E-07 energy =        -15.8652865619
  outer SCF loop converged in   1 iterations or   11 steps


 ENERGY| Total FORCE_EVAL ( QS ) energy [a.u.]:              -15.865286561900600

 -------------------------------------------------------------------------------
 -                                                                             -
 -                                DBCSR STATISTICS                             -
 -                                                                             -
 -------------------------------------------------------------------------------
 COUNTER                                    TOTAL       BLAS       SMM       ACC
 flops     3 x     3 x     3                 5022       0.0%    100.0%      0.0%
 flops     3 x     3 x    36                29160       0.0%    100.0%      0.0%
 flops    30 x     3 x     3                30240       0.0%    100.0%      0.0%
 flops     3 x     3 x    30                48600       0.0%    100.0%      0.0%
 flops    66 x     3 x     3                66528       0.0%    100.0%      0.0%
 flops    36 x    30 x     3                77760       0.0%    100.0%      0.0%
 flops    30 x    36 x     3                77760       0.0%    100.0%      0.0%
 flops    36 x    36 x     3                93312       0.0%    100.0%      0.0%
 flops    30 x    30 x     3               194400       0.0%    100.0%      0.0%
 flops    36 x     3 x    36               233280       0.0%    100.0%      0.0%
 flops    66 x     3 x    36               342144       0.0%    100.0%      0.0%
 flops    36 x     3 x    30               388800       0.0%    100.0%      0.0%
 flops    30 x     3 x    36               544320       0.0%    100.0%      0.0%
 flops    66 x     3 x    30               570240       0.0%    100.0%      0.0%
 flops    30 x     3 x    30               907200       0.0%    100.0%      0.0%
 flops inhomo. stacks                           0       0.0%      0.0%      0.0%
 flops total                         3.608766E+06       0.0%    100.0%      0.0%
 flops max/rank                      2.438046E+06       0.0%    100.0%      0.0%
 matmuls inhomo. stacks                         0       0.0%      0.0%      0.0%
 matmuls total                                826       0.0%    100.0%      0.0%
 number of processed stacks                   826       0.0%    100.0%      0.0%
 average stack size                                     0.0       1.0       0.0
 marketing flops                     3.830814E+06
 -------------------------------------------------------------------------------
 # multiplications                            261
 max memory usage/rank             320.086016E+06
 # max total images/rank                        3
 # max 3D layers                                1
 # MPI messages exchanged                  119016
 MPI messages size (bytes):
  total size                        22.041216E+06
  min size                           0.000000E+00
  max size                          19.008000E+03
  average size                     185.195404E+00
 MPI breakdown and total messages size (bytes):
             size <=      128              115078                    65664
       128 < size <=     8192                2858                  5956992
      8192 < size <=    32768                1080                 16018560
     32768 < size <=   131072                   0                        0
    131072 < size <=  4194304                   0                        0
   4194304 < size <= 16777216                   0                        0
  16777216 < size                               0                        0
 -------------------------------------------------------------------------------

 *** WARNING in dbcsr_mm.F:290 :: Using a non-square number of MPI ranks ***
 *** might lead to poor performance. Used ranks: 24 Suggested: 25 49     ***

 -------------------------------------------------------------------------------
 -                                                                             -
 -                      DBCSR MESSAGE PASSING PERFORMANCE                      -
 -                                                                             -
 -------------------------------------------------------------------------------
 ROUTINE             CALLS      AVE VOLUME [Bytes]
 MP_Bcast               16                     12.
 MP_Allreduce         1416                      9.
 MP_Alltoall          1079                   1718.
 MP_ISend            10968                    361.
 MP_IRecv            10978                    154.
 -------------------------------------------------------------------------------

 -------------------------------------------------------------------------------
 -                                                                             -
 -                                GRID STATISTICS                              -
 -                                                                             -
 -------------------------------------------------------------------------------
 LP    KERNEL             BACKEND                              COUNT     PERCENT
 1     collocate ortho    REF                                   4536      13.96%
 2     collocate ortho    REF                                   4320      13.29%
 1     integrate ortho    REF                                   4158      12.80%
 2     integrate ortho    REF                                   3960      12.19%
 0     collocate ortho    REF                                   2856       8.79%
 3     collocate ortho    REF                                   2760       8.49%
 0     integrate ortho    REF                                   2618       8.06%
 3     integrate ortho    REF                                   2530       7.79%
 4     collocate ortho    REF                                   1152       3.55%
 4     integrate ortho    REF                                   1056       3.25%
 2     collocate general  REF                                    792       2.44%
 2     integrate general  REF                                    792       2.44%
 5     collocate ortho    REF                                    432       1.33%
 5     integrate ortho    REF                                    396       1.22%
 6     collocate ortho    REF                                     72       0.22%
 6     integrate ortho    REF                                     66       0.20%
 -------------------------------------------------------------------------------

 MEMORY| Estimated peak process memory [MiB]                                 326

 -------------------------------------------------------------------------------
 -                                                                             -
 -                         MESSAGE PASSING PERFORMANCE                         -
 -                                                                             -
 -------------------------------------------------------------------------------

 ROUTINE             CALLS      AVE VOLUME [Bytes]
 MP_Group                4
 MP_Bcast              202                 753170.
 MP_Allreduce          858                  12212.
 MP_Sync                32
 MP_Alltoall           238                9486818.
 MP_ISendRecv         1587                 191232.
 MP_Wait              2982
 MP_comm_split          14
 MP_ISend             1260                 468411.
 MP_IRecv             1260                 468514.
 MP_Recv                 2                    768.
 -------------------------------------------------------------------------------


 -------------------------------------------------------------------------------
 -                                                                             -
 -                           R E F E R E N C E S                               -
 -                                                                             -
 -------------------------------------------------------------------------------
 
 CP2K version 10.0 (Development Version), the CP2K developers group (2022).
 CP2K is freely available from https://www.cp2k.org/ .

 Kuehne,Thomas D.; Iannuzzi,Marcella; Del Ben,Mauro;
 Rybkin,Vladimir V.; Seewald,Patrick; Stein,Frederick; Laino,Teodoro;
 Khaliullin,Rustam Z.; Schuett,Ole; Schiffmann,Florian; Golze,Dorothea;
 Wilhelm,Jan; Chulkov,Sergey; Bani-Hashemian,Mohammad Hossein;
 Weber,Valery; Borstnik,Urban; Taillefumier,Mathieu;
 Jakobovits,Alice Shoshana; Lazzaro,Alfio; Pabst,Hans; Mueller,Tiziano;
 Schade,Robert; Guidon,Manuel; Andermatt,Samuel; Holmberg,Nico;
 Schenter,Gregory K.; Hehn,Anna; Bussy,Augustin; Belleflamme,Fabian;
 Tabacchi,Gloria; Gloess,Andreas; Lass,Michael; Bethune,Iain;
 Mundy,Christopher J.; Plessl,Christian; Watkins,Matt;
 VandeVondele,Joost; Krack,Matthias; Hutter,Juerg. 
 The Journal of Chemical Physics, 152 (19), (2020). 
 CP2K: An electronic structure and molecular dynamics software package -
 Quickstep: Efficient and accurate electronic structure calculations.
 https://doi.org/10.1063/5.0007045

 Schuett, Ole; Messmer, Peter; Hutter, Juerg; VandeVondele, Joost. 
 Electronic Structure Calculations on Graphics Processing Units, John
 Wiley & Sons, Ltd, 173-190 (2016). 
 GPU-Accelerated Sparse Matrix-Matrix Multiplication for
 Linear Scaling Density Functional Theory.
 https://doi.org/10.1002/9781118670712.ch8

 Heinecke, A; Henry, G; Hutchinson, M; Pabst, H. 
 Proceedings of Intl. Supercomputing Conference, 981-991 (2016). 
 LIBXSMM: Accelerating Small Matrix Multiplications
 by Runtime Code Generation.
 https://doi.org/10.1109/SC.2016.83

 Borstnik, U; VandeVondele, J; Weber, V; Hutter, J. 
 PARALLEL COMPUTING, 40 (5-6), 47-58 (2014). 
 Sparse matrix multiplication: The distributed block-compressed sparse
 row library.
 https://doi.org/10.1016/j.parco.2014.03.012

 Hutter, J; Iannuzzi, M; Schiffmann, F; VandeVondele, J. 
 WIREs Comput Mol Sci., 4 (1), 15-25 (2014). 
 CP2K: atomistic simulations of condensed matter systems.
 https://doi.org/10.1002/wcms.1159

 Marek, A; Blum, V; Johanni, R; Havu, V; Lang, B; Auckenthaler, T;
 Heinecke, A; Bungartz, H; Lederer, H. 
 Journal of Physics: Condensed Matter, 26 (21), (2014). 
 The ELPA library: scalable parallel eigenvalue solutions for
 electronic structure
 theory and computational science.
 https://doi.org/10.1088/0953-8984/26/21/213201

 Frigo, M; Johnson, SG. 
 PROCEEDINGS OF THE IEEE, 93 (2), 216-231 (2005). 
 The design and implementation of FFTW3.
 https://doi.org/10.1109/JPROC.2004.840301

 VandeVondele, J; Hutter, J. 
 JOURNAL OF CHEMICAL PHYSICS, 118 (10), 4365-4369 (2003). 
 An efficient orbital transformation method for electronic structure
 calculations.
 https://doi.org/10.1063/1.1543154

 Lippert, G; Hutter, J; Parrinello, M. 
 THEORETICAL CHEMISTRY ACCOUNTS, 103 (2), 124-140 (1999). 
 The Gaussian and augmented-plane-wave density functional method for ab
 initio molecular dynamics simulations.
 https://doi.org/10.1007/s002140050523

 Krack, M; Parrinello, M. 
 PHYSICAL CHEMISTRY CHEMICAL PHYSICS, 2 (10), 2105-2112 (2000). 
 All-electron ab-initio molecular dynamics.
 https://doi.org/10.1039/b001167n

 Perdew, JP; Burke, K; Ernzerhof, M. 
 PHYSICAL REVIEW LETTERS, 77 (18), 3865-3868 (1996). 
 Generalized gradient approximation made simple.
 https://doi.org/10.1103/PhysRevLett.77.3865


 -------------------------------------------------------------------------------
 -                                                                             -
 -                                T I M I N G                                  -
 -                                                                             -
 -------------------------------------------------------------------------------
 SUBROUTINE                       CALLS  ASD         SELF TIME        TOTAL TIME
                                MAXIMUM       AVERAGE  MAXIMUM  AVERAGE  MAXIMUM
 CP2K                                 1  1.0    0.011    0.039    7.460    7.462
 qs_energies                          1  2.0    0.000    0.000    7.294    7.294
 scf_env_do_scf                       1  3.0    0.000    0.000    7.153    7.153
 scf_env_do_scf_inner_loop           11  4.0    0.000    0.001    6.625    6.625
 qs_ks_update_qs_env                 12  5.0    0.000    0.000    5.667    5.668
 rebuild_ks_matrix                   11  6.0    0.000    0.000    5.666    5.667
 qs_ks_build_kohn_sham_matrix        11  7.0    0.002    0.003    5.666    5.667
 pw_transfer                        236 10.1    0.023    0.026    3.674    4.075
 fft_wrap_pw1pw2                    203 11.2    0.003    0.003    3.622    4.019
 fft_wrap_pw1pw2_300                134 12.6    0.210    0.221    3.423    3.835
 fft3d_ps                           203 13.2    1.434    1.616    2.768    3.197
 qs_vxc_create                       11  8.0    0.000    0.000    3.071    3.072
 xc_vxc_pw_create                    11  9.0    0.021    0.024    3.071    3.071
 xc_pw_derive                        66 11.0    0.001    0.001    1.935    2.347
 xc_rho_set_and_dset_create          11 10.0    0.019    0.021    1.631    1.892
 xc_pw_divergence                    11 10.0    0.000    0.000    1.381    1.789
 mp_alltoall_z22v                   203 15.2    1.033    1.596    1.033    1.596
 rs_pw_transfer                     114  9.4    0.002    0.003    1.367    1.395
 qs_rho_update_rho                   12  5.0    0.000    0.000    1.319    1.320
 calculate_rho_elec                  12  6.0    0.013    0.014    1.303    1.303
 yz_to_x                            103 13.8    0.138    0.188    0.796    1.228
 density_rs2pw                       12  7.0    0.001    0.001    1.108    1.130
 xc_functional_eval                  33 10.8    0.000    0.000    0.729    0.969
 pbe_lda_eval                        33 11.8    0.729    0.969    0.729    0.969
 sum_up_and_integrate                11  8.0    0.006    0.009    0.898    0.899
 integrate_v_rspace                  11  9.0    0.000    0.000    0.892    0.893
 potential_pw2rs                     11 10.0    0.001    0.001    0.841    0.843
 prepare_gapw_den                    11  8.0    0.000    0.000    0.663    0.677
 x_to_yz                            100 14.6    0.154    0.185    0.529    0.643
 put_rho0_on_grid                    11  9.0    0.013    0.015    0.542    0.556
 init_scf_loop                        1  4.0    0.000    0.000    0.528    0.528
 rs_pw_transfer_PW2RS_300            22 11.0    0.290    0.312    0.479    0.508
 rs_pw_transfer_RS2PW_300            23 10.0    0.312    0.338    0.483    0.500
 mp_sum_d                           729  4.5    0.295    0.392    0.295    0.392
 integrate_vhg0_rspace               11  8.0    0.015    0.017    0.370    0.375
 pw_gather_p                        103 12.8    0.315    0.367    0.315    0.367
 pw_scatter_p                       100 13.6    0.318    0.334    0.318    0.334
 mp_waitall_1                     16338 14.0    0.281    0.327    0.281    0.327
 mp_waitany                        1260 11.5    0.270    0.315    0.270    0.315
 qs_scf_new_mos                      11  5.0    0.000    0.000    0.253    0.254
 qs_scf_loop_do_ot                   11  6.0    0.000    0.000    0.253    0.254
 dbcsr_multiply_generic             261 10.1    0.008    0.008    0.247    0.248
 ot_scf_mini                         11  7.0    0.000    0.000    0.242    0.243
 rs_pw_transfer_PW2RS_100            11 12.0    0.038    0.044    0.195    0.224
 calculate_vxc_atom                  11  8.0    0.006    0.029    0.202    0.203
 fft_wrap_pw1pw2_100                 23 11.4    0.007    0.008    0.144    0.181
 grid_collocate_task_list            12  7.0    0.159    0.176    0.159    0.176
 ot_mini                             11  8.0    0.000    0.000    0.156    0.156
 gaVxcgb_GC                          11  9.0    0.010    0.152    0.010    0.152
 -------------------------------------------------------------------------------

 The number of warnings for this run is : 1
 
 -------------------------------------------------------------------------------
  **** **** ******  **  PROGRAM ENDED AT                 2022-05-12 12:01:10.792
 ***** ** ***  *** **   PROGRAM RAN ON                                   tcopt10
 **    ****   ******    PROGRAM RAN BY                                    hutter
 ***** **    ** ** **   PROGRAM PROCESS ID                                 58029
  **** **  *******  **  PROGRAM STOPPED IN /data/hutter/GITHUB/BASIS/scMOLOPT/PB
                                           E/Be
