
  **** **** ******  **  PROGRAM STARTED AT               2021-01-23 20:30:51.516
 ***** ** ***  *** **   PROGRAM STARTED ON                               tcopt10
 **    ****   ******    PROGRAM STARTED BY                                hutter
 ***** **    ** ** **   PROGRAM PROCESS ID                                 18180
  **** **  *******  **  PROGRAM STARTED IN /data/hutter/GITHUB/BASIS/MOLOPT/PBE/
                                           Br

 CP2K| version string:                    CP2K version 9.0 (Development Version)
 CP2K| source code revision number:                                  git:7d6847f
 CP2K| cp2kflags: omp libint fftw3 libxc elpa parallel mpi3 scalapack xsmm spgli
 CP2K|            b sirius libvori libbqb
 CP2K| is freely available from                            https://www.cp2k.org/
 CP2K| Program compiled at                          Fre Jan 15 16:26:00 CET 2021
 CP2K| Program compiled on                                               tcopt10
 CP2K| Program compiled for                                                local
 CP2K| Data directory path                 /data/hutter/GITHUB/CURRENT/cp2k/data
 CP2K| Input file name                                               opt-all.inp

 GLOBAL| Method name                                              OPTIMIZE_BASIS
 GLOBAL| Project name                                                     molopt
 GLOBAL| Preferred FFT library                                             FFTW3
 GLOBAL| Preferred diagonalization lib.                                     ELPA
 GLOBAL| Run type                                                   ENERGY_FORCE
 GLOBAL| All-to-all communication in single precision                          F
 GLOBAL| FFTs using library dependent lengths                                  F
 GLOBAL| Global print level                                               MEDIUM
 GLOBAL| MPI I/O enabled                                                       T
 GLOBAL| Total number of message passing processes                            24
 GLOBAL| Number of threads for this process                                    1
 GLOBAL| This output is from process                                           0
 GLOBAL| CPU model name                          AMD EPYC 7401 24-Core Processor
 GLOBAL| CPUID                                                              1002

 MEMORY| system memory details [Kb]
 MEMORY|                        rank 0           min           max       average
 MEMORY| MemTotal            263969964     263969964     263969964     263969964
 MEMORY| MemFree             250626256     250626256     250626256     250626256
 MEMORY| Buffers                    20            20            20            20
 MEMORY| Cached                 314032        314032        314032        314032
 MEMORY| Slab                   529988        529988        529988        529988
 MEMORY| SReclaimable           182208        182208        182208        182208
 MEMORY| MemLikelyFree       251122516     251122516     251122516     251122516


 *** Fundamental physical constants (SI units) ***

 *** Literature: B. J. Mohr and B. N. Taylor,
 ***             CODATA recommended values of the fundamental physical
 ***             constants: 2006, Web Version 5.1
 ***             http://physics.nist.gov/constants

 Speed of light in vacuum [m/s]                             2.99792458000000E+08
 Magnetic constant or permeability of vacuum [N/A**2]       1.25663706143592E-06
 Electric constant or permittivity of vacuum [F/m]          8.85418781762039E-12
 Planck constant (h) [J*s]                                  6.62606896000000E-34
 Planck constant (h-bar) [J*s]                              1.05457162825177E-34
 Elementary charge [C]                                      1.60217648700000E-19
 Electron mass [kg]                                         9.10938215000000E-31
 Electron g factor [ ]                                     -2.00231930436220E+00
 Proton mass [kg]                                           1.67262163700000E-27
 Fine-structure constant                                    7.29735253760000E-03
 Rydberg constant [1/m]                                     1.09737315685270E+07
 Avogadro constant [1/mol]                                  6.02214179000000E+23
 Boltzmann constant [J/K]                                   1.38065040000000E-23
 Atomic mass unit [kg]                                      1.66053878200000E-27
 Bohr radius [m]                                            5.29177208590000E-11

 *** Conversion factors ***

 [u] -> [a.u.]                                              1.82288848426455E+03
 [Angstrom] -> [Bohr] = [a.u.]                              1.88972613288564E+00
 [a.u.] = [Bohr] -> [Angstrom]                              5.29177208590000E-01
 [a.u.] -> [s]                                              2.41888432650478E-17
 [a.u.] -> [fs]                                             2.41888432650478E-02
 [a.u.] -> [J]                                              4.35974393937059E-18
 [a.u.] -> [N]                                              8.23872205491840E-08
 [a.u.] -> [K]                                              3.15774647902944E+05
 [a.u.] -> [kJ/mol]                                         2.62549961709828E+03
 [a.u.] -> [kcal/mol]                                       6.27509468713739E+02

  **** **** ******  **  PROGRAM STARTED AT               2021-01-23 20:33:54.812
 ***** ** ***  *** **   PROGRAM STARTED ON                               tcopt10
 **    ****   ******    PROGRAM STARTED BY                                hutter
 ***** **    ** ** **   PROGRAM PROCESS ID                                 18669
  **** **  *******  **  PROGRAM STARTED IN /data/hutter/GITHUB/BASIS/MOLOPT/PBE/
                                           Br

 CP2K| version string:                    CP2K version 9.0 (Development Version)
 CP2K| source code revision number:                                  git:7d6847f
 CP2K| cp2kflags: omp libint fftw3 libxc elpa parallel mpi3 scalapack xsmm spgli
 CP2K|            b sirius libvori libbqb
 CP2K| is freely available from                            https://www.cp2k.org/
 CP2K| Program compiled at                          Fre Jan 15 16:26:00 CET 2021
 CP2K| Program compiled on                                               tcopt10
 CP2K| Program compiled for                                                local
 CP2K| Data directory path                 /data/hutter/GITHUB/CURRENT/cp2k/data
 CP2K| Input file name                                               opt-all.inp

 GLOBAL| Method name                                              OPTIMIZE_BASIS
 GLOBAL| Project name                                                     molopt
 GLOBAL| Preferred FFT library                                             FFTW3
 GLOBAL| Preferred diagonalization lib.                                     ELPA
 GLOBAL| Run type                                                   ENERGY_FORCE
 GLOBAL| All-to-all communication in single precision                          F
 GLOBAL| FFTs using library dependent lengths                                  F
 GLOBAL| Global print level                                               MEDIUM
 GLOBAL| MPI I/O enabled                                                       T
 GLOBAL| Total number of message passing processes                            24
 GLOBAL| Number of threads for this process                                    1
 GLOBAL| This output is from process                                           0
 GLOBAL| CPU model name                          AMD EPYC 7401 24-Core Processor
 GLOBAL| CPUID                                                              1002

 MEMORY| system memory details [Kb]
 MEMORY|                        rank 0           min           max       average
 MEMORY| MemTotal            263969964     263969964     263969964     263969964
 MEMORY| MemFree             250616376     250616376     250616376     250616376
 MEMORY| Buffers                    20            20            20            20
 MEMORY| Cached                 315252        315252        315252        315252
 MEMORY| Slab                   530312        530312        530312        530312
 MEMORY| SReclaimable           182304        182304        182304        182304
 MEMORY| MemLikelyFree       251113952     251113952     251113952     251113952


 *** Fundamental physical constants (SI units) ***

 *** Literature: B. J. Mohr and B. N. Taylor,
 ***             CODATA recommended values of the fundamental physical
 ***             constants: 2006, Web Version 5.1
 ***             http://physics.nist.gov/constants

 Speed of light in vacuum [m/s]                             2.99792458000000E+08
 Magnetic constant or permeability of vacuum [N/A**2]       1.25663706143592E-06
 Electric constant or permittivity of vacuum [F/m]          8.85418781762039E-12
 Planck constant (h) [J*s]                                  6.62606896000000E-34
 Planck constant (h-bar) [J*s]                              1.05457162825177E-34
 Elementary charge [C]                                      1.60217648700000E-19
 Electron mass [kg]                                         9.10938215000000E-31
 Electron g factor [ ]                                     -2.00231930436220E+00
 Proton mass [kg]                                           1.67262163700000E-27
 Fine-structure constant                                    7.29735253760000E-03
 Rydberg constant [1/m]                                     1.09737315685270E+07
 Avogadro constant [1/mol]                                  6.02214179000000E+23
 Boltzmann constant [J/K]                                   1.38065040000000E-23
 Atomic mass unit [kg]                                      1.66053878200000E-27
 Bohr radius [m]                                            5.29177208590000E-11

 *** Conversion factors ***

 [u] -> [a.u.]                                              1.82288848426455E+03
 [Angstrom] -> [Bohr] = [a.u.]                              1.88972613288564E+00
 [a.u.] = [Bohr] -> [Angstrom]                              5.29177208590000E-01
 [a.u.] -> [s]                                              2.41888432650478E-17
 [a.u.] -> [fs]                                             2.41888432650478E-02
 [a.u.] -> [J]                                              4.35974393937059E-18
 [a.u.] -> [N]                                              8.23872205491840E-08
 [a.u.] -> [K]                                              3.15774647902944E+05
 [a.u.] -> [kJ/mol]                                         2.62549961709828E+03
 [a.u.] -> [kcal/mol]                                       6.27509468713739E+02
 [a.u.] -> [Pa]                                             2.94210107994716E+13
 [a.u.] -> [bar]                                            2.94210107994716E+08
 [a.u.] -> [atm]                                            2.90362800883016E+08
 [a.u.] -> [eV]                                             2.72113838565563E+01
 [a.u.] -> [Hz]                                             6.57968392072181E+15
 [a.u.] -> [1/cm] (wave numbers)                            2.19474631370540E+05
 [a.u./Bohr**2] -> [1/cm]                                   5.14048714338585E+03
 
 DBCSR| CPU Multiplication driver                                           XSMM
 DBCSR| Multrec recursion limit                                              512
 DBCSR| Multiplication stack size                                           1000
 DBCSR| Maximum elements for images                                    UNLIMITED
 DBCSR| Multiplicative factor virtual images                                   1
 DBCSR| Use multiplication densification                                       T
 DBCSR| Multiplication size stacks                                             3
 DBCSR| Use memory pool for CPU allocation                                     F
 DBCSR| Number of 3D layers                                               SINGLE
 DBCSR| Use MPI memory allocation                                              F
 DBCSR| Use RMA algorithm                                                      F
 DBCSR| Use Communication thread                                               T
 DBCSR| Communication thread load                                             87
 DBCSR| MPI: My node id                                                        0
 DBCSR| MPI: Number of nodes                                                  24
 DBCSR| OMP: Current number of threads                                         1
 DBCSR| OMP: Max number of threads                                             1
 DBCSR| Split modifier for TAS multiplication algorithm                  1.0E+00

 BASOPT| Total number of calculations     18

 BASOPT| Content of basis combination      1
 BASOPT|     Element:   BR    Basis set:    TZV2P-MOLOPT-PBE-GTH-Q7
 BASOPT|     Element:    K    Basis set:    TZV2P-MOLOPT-PBE-GTH-Q9
 BASOPT|     Element:    H    Basis set:    TZV2P-MOLOPT-PBE-GTH-Q1
 BASOPT|     Element:    O    Basis set:    TZV2P-MOLOPT-PBE-GTH-Q6
 BASOPT|     Element:    C    Basis set:    TZV2P-MOLOPT-PBE-GTH-Q4
 BASOPT|     Element:   CL    Basis set:    TZV2P-MOLOPT-PBE-GTH-Q7

 BASOPT| Content of basis combination      2
 BASOPT|     Element:   BR    Basis set:    TZVP-MOLOPT-PBE-GTH-q7
 BASOPT|     Element:    K    Basis set:    TZVP-MOLOPT-PBE-GTH-q9
 BASOPT|     Element:    H    Basis set:    TZVP-MOLOPT-PBE-GTH-q1
 BASOPT|     Element:    O    Basis set:    TZVP-MOLOPT-PBE-GTH-q6
 BASOPT|     Element:    C    Basis set:    TZVP-MOLOPT-PBE-GTH-q4
 BASOPT|     Element:   CL    Basis set:    TZVP-MOLOPT-PBE-GTH-q7

 BASOPT| Content of basis combination      3
 BASOPT|     Element:   BR    Basis set:    DZVP-MOLOPT-PBE-GTH-q7
 BASOPT|     Element:    K    Basis set:    DZVP-MOLOPT-PBE-GTH-q9
 BASOPT|     Element:    H    Basis set:    DZVP-MOLOPT-PBE-GTH-q1
 BASOPT|     Element:    O    Basis set:    DZVP-MOLOPT-PBE-GTH-q6
 BASOPT|     Element:    C    Basis set:    DZVP-MOLOPT-PBE-GTH-q4
 BASOPT|     Element:   CL    Basis set:    DZVP-MOLOPT-PBE-GTH-q7

 BASOPT| Information at iteration number:       0
 BASOPT| Training set | Combination | Rho difference | Condition num. | Time
 BASOPT| -----------------------------------------------------------------------
 BASOPT|        1     |       1     | 0.31952509E-02 | 0.48848398E+03 |    0.014
 BASOPT|        1     |       2     | 0.34042065E-02 | 0.41868307E+03 |    0.012
 BASOPT|        1     |       3     | 0.34413473E-02 | 0.35477960E+02 |    0.012
 BASOPT|        2     |       1     | 0.64430141E-02 | 0.26053487E+04 |    0.155
 BASOPT|        2     |       2     | 0.11877617E-01 | 0.13070740E+04 |    0.104
 BASOPT|        2     |       3     | 0.12904291E-01 | 0.26999054E+03 |    0.084
 BASOPT|        3     |       1     | 0.30716063E-02 | 0.50494721E+04 |    0.097
 BASOPT|        3     |       2     | 0.44496623E-02 | 0.88243576E+03 |    0.069
 BASOPT|        3     |       3     | 0.54229195E-02 | 0.23250667E+03 |    0.057
 BASOPT|        4     |       1     | 0.19428525E-02 | 0.37607072E+03 |    0.012
 BASOPT|        4     |       2     | 0.31191389E-02 | 0.36452834E+03 |    0.010
 BASOPT|        4     |       3     | 0.31869893E-02 | 0.37242866E+02 |    0.008
 BASOPT|        5     |       1     | 0.12970201E-02 | 0.38938943E+03 |    0.007
 BASOPT|        5     |       2     | 0.15674674E-02 | 0.37888663E+03 |    0.006
 BASOPT|        5     |       3     | 0.15856440E-02 | 0.38795474E+02 |    0.005
 BASOPT|        6     |       1     | 0.16666840E-02 | 0.34686203E+03 |    0.013
 BASOPT|        6     |       2     | 0.32397899E-02 | 0.34347243E+03 |    0.010
 BASOPT|        6     |       3     | 0.34899486E-02 | 0.18692261E+02 |    0.009
 BASOPT| -----------------------------------------------------------------------
 BASOPT| Total residuum value: -.14618639E+04

 BASOPT| Information at iteration number:     100
 BASOPT| Training set | Combination | Rho difference | Condition num. | Time
 BASOPT| -----------------------------------------------------------------------
 BASOPT|        1     |       1     | 0.32102327E-02 | 0.36558561E+03 |    1.091
 BASOPT|        1     |       2     | 0.34130264E-02 | 0.22381849E+03 |    0.917
 BASOPT|        1     |       3     | 0.34901356E-02 | 0.35757215E+02 |    0.777
 BASOPT|        2     |       1     | 0.64220159E-02 | 0.25824502E+04 |   15.056
 BASOPT|        2     |       2     | 0.11844968E-01 | 0.13136334E+04 |    9.608
 BASOPT|        2     |       3     | 0.12933740E-01 | 0.26837021E+03 |    7.971
 BASOPT|        3     |       1     | 0.30602967E-02 | 0.52207139E+04 |    9.611
 BASOPT|        3     |       2     | 0.44444827E-02 | 0.85320959E+03 |    6.883
 BASOPT|        3     |       3     | 0.54396951E-02 | 0.23384719E+03 |    5.686
 BASOPT|        4     |       1     | 0.19476248E-02 | 0.21859282E+03 |    1.138
 BASOPT|        4     |       2     | 0.31253674E-02 | 0.19497611E+03 |    0.957
 BASOPT|        4     |       3     | 0.32146256E-02 | 0.37339531E+02 |    0.761
 BASOPT|        5     |       1     | 0.12958027E-02 | 0.23734869E+03 |    0.681
 BASOPT|        5     |       2     | 0.15700532E-02 | 0.21559934E+03 |    0.565
 BASOPT|        5     |       3     | 0.16078469E-02 | 0.38846044E+02 |    0.508
 BASOPT|        6     |       1     | 0.16596638E-02 | 0.18336374E+03 |    1.167
 BASOPT|        6     |       2     | 0.32340427E-02 | 0.18100598E+03 |    0.977
 BASOPT|        6     |       3     | 0.34575067E-02 | 0.18799032E+02 |    0.856
 BASOPT| -----------------------------------------------------------------------
 BASOPT| Total residuum value: -.14618976E+04

 BASOPT| Information at iteration number:     200
 BASOPT| Training set | Combination | Rho difference | Condition num. | Time
 BASOPT| -----------------------------------------------------------------------
 BASOPT|        1     |       1     | 0.31526947E-02 | 0.34867554E+03 |    2.161
 BASOPT|        1     |       2     | 0.33686633E-02 | 0.17837423E+03 |    1.821
 BASOPT|        1     |       3     | 0.34237106E-02 | 0.33549815E+02 |    1.539
 BASOPT|        2     |       1     | 0.64293963E-02 | 0.25582998E+04 |   29.945
 BASOPT|        2     |       2     | 0.11843486E-01 | 0.13090385E+04 |   19.130
 BASOPT|        2     |       3     | 0.12890138E-01 | 0.26878191E+03 |   15.840
 BASOPT|        3     |       1     | 0.30732248E-02 | 0.51773948E+04 |   19.129
 BASOPT|        3     |       2     | 0.44335674E-02 | 0.84044653E+03 |   13.696
 BASOPT|        3     |       3     | 0.54525124E-02 | 0.21953887E+03 |   11.317
 BASOPT|        4     |       1     | 0.19372688E-02 | 0.19285648E+03 |    2.264
 BASOPT|        4     |       2     | 0.31071542E-02 | 0.15452380E+03 |    1.903
 BASOPT|        4     |       3     | 0.31802639E-02 | 0.36216118E+02 |    1.512
 BASOPT|        5     |       1     | 0.13029315E-02 | 0.22674431E+03 |    1.353
 BASOPT|        5     |       2     | 0.15685229E-02 | 0.19821937E+03 |    1.124
 BASOPT|        5     |       3     | 0.15882789E-02 | 0.38729117E+02 |    1.010
 BASOPT|        6     |       1     | 0.16901463E-02 | 0.14482390E+03 |    2.320
 BASOPT|        6     |       2     | 0.32691214E-02 | 0.14234791E+03 |    1.945
 BASOPT|        6     |       3     | 0.35277720E-02 | 0.18395258E+02 |    1.703
 BASOPT| -----------------------------------------------------------------------
 BASOPT| Total residuum value: -.14619165E+04

 BASOPT| Information at iteration number:     300
 BASOPT| Training set | Combination | Rho difference | Condition num. | Time
 BASOPT| -----------------------------------------------------------------------
 BASOPT|        1     |       1     | 0.31890468E-02 | 0.32851871E+03 |    3.235
 BASOPT|        1     |       2     | 0.34018914E-02 | 0.16178516E+03 |    2.724
 BASOPT|        1     |       3     | 0.34652244E-02 | 0.33475009E+02 |    2.300
 BASOPT|        2     |       1     | 0.64323238E-02 | 0.24976529E+04 |   44.829
 BASOPT|        2     |       2     | 0.11829808E-01 | 0.13261552E+04 |   28.652
 BASOPT|        2     |       3     | 0.12914254E-01 | 0.26812764E+03 |   23.712
 BASOPT|        3     |       1     | 0.30677771E-02 | 0.52938412E+04 |   28.649
 BASOPT|        3     |       2     | 0.44372860E-02 | 0.83364336E+03 |   20.501
 BASOPT|        3     |       3     | 0.54457228E-02 | 0.22055706E+03 |   16.945
 BASOPT|        4     |       1     | 0.19445071E-02 | 0.17698361E+03 |    3.389
 BASOPT|        4     |       2     | 0.31201515E-02 | 0.14106298E+03 |    2.851
 BASOPT|        4     |       3     | 0.32045847E-02 | 0.36196580E+02 |    2.264
 BASOPT|        5     |       1     | 0.13005015E-02 | 0.22577887E+03 |    2.026
 BASOPT|        5     |       2     | 0.15617804E-02 | 0.19688189E+03 |    1.683
 BASOPT|        5     |       3     | 0.15914494E-02 | 0.38782647E+02 |    1.512
 BASOPT|        6     |       1     | 0.16712789E-02 | 0.13226973E+03 |    3.472
 BASOPT|        6     |       2     | 0.32525041E-02 | 0.12974358E+03 |    2.913
 BASOPT|        6     |       3     | 0.34797712E-02 | 0.18362307E+02 |    2.549
 BASOPT| -----------------------------------------------------------------------
 BASOPT| Total residuum value: -.14619210E+04

 BASOPT| Information at iteration number:     400
 BASOPT| Training set | Combination | Rho difference | Condition num. | Time
 BASOPT| -----------------------------------------------------------------------
 BASOPT|        1     |       1     | 0.31949789E-02 | 0.32884099E+03 |    4.308
 BASOPT|        1     |       2     | 0.34085625E-02 | 0.15664342E+03 |    3.627
 BASOPT|        1     |       3     | 0.34700922E-02 | 0.34069292E+02 |    3.063
 BASOPT|        2     |       1     | 0.64005555E-02 | 0.24750741E+04 |   59.715
 BASOPT|        2     |       2     | 0.11800147E-01 | 0.13306251E+04 |   38.151
 BASOPT|        2     |       3     | 0.12851019E-01 | 0.26512385E+03 |   31.580
 BASOPT|        3     |       1     | 0.30669225E-02 | 0.52849908E+04 |   38.167
 BASOPT|        3     |       2     | 0.44378064E-02 | 0.83297661E+03 |   27.311
 BASOPT|        3     |       3     | 0.54357291E-02 | 0.22372365E+03 |   22.573
 BASOPT|        4     |       1     | 0.19431029E-02 | 0.17694122E+03 |    4.514
 BASOPT|        4     |       2     | 0.31217851E-02 | 0.13614307E+03 |    3.801
 BASOPT|        4     |       3     | 0.31964887E-02 | 0.36457578E+02 |    3.015
 BASOPT|        5     |       1     | 0.12997246E-02 | 0.22576236E+03 |    2.699
 BASOPT|        5     |       2     | 0.15608962E-02 | 0.19662945E+03 |    2.242
 BASOPT|        5     |       3     | 0.15780122E-02 | 0.38635843E+02 |    2.014
 BASOPT|        6     |       1     | 0.16764543E-02 | 0.12717670E+03 |    4.622
 BASOPT|        6     |       2     | 0.32564178E-02 | 0.12468801E+03 |    3.880
 BASOPT|        6     |       3     | 0.35090631E-02 | 0.18536640E+02 |    3.395
 BASOPT| -----------------------------------------------------------------------
 BASOPT| Total residuum value: -.14619252E+04

 BASOPT| Information at iteration number:     500
 BASOPT| Training set | Combination | Rho difference | Condition num. | Time
 BASOPT| -----------------------------------------------------------------------
 BASOPT|        1     |       1     | 0.31841306E-02 | 0.32547529E+03 |    5.382
 BASOPT|        1     |       2     | 0.33977427E-02 | 0.14490561E+03 |    4.530
 BASOPT|        1     |       3     | 0.34625956E-02 | 0.34709196E+02 |    3.825
 BASOPT|        2     |       1     | 0.63953438E-02 | 0.24937726E+04 |   74.597
 BASOPT|        2     |       2     | 0.11797964E-01 | 0.13456440E+04 |   47.653
 BASOPT|        2     |       3     | 0.12865022E-01 | 0.26407921E+03 |   39.442
 BASOPT|        3     |       1     | 0.30620378E-02 | 0.54083562E+04 |   47.683
 BASOPT|        3     |       2     | 0.44341030E-02 | 0.83500162E+03 |   34.118
 BASOPT|        3     |       3     | 0.54157446E-02 | 0.22754181E+03 |   28.200
 BASOPT|        4     |       1     | 0.19400762E-02 | 0.17175413E+03 |    5.639
 BASOPT|        4     |       2     | 0.31178225E-02 | 0.12576670E+03 |    4.741
 BASOPT|        4     |       3     | 0.31940336E-02 | 0.36773400E+02 |    3.763
 BASOPT|        5     |       1     | 0.12993961E-02 | 0.22535271E+03 |    3.371
 BASOPT|        5     |       2     | 0.15638980E-02 | 0.19601040E+03 |    2.800
 BASOPT|        5     |       3     | 0.15797482E-02 | 0.38640840E+02 |    2.516
 BASOPT|        6     |       1     | 0.16785999E-02 | 0.11721449E+03 |    5.772
 BASOPT|        6     |       2     | 0.32576188E-02 | 0.11466861E+03 |    4.847
 BASOPT|        6     |       3     | 0.35020941E-02 | 0.18665092E+02 |    4.241
 BASOPT| -----------------------------------------------------------------------
 BASOPT| Total residuum value: -.14619285E+04

 BASOPT| Information at iteration number:     600
 BASOPT| Training set | Combination | Rho difference | Condition num. | Time
 BASOPT| -----------------------------------------------------------------------
 BASOPT|        1     |       1     | 0.31814986E-02 | 0.32201158E+03 |    6.455
 BASOPT|        1     |       2     | 0.33887572E-02 | 0.13113352E+03 |    5.431
 BASOPT|        1     |       3     | 0.34560665E-02 | 0.34618101E+02 |    4.586
 BASOPT|        2     |       1     | 0.63845985E-02 | 0.25509331E+04 |   89.480
 BASOPT|        2     |       2     | 0.11792334E-01 | 0.13601153E+04 |   57.155
 BASOPT|        2     |       3     | 0.12865486E-01 | 0.26439687E+03 |   47.303
 BASOPT|        3     |       1     | 0.30586757E-02 | 0.55923147E+04 |   57.192
 BASOPT|        3     |       2     | 0.44291090E-02 | 0.84034587E+03 |   40.930
 BASOPT|        3     |       3     | 0.54320639E-02 | 0.22511602E+03 |   33.827
 BASOPT|        4     |       1     | 0.19397995E-02 | 0.16519712E+03 |    6.765
 BASOPT|        4     |       2     | 0.31154313E-02 | 0.11448775E+03 |    5.679
 BASOPT|        4     |       3     | 0.31945591E-02 | 0.36731989E+02 |    4.513
 BASOPT|        5     |       1     | 0.12972622E-02 | 0.22449872E+03 |    4.043
 BASOPT|        5     |       2     | 0.15670654E-02 | 0.19536367E+03 |    3.359
 BASOPT|        5     |       3     | 0.15873939E-02 | 0.38762758E+02 |    3.018
 BASOPT|        6     |       1     | 0.16788772E-02 | 0.10721645E+03 |    6.921
 BASOPT|        6     |       2     | 0.32565311E-02 | 0.10437301E+03 |    5.814
 BASOPT|        6     |       3     | 0.34936734E-02 | 0.18623678E+02 |    5.086
 BASOPT| -----------------------------------------------------------------------
 BASOPT| Total residuum value: -.14619343E+04

 BASOPT| Information at iteration number:     700
 BASOPT| Training set | Combination | Rho difference | Condition num. | Time
 BASOPT| -----------------------------------------------------------------------
 BASOPT|        1     |       1     | 0.31831290E-02 | 0.32172528E+03 |    7.538
 BASOPT|        1     |       2     | 0.33886746E-02 | 0.12547250E+03 |    6.334
 BASOPT|        1     |       3     | 0.34545455E-02 | 0.34346809E+02 |    5.346
 BASOPT|        2     |       1     | 0.63826146E-02 | 0.25759957E+04 |  104.367
 BASOPT|        2     |       2     | 0.11790470E-01 | 0.13620219E+04 |   66.662
 BASOPT|        2     |       3     | 0.12854748E-01 | 0.26491926E+03 |   55.168
 BASOPT|        3     |       1     | 0.30551826E-02 | 0.56551733E+04 |   66.704
 BASOPT|        3     |       2     | 0.44271948E-02 | 0.84203207E+03 |   47.739
 BASOPT|        3     |       3     | 0.54498398E-02 | 0.22250082E+03 |   39.455
 BASOPT|        4     |       1     | 0.19409202E-02 | 0.16407414E+03 |    7.890
 BASOPT|        4     |       2     | 0.31162188E-02 | 0.10961579E+03 |    6.618
 BASOPT|        4     |       3     | 0.31941925E-02 | 0.36595683E+02 |    5.261
 BASOPT|        5     |       1     | 0.12954613E-02 | 0.22412661E+03 |    4.716
 BASOPT|        5     |       2     | 0.15674548E-02 | 0.19515238E+03 |    3.918
 BASOPT|        5     |       3     | 0.15882041E-02 | 0.38861012E+02 |    3.519
 BASOPT|        6     |       1     | 0.16754789E-02 | 0.10300648E+03 |    8.071
 BASOPT|        6     |       2     | 0.32534998E-02 | 0.99941713E+02 |    6.782
 BASOPT|        6     |       3     | 0.34968358E-02 | 0.18569452E+02 |    5.932
 BASOPT| -----------------------------------------------------------------------
 BASOPT| Total residuum value: -.14619374E+04

 BASOPT| Information at iteration number:     800
 BASOPT| Training set | Combination | Rho difference | Condition num. | Time
 BASOPT| -----------------------------------------------------------------------
 BASOPT|        1     |       1     | 0.31827486E-02 | 0.32188625E+03 |    8.611
 BASOPT|        1     |       2     | 0.33859807E-02 | 0.11910371E+03 |    7.238
 BASOPT|        1     |       3     | 0.34531601E-02 | 0.34118646E+02 |    6.108
 BASOPT|        2     |       1     | 0.63662177E-02 | 0.26016344E+04 |  119.253
 BASOPT|        2     |       2     | 0.11778270E-01 | 0.13599276E+04 |   76.214
 BASOPT|        2     |       3     | 0.12824977E-01 | 0.26544876E+03 |   63.028
 BASOPT|        3     |       1     | 0.30509490E-02 | 0.56930810E+04 |   76.220
 BASOPT|        3     |       2     | 0.44232469E-02 | 0.84481319E+03 |   54.550
 BASOPT|        3     |       3     | 0.54736125E-02 | 0.21955952E+03 |   45.084
 BASOPT|        4     |       1     | 0.19407785E-02 | 0.16393620E+03 |    9.015
 BASOPT|        4     |       2     | 0.31158428E-02 | 0.10376111E+03 |    7.557
 BASOPT|        4     |       3     | 0.31916115E-02 | 0.36468585E+02 |    6.007
 BASOPT|        5     |       1     | 0.12933604E-02 | 0.22382610E+03 |    5.388
 BASOPT|        5     |       2     | 0.15689771E-02 | 0.19505414E+03 |    4.476
 BASOPT|        5     |       3     | 0.15890267E-02 | 0.38931212E+02 |    4.019
 BASOPT|        6     |       1     | 0.16765557E-02 | 0.97925293E+02 |    9.223
 BASOPT|        6     |       2     | 0.32539751E-02 | 0.94520876E+02 |    7.750
 BASOPT|        6     |       3     | 0.35120766E-02 | 0.18539951E+02 |    6.778
 BASOPT| -----------------------------------------------------------------------
 BASOPT| Total residuum value: -.14619401E+04

 BASOPT| Information at iteration number:     900
 BASOPT| Training set | Combination | Rho difference | Condition num. | Time
 BASOPT| -----------------------------------------------------------------------
 BASOPT|        1     |       1     | 0.31869330E-02 | 0.32254998E+03 |    9.687
 BASOPT|        1     |       2     | 0.33885505E-02 | 0.11530214E+03 |    8.139
 BASOPT|        1     |       3     | 0.34573474E-02 | 0.34236886E+02 |    6.869
 BASOPT|        2     |       1     | 0.63519549E-02 | 0.26217448E+04 |  134.157
 BASOPT|        2     |       2     | 0.11768956E-01 | 0.13602283E+04 |   85.710
 BASOPT|        2     |       3     | 0.12823572E-01 | 0.26559143E+03 |   70.898
 BASOPT|        3     |       1     | 0.30493584E-02 | 0.57205168E+04 |   85.734
 BASOPT|        3     |       2     | 0.44230491E-02 | 0.84574275E+03 |   61.360
 BASOPT|        3     |       3     | 0.54692140E-02 | 0.22060360E+03 |   50.710
 BASOPT|        4     |       1     | 0.19409166E-02 | 0.16403699E+03 |   10.140
 BASOPT|        4     |       2     | 0.31169686E-02 | 0.99788302E+02 |    8.499
 BASOPT|        4     |       3     | 0.31943941E-02 | 0.36557520E+02 |    6.754
 BASOPT|        5     |       1     | 0.12919213E-02 | 0.22347609E+03 |    6.061
 BASOPT|        5     |       2     | 0.15690153E-02 | 0.19469477E+03 |    5.035
 BASOPT|        5     |       3     | 0.15900828E-02 | 0.38852930E+02 |    4.520
 BASOPT|        6     |       1     | 0.16752987E-02 | 0.93981101E+02 |   10.374
 BASOPT|        6     |       2     | 0.32525320E-02 | 0.90458557E+02 |    8.717
 BASOPT|        6     |       3     | 0.35024758E-02 | 0.18515789E+02 |    7.623
 BASOPT| -----------------------------------------------------------------------
 BASOPT| Total residuum value: -.14619422E+04

 BASOPT| Information at iteration number:    1000
 BASOPT| Training set | Combination | Rho difference | Condition num. | Time
 BASOPT| -----------------------------------------------------------------------
 BASOPT|        1     |       1     | 0.31683347E-02 | 0.32146094E+03 |   10.761
 BASOPT|        1     |       2     | 0.33695735E-02 | 0.10775132E+03 |    9.042
 BASOPT|        1     |       3     | 0.34464180E-02 | 0.34478015E+02 |    7.631
 BASOPT|        2     |       1     | 0.63363018E-02 | 0.26563739E+04 |  149.040
 BASOPT|        2     |       2     | 0.11768267E-01 | 0.13683101E+04 |   95.203
 BASOPT|        2     |       3     | 0.12809246E-01 | 0.26716688E+03 |   78.763
 BASOPT|        3     |       1     | 0.30449249E-02 | 0.58331433E+04 |   95.255
 BASOPT|        3     |       2     | 0.44169381E-02 | 0.84980374E+03 |   68.168
 BASOPT|        3     |       3     | 0.54727848E-02 | 0.22176179E+03 |   56.338
 BASOPT|        4     |       1     | 0.19360883E-02 | 0.16199981E+03 |   11.265
 BASOPT|        4     |       2     | 0.31098137E-02 | 0.93061048E+02 |    9.442
 BASOPT|        4     |       3     | 0.31901488E-02 | 0.36722648E+02 |    7.502
 BASOPT|        5     |       1     | 0.12912362E-02 | 0.22278307E+03 |    6.734
 BASOPT|        5     |       2     | 0.15740348E-02 | 0.19402044E+03 |    5.593
 BASOPT|        5     |       3     | 0.15958638E-02 | 0.38678789E+02 |    5.020
 BASOPT|        6     |       1     | 0.16826272E-02 | 0.87978798E+02 |   11.527
 BASOPT|        6     |       2     | 0.32587143E-02 | 0.84122936E+02 |    9.685
 BASOPT|        6     |       3     | 0.35059562E-02 | 0.18474929E+02 |    8.469
 BASOPT| -----------------------------------------------------------------------
 BASOPT| Total residuum value: -.14619452E+04

 BASOPT| Information at iteration number:    1100
 BASOPT| Training set | Combination | Rho difference | Condition num. | Time
 BASOPT| -----------------------------------------------------------------------
 BASOPT|        1     |       1     | 0.31724293E-02 | 0.32159844E+03 |   11.834
 BASOPT|        1     |       2     | 0.33667525E-02 | 0.96368943E+02 |    9.945
 BASOPT|        1     |       3     | 0.34419576E-02 | 0.34284873E+02 |    8.392
 BASOPT|        2     |       1     | 0.63287497E-02 | 0.26984240E+04 |  163.924
 BASOPT|        2     |       2     | 0.11775914E-01 | 0.13802511E+04 |  104.697
 BASOPT|        2     |       3     | 0.12837040E-01 | 0.26704858E+03 |   86.631
 BASOPT|        3     |       1     | 0.30404087E-02 | 0.59692700E+04 |  104.772
 BASOPT|        3     |       2     | 0.44144073E-02 | 0.85582406E+03 |   74.977
 BASOPT|        3     |       3     | 0.54819256E-02 | 0.21977775E+03 |   61.969
 BASOPT|        4     |       1     | 0.19376102E-02 | 0.15949800E+03 |   12.390
 BASOPT|        4     |       2     | 0.31101459E-02 | 0.83380975E+02 |   10.380
 BASOPT|        4     |       3     | 0.31909209E-02 | 0.36664161E+02 |    8.248
 BASOPT|        5     |       1     | 0.12882670E-02 | 0.22180739E+03 |    7.408
 BASOPT|        5     |       2     | 0.15760845E-02 | 0.19314098E+03 |    6.152
 BASOPT|        5     |       3     | 0.16011573E-02 | 0.38691547E+02 |    5.521
 BASOPT|        6     |       1     | 0.16721420E-02 | 0.78614014E+02 |   12.677
 BASOPT|        6     |       2     | 0.32482931E-02 | 0.74482337E+02 |   10.653
 BASOPT|        6     |       3     | 0.34911898E-02 | 0.18359965E+02 |    9.315
 BASOPT| -----------------------------------------------------------------------
 BASOPT| Total residuum value: -.14619514E+04

 BASOPT| Information at iteration number:    1200
 BASOPT| Training set | Combination | Rho difference | Condition num. | Time
 BASOPT| -----------------------------------------------------------------------
 BASOPT|        1     |       1     | 0.31658201E-02 | 0.32273095E+03 |   12.907
 BASOPT|        1     |       2     | 0.33624041E-02 | 0.92485077E+02 |   10.848
 BASOPT|        1     |       3     | 0.34400338E-02 | 0.34329011E+02 |    9.155
 BASOPT|        2     |       1     | 0.63340603E-02 | 0.27163889E+04 |  178.809
 BASOPT|        2     |       2     | 0.11786334E-01 | 0.13878247E+04 |  114.196
 BASOPT|        2     |       3     | 0.12857492E-01 | 0.26612195E+03 |   94.488
 BASOPT|        3     |       1     | 0.30393470E-02 | 0.60252284E+04 |  114.289
 BASOPT|        3     |       2     | 0.44149066E-02 | 0.85513873E+03 |   81.788
 BASOPT|        3     |       3     | 0.54710134E-02 | 0.22070494E+03 |   67.598
 BASOPT|        4     |       1     | 0.19366944E-02 | 0.15879375E+03 |   13.515
 BASOPT|        4     |       2     | 0.31086580E-02 | 0.80068702E+02 |   11.319
 BASOPT|        4     |       3     | 0.31899330E-02 | 0.36693247E+02 |    8.999
 BASOPT|        5     |       1     | 0.12881678E-02 | 0.22146914E+03 |    8.081
 BASOPT|        5     |       2     | 0.15758392E-02 | 0.19277437E+03 |    6.712
 BASOPT|        5     |       3     | 0.16005316E-02 | 0.38632679E+02 |    6.021
 BASOPT|        6     |       1     | 0.16688122E-02 | 0.74873727E+02 |   13.828
 BASOPT|        6     |       2     | 0.32470348E-02 | 0.70787581E+02 |   11.621
 BASOPT|        6     |       3     | 0.34873116E-02 | 0.18353883E+02 |   10.161
 BASOPT| -----------------------------------------------------------------------
 BASOPT| Total residuum value: -.14619535E+04

 BASOPT| Information at iteration number:    1300
 BASOPT| Training set | Combination | Rho difference | Condition num. | Time
 BASOPT| -----------------------------------------------------------------------
 BASOPT|        1     |       1     | 0.31574026E-02 | 0.32214565E+03 |   13.979
 BASOPT|        1     |       2     | 0.33547852E-02 | 0.86066527E+02 |   11.751
 BASOPT|        1     |       3     | 0.34303453E-02 | 0.33893012E+02 |    9.917
 BASOPT|        2     |       1     | 0.63312463E-02 | 0.27400761E+04 |  193.688
 BASOPT|        2     |       2     | 0.11797982E-01 | 0.13923572E+04 |  123.701
 BASOPT|        2     |       3     | 0.12880176E-01 | 0.26693696E+03 |  102.349
 BASOPT|        3     |       1     | 0.30390363E-02 | 0.60815342E+04 |  123.804
 BASOPT|        3     |       2     | 0.44138525E-02 | 0.85530493E+03 |   88.602
 BASOPT|        3     |       3     | 0.54734302E-02 | 0.21892415E+03 |   73.228
 BASOPT|        4     |       1     | 0.19357743E-02 | 0.15776357E+03 |   14.641
 BASOPT|        4     |       2     | 0.31062210E-02 | 0.74765600E+02 |   12.257
 BASOPT|        4     |       3     | 0.31872732E-02 | 0.36522235E+02 |    9.747
 BASOPT|        5     |       1     | 0.12871551E-02 | 0.22063258E+03 |    8.754
 BASOPT|        5     |       2     | 0.15760032E-02 | 0.19203222E+03 |    7.272
 BASOPT|        5     |       3     | 0.16022002E-02 | 0.38536046E+02 |    6.522
 BASOPT|        6     |       1     | 0.16655067E-02 | 0.68959290E+02 |   14.978
 BASOPT|        6     |       2     | 0.32465154E-02 | 0.64824531E+02 |   12.588
 BASOPT|        6     |       3     | 0.34875488E-02 | 0.18176380E+02 |   11.007
 BASOPT| -----------------------------------------------------------------------
 BASOPT| Total residuum value: -.14619572E+04

 BASOPT| Information at iteration number:    1400
 BASOPT| Training set | Combination | Rho difference | Condition num. | Time
 BASOPT| -----------------------------------------------------------------------
 BASOPT|        1     |       1     | 0.31586072E-02 | 0.32207739E+03 |   15.049
 BASOPT|        1     |       2     | 0.33576779E-02 | 0.84189478E+02 |   12.653
 BASOPT|        1     |       3     | 0.34383306E-02 | 0.34185776E+02 |   10.679
 BASOPT|        2     |       1     | 0.63125636E-02 | 0.27460159E+04 |  208.568
 BASOPT|        2     |       2     | 0.11789428E-01 | 0.14002337E+04 |  133.202
 BASOPT|        2     |       3     | 0.12852564E-01 | 0.26791020E+03 |  110.209
 BASOPT|        3     |       1     | 0.30349418E-02 | 0.61456422E+04 |  133.316
 BASOPT|        3     |       2     | 0.44131705E-02 | 0.85634653E+03 |   95.414
 BASOPT|        3     |       3     | 0.54738114E-02 | 0.22116539E+03 |   78.859
 BASOPT|        4     |       1     | 0.19351293E-02 | 0.15720974E+03 |   15.767
 BASOPT|        4     |       2     | 0.31072191E-02 | 0.73343913E+02 |   13.205
 BASOPT|        4     |       3     | 0.31885350E-02 | 0.36690867E+02 |   10.497
 BASOPT|        5     |       1     | 0.12853235E-02 | 0.22035756E+03 |    9.427
 BASOPT|        5     |       2     | 0.15760729E-02 | 0.19175246E+03 |    7.833
 BASOPT|        5     |       3     | 0.15989092E-02 | 0.38447072E+02 |    7.023
 BASOPT|        6     |       1     | 0.16634813E-02 | 0.67498146E+02 |   16.129
 BASOPT|        6     |       2     | 0.32460378E-02 | 0.63377910E+02 |   13.554
 BASOPT|        6     |       3     | 0.34914794E-02 | 0.18212028E+02 |   11.852
 BASOPT| -----------------------------------------------------------------------
 BASOPT| Total residuum value: -.14619586E+04

 BASOPT| Information at iteration number:    1500
 BASOPT| Training set | Combination | Rho difference | Condition num. | Time
 BASOPT| -----------------------------------------------------------------------
 BASOPT|        1     |       1     | 0.31537328E-02 | 0.32221613E+03 |   16.125
 BASOPT|        1     |       2     | 0.33519702E-02 | 0.80697358E+02 |   13.557
 BASOPT|        1     |       3     | 0.34364215E-02 | 0.34401868E+02 |   11.439
 BASOPT|        2     |       1     | 0.63162869E-02 | 0.27461963E+04 |  223.449
 BASOPT|        2     |       2     | 0.11805416E-01 | 0.14131896E+04 |  142.710
 BASOPT|        2     |       3     | 0.12860798E-01 | 0.27037725E+03 |  118.077
 BASOPT|        3     |       1     | 0.30333386E-02 | 0.62341998E+04 |  142.839
 BASOPT|        3     |       2     | 0.44128336E-02 | 0.85963593E+03 |  102.228
 BASOPT|        3     |       3     | 0.54726323E-02 | 0.22342554E+03 |   84.491
 BASOPT|        4     |       1     | 0.19350941E-02 | 0.15632509E+03 |   16.894
 BASOPT|        4     |       2     | 0.31056435E-02 | 0.70858290E+02 |   14.145
 BASOPT|        4     |       3     | 0.31880305E-02 | 0.36846658E+02 |   11.244
 BASOPT|        5     |       1     | 0.12840600E-02 | 0.21984031E+03 |   10.100
 BASOPT|        5     |       2     | 0.15774985E-02 | 0.19126240E+03 |    8.394
 BASOPT|        5     |       3     | 0.15988503E-02 | 0.38392597E+02 |    7.523
 BASOPT|        6     |       1     | 0.16580430E-02 | 0.64495289E+02 |   17.279
 BASOPT|        6     |       2     | 0.32421714E-02 | 0.60550707E+02 |   14.522
 BASOPT|        6     |       3     | 0.34882426E-02 | 0.18190269E+02 |   12.698
 BASOPT| -----------------------------------------------------------------------
 BASOPT| Total residuum value: -.14619605E+04

 BASOPT| Information at iteration number:    1600
 BASOPT| Training set | Combination | Rho difference | Condition num. | Time
 BASOPT| -----------------------------------------------------------------------
 BASOPT|        1     |       1     | 0.31506141E-02 | 0.32220749E+03 |   17.200
 BASOPT|        1     |       2     | 0.33525816E-02 | 0.78672750E+02 |   14.457
 BASOPT|        1     |       3     | 0.34368437E-02 | 0.34107404E+02 |   12.200
 BASOPT|        2     |       1     | 0.63145756E-02 | 0.27375729E+04 |  238.323
 BASOPT|        2     |       2     | 0.11806432E-01 | 0.14174178E+04 |  152.233
 BASOPT|        2     |       3     | 0.12861286E-01 | 0.26962677E+03 |  125.940
 BASOPT|        3     |       1     | 0.30348717E-02 | 0.62524547E+04 |  152.357
 BASOPT|        3     |       2     | 0.44140183E-02 | 0.85693498E+03 |  109.038
 BASOPT|        3     |       3     | 0.54734652E-02 | 0.22208997E+03 |   90.122
 BASOPT|        4     |       1     | 0.19346143E-02 | 0.15602848E+03 |   18.019
 BASOPT|        4     |       2     | 0.31055864E-02 | 0.69434131E+02 |   15.091
 BASOPT|        4     |       3     | 0.31875588E-02 | 0.36701698E+02 |   11.991
 BASOPT|        5     |       1     | 0.12839279E-02 | 0.21940021E+03 |   10.772
 BASOPT|        5     |       2     | 0.15755584E-02 | 0.19085104E+03 |    8.953
 BASOPT|        5     |       3     | 0.15968119E-02 | 0.38287745E+02 |    8.024
 BASOPT|        6     |       1     | 0.16573743E-02 | 0.62546938E+02 |   18.431
 BASOPT|        6     |       2     | 0.32443181E-02 | 0.58712400E+02 |   15.488
 BASOPT|        6     |       3     | 0.34942851E-02 | 0.18120528E+02 |   13.544
 BASOPT| -----------------------------------------------------------------------
 BASOPT| Total residuum value: -.14619616E+04

 BASOPT| Information at iteration number:    1700
 BASOPT| Training set | Combination | Rho difference | Condition num. | Time
 BASOPT| -----------------------------------------------------------------------
 BASOPT|        1     |       1     | 0.31535563E-02 | 0.32177871E+03 |   18.270
 BASOPT|        1     |       2     | 0.33563458E-02 | 0.76730649E+02 |   15.358
 BASOPT|        1     |       3     | 0.34403454E-02 | 0.33645855E+02 |   12.961
 BASOPT|        2     |       1     | 0.63050948E-02 | 0.27311735E+04 |  253.201
 BASOPT|        2     |       2     | 0.11799106E-01 | 0.14209055E+04 |  161.726
 BASOPT|        2     |       3     | 0.12855202E-01 | 0.26912796E+03 |  133.797
 BASOPT|        3     |       1     | 0.30337903E-02 | 0.62681955E+04 |  161.864
 BASOPT|        3     |       2     | 0.44134666E-02 | 0.85681148E+03 |  115.856
 BASOPT|        3     |       3     | 0.54831405E-02 | 0.21908548E+03 |   95.753
 BASOPT|        4     |       1     | 0.19348885E-02 | 0.15553384E+03 |   19.145
 BASOPT|        4     |       2     | 0.31068941E-02 | 0.68266236E+02 |   16.032
 BASOPT|        4     |       3     | 0.31895476E-02 | 0.36474322E+02 |   12.738
 BASOPT|        5     |       1     | 0.12830448E-02 | 0.21902851E+03 |   11.444
 BASOPT|        5     |       2     | 0.15744619E-02 | 0.19051391E+03 |    9.514
 BASOPT|        5     |       3     | 0.15986253E-02 | 0.38219538E+02 |    8.525
 BASOPT|        6     |       1     | 0.16562621E-02 | 0.61109417E+02 |   19.578
 BASOPT|        6     |       2     | 0.32446080E-02 | 0.57381629E+02 |   16.454
 BASOPT|        6     |       3     | 0.34947184E-02 | 0.18001999E+02 |   14.389
 BASOPT| -----------------------------------------------------------------------
 BASOPT| Total residuum value: -.14619626E+04

 BASOPT| Information at iteration number:    1800
 BASOPT| Training set | Combination | Rho difference | Condition num. | Time
 BASOPT| -----------------------------------------------------------------------
 BASOPT|        1     |       1     | 0.31549323E-02 | 0.32085368E+03 |   19.346
 BASOPT|        1     |       2     | 0.33564129E-02 | 0.75467495E+02 |   16.261
 BASOPT|        1     |       3     | 0.34388566E-02 | 0.33355068E+02 |   13.720
 BASOPT|        2     |       1     | 0.63013789E-02 | 0.27245085E+04 |  268.077
 BASOPT|        2     |       2     | 0.11798706E-01 | 0.14218968E+04 |  171.229
 BASOPT|        2     |       3     | 0.12863110E-01 | 0.26940804E+03 |  141.675
 BASOPT|        3     |       1     | 0.30331064E-02 | 0.62741525E+04 |  171.385
 BASOPT|        3     |       2     | 0.44125869E-02 | 0.85779920E+03 |  122.667
 BASOPT|        3     |       3     | 0.54883146E-02 | 0.21716591E+03 |  101.387
 BASOPT|        4     |       1     | 0.19353201E-02 | 0.15516948E+03 |   20.271
 BASOPT|        4     |       2     | 0.31071254E-02 | 0.67404331E+02 |   16.971
 BASOPT|        4     |       3     | 0.31910367E-02 | 0.36338891E+02 |   13.484
 BASOPT|        5     |       1     | 0.12823503E-02 | 0.21876130E+03 |   12.117
 BASOPT|        5     |       2     | 0.15746585E-02 | 0.19028852E+03 |   10.072
 BASOPT|        5     |       3     | 0.16027037E-02 | 0.38210255E+02 |    9.024
 BASOPT|        6     |       1     | 0.16549127E-02 | 0.60115296E+02 |   20.725
 BASOPT|        6     |       2     | 0.32435202E-02 | 0.56365088E+02 |   17.422
 BASOPT|        6     |       3     | 0.34889082E-02 | 0.17910925E+02 |   15.235
 BASOPT| -----------------------------------------------------------------------
 BASOPT| Total residuum value: -.14619631E+04

 BASOPT| Information at iteration number:    1900
 BASOPT| Training set | Combination | Rho difference | Condition num. | Time
 BASOPT| -----------------------------------------------------------------------
 BASOPT|        1     |       1     | 0.31554976E-02 | 0.32015812E+03 |   20.416
 BASOPT|        1     |       2     | 0.33573118E-02 | 0.73166052E+02 |   17.164
 BASOPT|        1     |       3     | 0.34426466E-02 | 0.33882346E+02 |   14.481
 BASOPT|        2     |       1     | 0.62896932E-02 | 0.27085973E+04 |  282.957
 BASOPT|        2     |       2     | 0.11791024E-01 | 0.14365176E+04 |  180.738
 BASOPT|        2     |       3     | 0.12845457E-01 | 0.26855444E+03 |  149.542
 BASOPT|        3     |       1     | 0.30333206E-02 | 0.63390467E+04 |  180.896
 BASOPT|        3     |       2     | 0.44123575E-02 | 0.85986241E+03 |  129.482
 BASOPT|        3     |       3     | 0.54815568E-02 | 0.22061780E+03 |  107.025
 BASOPT|        4     |       1     | 0.19346788E-02 | 0.15408808E+03 |   21.398
 BASOPT|        4     |       2     | 0.31071967E-02 | 0.65928304E+02 |   17.916
 BASOPT|        4     |       3     | 0.31900515E-02 | 0.36625433E+02 |   14.231
 BASOPT|        5     |       1     | 0.12820355E-02 | 0.21818213E+03 |   12.790
 BASOPT|        5     |       2     | 0.15748203E-02 | 0.18965474E+03 |   10.631
 BASOPT|        5     |       3     | 0.15980599E-02 | 0.38154986E+02 |    9.524
 BASOPT|        6     |       1     | 0.16562963E-02 | 0.58329372E+02 |   21.872
 BASOPT|        6     |       2     | 0.32450656E-02 | 0.54653005E+02 |   18.389
 BASOPT|        6     |       3     | 0.34950364E-02 | 0.18010535E+02 |   16.080
 BASOPT| -----------------------------------------------------------------------
 BASOPT| Total residuum value: -.14619643E+04

 BASOPT| Information at iteration number:    2000
 BASOPT| Training set | Combination | Rho difference | Condition num. | Time
 BASOPT| -----------------------------------------------------------------------
 BASOPT|        1     |       1     | 0.31534714E-02 | 0.31884211E+03 |   21.494
 BASOPT|        1     |       2     | 0.33621951E-02 | 0.70030534E+02 |   18.066
 BASOPT|        1     |       3     | 0.34547676E-02 | 0.33297391E+02 |   15.242
 BASOPT|        2     |       1     | 0.62892919E-02 | 0.26986703E+04 |  297.832
 BASOPT|        2     |       2     | 0.11786246E-01 | 0.14476283E+04 |  190.251
 BASOPT|        2     |       3     | 0.12827682E-01 | 0.26762695E+03 |  157.411
 BASOPT|        3     |       1     | 0.30333611E-02 | 0.63884076E+04 |  190.439
 BASOPT|        3     |       2     | 0.44135585E-02 | 0.85556013E+03 |  136.291
 BASOPT|        3     |       3     | 0.54960375E-02 | 0.21764796E+03 |  112.653
 BASOPT|        4     |       1     | 0.19348151E-02 | 0.15289492E+03 |   22.526
 BASOPT|        4     |       2     | 0.31087250E-02 | 0.64048262E+02 |   18.859
 BASOPT|        4     |       3     | 0.31951207E-02 | 0.36319060E+02 |   14.981
 BASOPT|        5     |       1     | 0.12817001E-02 | 0.21764744E+03 |   13.464
 BASOPT|        5     |       2     | 0.15712560E-02 | 0.18909289E+03 |   11.190
 BASOPT|        5     |       3     | 0.15978042E-02 | 0.38144450E+02 |   10.025
 BASOPT|        6     |       1     | 0.16569699E-02 | 0.56786468E+02 |   23.026
 BASOPT|        6     |       2     | 0.32494222E-02 | 0.52981167E+02 |   19.357
 BASOPT|        6     |       3     | 0.35022865E-02 | 0.17902563E+02 |   16.928
 BASOPT| -----------------------------------------------------------------------
 BASOPT| Total residuum value: -.14619652E+04

 BASOPT| Information at iteration number:    2100
 BASOPT| Training set | Combination | Rho difference | Condition num. | Time
 BASOPT| -----------------------------------------------------------------------
 BASOPT|        1     |       1     | 0.31502903E-02 | 0.32013579E+03 |   22.569
 BASOPT|        1     |       2     | 0.33602406E-02 | 0.68932757E+02 |   18.970
 BASOPT|        1     |       3     | 0.34476879E-02 | 0.33553523E+02 |   16.004
 BASOPT|        2     |       1     | 0.62934262E-02 | 0.26954039E+04 |  312.709
 BASOPT|        2     |       2     | 0.11789341E-01 | 0.14576627E+04 |  199.781
 BASOPT|        2     |       3     | 0.12832878E-01 | 0.26756572E+03 |  165.289
 BASOPT|        3     |       1     | 0.30317856E-02 | 0.64295768E+04 |  199.979
 BASOPT|        3     |       2     | 0.44132440E-02 | 0.85681727E+03 |  143.101
 BASOPT|        3     |       3     | 0.54862799E-02 | 0.21945886E+03 |  118.286
 BASOPT|        4     |       1     | 0.19341875E-02 | 0.15257993E+03 |   23.652
 BASOPT|        4     |       2     | 0.31079598E-02 | 0.63367742E+02 |   19.798
 BASOPT|        4     |       3     | 0.31918103E-02 | 0.36454565E+02 |   15.733
 BASOPT|        5     |       1     | 0.12817724E-02 | 0.21748578E+03 |   14.138
 BASOPT|        5     |       2     | 0.15716692E-02 | 0.18889514E+03 |   11.747
 BASOPT|        5     |       3     | 0.15950162E-02 | 0.38176504E+02 |   10.525
 BASOPT|        6     |       1     | 0.16565790E-02 | 0.55989915E+02 |   24.179
 BASOPT|        6     |       2     | 0.32493208E-02 | 0.52170924E+02 |   20.324
 BASOPT|        6     |       3     | 0.35055063E-02 | 0.17963931E+02 |   17.774
 BASOPT| -----------------------------------------------------------------------
 BASOPT| Total residuum value: -.14619660E+04

 BASOPT| Information at iteration number:    2200
 BASOPT| Training set | Combination | Rho difference | Condition num. | Time
 BASOPT| -----------------------------------------------------------------------
 BASOPT|        1     |       1     | 0.31521273E-02 | 0.32093220E+03 |   23.639
 BASOPT|        1     |       2     | 0.33582225E-02 | 0.67781689E+02 |   19.872
 BASOPT|        1     |       3     | 0.34499889E-02 | 0.34249896E+02 |   16.766
 BASOPT|        2     |       1     | 0.62926905E-02 | 0.26872511E+04 |  327.584
 BASOPT|        2     |       2     | 0.11792544E-01 | 0.14692267E+04 |  209.296
 BASOPT|        2     |       3     | 0.12832131E-01 | 0.26803691E+03 |  173.146
 BASOPT|        3     |       1     | 0.30317139E-02 | 0.64676560E+04 |  209.491
 BASOPT|        3     |       2     | 0.44129481E-02 | 0.86102504E+03 |  149.914
 BASOPT|        3     |       3     | 0.54765069E-02 | 0.22389791E+03 |  123.919
 BASOPT|        4     |       1     | 0.19344888E-02 | 0.15214540E+03 |   24.779
 BASOPT|        4     |       2     | 0.31075408E-02 | 0.62623127E+02 |   20.737
 BASOPT|        4     |       3     | 0.31921474E-02 | 0.36830542E+02 |   16.482
 BASOPT|        5     |       1     | 0.12817602E-02 | 0.21721115E+03 |   14.810
 BASOPT|        5     |       2     | 0.15734704E-02 | 0.18858367E+03 |   12.308
 BASOPT|        5     |       3     | 0.15939235E-02 | 0.38163832E+02 |   11.026
 BASOPT|        6     |       1     | 0.16551676E-02 | 0.54982266E+02 |   25.328
 BASOPT|        6     |       2     | 0.32461835E-02 | 0.51133855E+02 |   21.290
 BASOPT|        6     |       3     | 0.34986829E-02 | 0.18088533E+02 |   18.620
 BASOPT| -----------------------------------------------------------------------
 BASOPT| Total residuum value: -.14619665E+04

 BASOPT| Information at iteration number:    2300
 BASOPT| Training set | Combination | Rho difference | Condition num. | Time
 BASOPT| -----------------------------------------------------------------------
 BASOPT|        1     |       1     | 0.31485463E-02 | 0.32116395E+03 |   24.710
 BASOPT|        1     |       2     | 0.33472994E-02 | 0.64587765E+02 |   20.774
 BASOPT|        1     |       3     | 0.34379970E-02 | 0.34215258E+02 |   17.527
 BASOPT|        2     |       1     | 0.62958127E-02 | 0.26785627E+04 |  342.462
 BASOPT|        2     |       2     | 0.11807841E-01 | 0.14769802E+04 |  218.794
 BASOPT|        2     |       3     | 0.12860047E-01 | 0.26934588E+03 |  181.026
 BASOPT|        3     |       1     | 0.30319493E-02 | 0.64843680E+04 |  219.014
 BASOPT|        3     |       2     | 0.44101649E-02 | 0.86785297E+03 |  156.724
 BASOPT|        3     |       3     | 0.54803942E-02 | 0.22318065E+03 |  129.555
 BASOPT|        4     |       1     | 0.19345618E-02 | 0.15168264E+03 |   25.906
 BASOPT|        4     |       2     | 0.31043706E-02 | 0.60527390E+02 |   21.685
 BASOPT|        4     |       3     | 0.31887230E-02 | 0.36869673E+02 |   17.234
 BASOPT|        5     |       1     | 0.12816821E-02 | 0.21617790E+03 |   15.484
 BASOPT|        5     |       2     | 0.15771505E-02 | 0.18764381E+03 |   12.868
 BASOPT|        5     |       3     | 0.15993928E-02 | 0.38021269E+02 |   11.527
 BASOPT|        6     |       1     | 0.16522285E-02 | 0.51009929E+02 |   26.479
 BASOPT|        6     |       2     | 0.32411688E-02 | 0.46934016E+02 |   22.258
 BASOPT|        6     |       3     | 0.34905735E-02 | 0.17972535E+02 |   19.466
 BASOPT| -----------------------------------------------------------------------
 BASOPT| Total residuum value: -.14619687E+04

 BASOPT| Information at iteration number:    2400
 BASOPT| Training set | Combination | Rho difference | Condition num. | Time
 BASOPT| -----------------------------------------------------------------------
 BASOPT|        1     |       1     | 0.31448122E-02 | 0.32080698E+03 |   25.783
 BASOPT|        1     |       2     | 0.33468114E-02 | 0.63412361E+02 |   21.677
 BASOPT|        1     |       3     | 0.34356352E-02 | 0.33782605E+02 |   18.288
 BASOPT|        2     |       1     | 0.62959550E-02 | 0.26759158E+04 |  357.338
 BASOPT|        2     |       2     | 0.11806517E-01 | 0.14746318E+04 |  228.292
 BASOPT|        2     |       3     | 0.12863132E-01 | 0.26885866E+03 |  188.887
 BASOPT|        3     |       1     | 0.30319788E-02 | 0.64677379E+04 |  228.532
 BASOPT|        3     |       2     | 0.44101876E-02 | 0.86470164E+03 |  163.538
 BASOPT|        3     |       3     | 0.54842081E-02 | 0.22061979E+03 |  135.186
 BASOPT|        4     |       1     | 0.19339430E-02 | 0.15164924E+03 |   27.033
 BASOPT|        4     |       2     | 0.31040219E-02 | 0.59743125E+02 |   22.623
 BASOPT|        4     |       3     | 0.31881829E-02 | 0.36651685E+02 |   17.981
 BASOPT|        5     |       1     | 0.12817602E-02 | 0.21581210E+03 |   16.157
 BASOPT|        5     |       2     | 0.15758053E-02 | 0.18728292E+03 |   13.429
 BASOPT|        5     |       3     | 0.15998651E-02 | 0.37914820E+02 |   12.028
 BASOPT|        6     |       1     | 0.16521705E-02 | 0.49671311E+02 |   27.628
 BASOPT|        6     |       2     | 0.32430203E-02 | 0.45346121E+02 |   23.225
 BASOPT|        6     |       3     | 0.34945691E-02 | 0.17870787E+02 |   20.312
 BASOPT| -----------------------------------------------------------------------
 BASOPT| Total residuum value: -.14619697E+04

 BASOPT| Information at iteration number:    2500
 BASOPT| Training set | Combination | Rho difference | Condition num. | Time
 BASOPT| -----------------------------------------------------------------------
 BASOPT|        1     |       1     | 0.31433424E-02 | 0.32120209E+03 |   26.855
 BASOPT|        1     |       2     | 0.33476655E-02 | 0.62461158E+02 |   22.581
 BASOPT|        1     |       3     | 0.34374961E-02 | 0.33758972E+02 |   19.048
 BASOPT|        2     |       1     | 0.62987670E-02 | 0.26715946E+04 |  372.217
 BASOPT|        2     |       2     | 0.11807941E-01 | 0.14772790E+04 |  237.793
 BASOPT|        2     |       3     | 0.12861997E-01 | 0.26870402E+03 |  196.753
 BASOPT|        3     |       1     | 0.30310476E-02 | 0.64672221E+04 |  238.062
 BASOPT|        3     |       2     | 0.44108434E-02 | 0.86301491E+03 |  170.349
 BASOPT|        3     |       3     | 0.54836579E-02 | 0.22076073E+03 |  140.816
 BASOPT|        4     |       1     | 0.19339470E-02 | 0.15158865E+03 |   28.159
 BASOPT|        4     |       2     | 0.31043859E-02 | 0.59151181E+02 |   23.569
 BASOPT|        4     |       3     | 0.31882794E-02 | 0.36641253E+02 |   18.727
 BASOPT|        5     |       1     | 0.12815433E-02 | 0.21557624E+03 |   16.830
 BASOPT|        5     |       2     | 0.15749146E-02 | 0.18702123E+03 |   13.988
 BASOPT|        5     |       3     | 0.15979164E-02 | 0.37858025E+02 |   12.528
 BASOPT|        6     |       1     | 0.16500053E-02 | 0.48698994E+02 |   28.776
 BASOPT|        6     |       2     | 0.32423920E-02 | 0.44147966E+02 |   24.193
 BASOPT|        6     |       3     | 0.34971972E-02 | 0.17865067E+02 |   21.157
 BASOPT| -----------------------------------------------------------------------
 BASOPT| Total residuum value: -.14619703E+04

 BASOPT| Information at iteration number:    2600
 BASOPT| Training set | Combination | Rho difference | Condition num. | Time
 BASOPT| -----------------------------------------------------------------------
 BASOPT|        1     |       1     | 0.31377460E-02 | 0.32237289E+03 |   27.935
 BASOPT|        1     |       2     | 0.33474031E-02 | 0.60271269E+02 |   23.485
 BASOPT|        1     |       3     | 0.34387923E-02 | 0.33734463E+02 |   19.809
 BASOPT|        2     |       1     | 0.63081865E-02 | 0.26628240E+04 |  387.095
 BASOPT|        2     |       2     | 0.11813555E-01 | 0.14863464E+04 |  247.331
 BASOPT|        2     |       3     | 0.12871286E-01 | 0.26759294E+03 |  204.631
 BASOPT|        3     |       1     | 0.30318903E-02 | 0.64748021E+04 |  247.602
 BASOPT|        3     |       2     | 0.44126625E-02 | 0.85905913E+03 |  177.155
 BASOPT|        3     |       3     | 0.54761814E-02 | 0.22133563E+03 |  146.446
 BASOPT|        4     |       1     | 0.19334824E-02 | 0.15131234E+03 |   29.287
 BASOPT|        4     |       2     | 0.31041720E-02 | 0.57889089E+02 |   24.510
 BASOPT|        4     |       3     | 0.31885297E-02 | 0.36637301E+02 |   19.475
 BASOPT|        5     |       1     | 0.12820184E-02 | 0.21485140E+03 |   17.504
 BASOPT|        5     |       2     | 0.15727794E-02 | 0.18619561E+03 |   14.546
 BASOPT|        5     |       3     | 0.15950899E-02 | 0.37717882E+02 |   13.028
 BASOPT|        6     |       1     | 0.16483934E-02 | 0.46610602E+02 |   29.932
 BASOPT|        6     |       2     | 0.32436262E-02 | 0.41466460E+02 |   25.160
 BASOPT|        6     |       3     | 0.34988539E-02 | 0.17860649E+02 |   22.004
 BASOPT| -----------------------------------------------------------------------
 BASOPT| Total residuum value: -.14619717E+04

 BASOPT| Information at iteration number:    2700
 BASOPT| Training set | Combination | Rho difference | Condition num. | Time
 BASOPT| -----------------------------------------------------------------------
 BASOPT|        1     |       1     | 0.31398045E-02 | 0.31931478E+03 |   29.009
 BASOPT|        1     |       2     | 0.33515704E-02 | 0.59222987E+02 |   24.387
 BASOPT|        1     |       3     | 0.34470904E-02 | 0.33195671E+02 |   20.570
 BASOPT|        2     |       1     | 0.63002068E-02 | 0.26735348E+04 |  401.974
 BASOPT|        2     |       2     | 0.11804763E-01 | 0.14784552E+04 |  256.829
 BASOPT|        2     |       3     | 0.12850889E-01 | 0.26907269E+03 |  212.491
 BASOPT|        3     |       1     | 0.30322120E-02 | 0.64601607E+04 |  257.119
 BASOPT|        3     |       2     | 0.44129692E-02 | 0.85535911E+03 |  183.965
 BASOPT|        3     |       3     | 0.54950860E-02 | 0.21840635E+03 |  152.076
 BASOPT|        4     |       1     | 0.19343106E-02 | 0.15087188E+03 |   30.415
 BASOPT|        4     |       2     | 0.31058337E-02 | 0.57188213E+02 |   25.448
 BASOPT|        4     |       3     | 0.31931053E-02 | 0.36386937E+02 |   20.221
 BASOPT|        5     |       1     | 0.12812191E-02 | 0.21439239E+03 |   18.177
 BASOPT|        5     |       2     | 0.15706835E-02 | 0.18571812E+03 |   15.106
 BASOPT|        5     |       3     | 0.15967583E-02 | 0.37648193E+02 |   13.529
 BASOPT|        6     |       1     | 0.16491960E-02 | 0.46090015E+02 |   31.082
 BASOPT|        6     |       2     | 0.32458973E-02 | 0.40289328E+02 |   26.128
 BASOPT|        6     |       3     | 0.35027693E-02 | 0.17705196E+02 |   22.852
 BASOPT| -----------------------------------------------------------------------
 BASOPT| Total residuum value: -.14619730E+04

 BASOPT| Information at iteration number:    2800
 BASOPT| Training set | Combination | Rho difference | Condition num. | Time
 BASOPT| -----------------------------------------------------------------------
 BASOPT|        1     |       1     | 0.31375471E-02 | 0.32090691E+03 |   30.082
 BASOPT|        1     |       2     | 0.33494608E-02 | 0.58401142E+02 |   25.290
 BASOPT|        1     |       3     | 0.34410951E-02 | 0.33492249E+02 |   21.331
 BASOPT|        2     |       1     | 0.63022668E-02 | 0.26762585E+04 |  416.850
 BASOPT|        2     |       2     | 0.11808505E-01 | 0.14874685E+04 |  266.328
 BASOPT|        2     |       3     | 0.12870009E-01 | 0.26766791E+03 |  220.359
 BASOPT|        3     |       1     | 0.30314189E-02 | 0.64849383E+04 |  266.644
 BASOPT|        3     |       2     | 0.44127495E-02 | 0.85704051E+03 |  190.775
 BASOPT|        3     |       3     | 0.54818248E-02 | 0.22031401E+03 |  157.706
 BASOPT|        4     |       1     | 0.19341121E-02 | 0.15083270E+03 |   31.542
 BASOPT|        4     |       2     | 0.31052086E-02 | 0.56807269E+02 |   26.389
 BASOPT|        4     |       3     | 0.31896063E-02 | 0.36546829E+02 |   20.968
 BASOPT|        5     |       1     | 0.12810788E-02 | 0.21403123E+03 |   18.850
 BASOPT|        5     |       2     | 0.15710216E-02 | 0.18526759E+03 |   15.666
 BASOPT|        5     |       3     | 0.15943305E-02 | 0.37646255E+02 |   14.030
 BASOPT|        6     |       1     | 0.16479591E-02 | 0.44933916E+02 |   32.234
 BASOPT|        6     |       2     | 0.32450420E-02 | 0.38753592E+02 |   27.095
 BASOPT|        6     |       3     | 0.35028776E-02 | 0.17769126E+02 |   23.698
 BASOPT| -----------------------------------------------------------------------
 BASOPT| Total residuum value: -.14619740E+04

 BASOPT| Information at iteration number:    2900
 BASOPT| Training set | Combination | Rho difference | Condition num. | Time
 BASOPT| -----------------------------------------------------------------------
 BASOPT|        1     |       1     | 0.31402329E-02 | 0.31990694E+03 |   31.155
 BASOPT|        1     |       2     | 0.33500157E-02 | 0.57941979E+02 |   26.193
 BASOPT|        1     |       3     | 0.34439421E-02 | 0.33759731E+02 |   22.091
 BASOPT|        2     |       1     | 0.62945674E-02 | 0.26859062E+04 |  431.728
 BASOPT|        2     |       2     | 0.11802491E-01 | 0.14889745E+04 |  275.822
 BASOPT|        2     |       3     | 0.12864941E-01 | 0.26806310E+03 |  228.221
 BASOPT|        3     |       1     | 0.30319931E-02 | 0.64908339E+04 |  276.167
 BASOPT|        3     |       2     | 0.44121514E-02 | 0.85830774E+03 |  197.587
 BASOPT|        3     |       3     | 0.54776523E-02 | 0.22219322E+03 |  163.336
 BASOPT|        4     |       1     | 0.19345001E-02 | 0.15053399E+03 |   32.669
 BASOPT|        4     |       2     | 0.31055773E-02 | 0.56568626E+02 |   27.334
 BASOPT|        4     |       3     | 0.31909777E-02 | 0.36698007E+02 |   21.714
 BASOPT|        5     |       1     | 0.12809365E-02 | 0.21397187E+03 |   19.524
 BASOPT|        5     |       2     | 0.15712155E-02 | 0.18514401E+03 |   16.226
 BASOPT|        5     |       3     | 0.15941209E-02 | 0.37699996E+02 |   14.530
 BASOPT|        6     |       1     | 0.16493556E-02 | 0.44758506E+02 |   33.384
 BASOPT|        6     |       2     | 0.32453784E-02 | 0.38318028E+02 |   28.062
 BASOPT|        6     |       3     | 0.34986011E-02 | 0.17813446E+02 |   24.543
 BASOPT| -----------------------------------------------------------------------
 BASOPT| Total residuum value: -.14619749E+04

 BASOPT| Information at iteration number:    3000
 BASOPT| Training set | Combination | Rho difference | Condition num. | Time
 BASOPT| -----------------------------------------------------------------------
 BASOPT|        1     |       1     | 0.31393880E-02 | 0.31746968E+03 |   32.226
 BASOPT|        1     |       2     | 0.33449241E-02 | 0.57243037E+02 |   27.095
 BASOPT|        1     |       3     | 0.34418179E-02 | 0.34248342E+02 |   22.851
 BASOPT|        2     |       1     | 0.62870460E-02 | 0.27091908E+04 |  446.607
 BASOPT|        2     |       2     | 0.11799755E-01 | 0.14896590E+04 |  285.320
 BASOPT|        2     |       3     | 0.12860250E-01 | 0.26931310E+03 |  236.083
 BASOPT|        3     |       1     | 0.30323087E-02 | 0.65116002E+04 |  285.698
 BASOPT|        3     |       2     | 0.44098175E-02 | 0.86163863E+03 |  204.397
 BASOPT|        3     |       3     | 0.54739310E-02 | 0.22558610E+03 |  168.965
 BASOPT|        4     |       1     | 0.19345889E-02 | 0.14993581E+03 |   33.796
 BASOPT|        4     |       2     | 0.31041261E-02 | 0.56198024E+02 |   28.273
 BASOPT|        4     |       3     | 0.31898491E-02 | 0.36974198E+02 |   22.460
 BASOPT|        5     |       1     | 0.12806357E-02 | 0.21393564E+03 |   20.196
 BASOPT|        5     |       2     | 0.15728898E-02 | 0.18500205E+03 |   16.786
 BASOPT|        5     |       3     | 0.15939060E-02 | 0.37874295E+02 |   15.030
 BASOPT|        6     |       1     | 0.16533002E-02 | 0.44609590E+02 |   34.534
 BASOPT|        6     |       2     | 0.32469531E-02 | 0.37676379E+02 |   29.029
 BASOPT|        6     |       3     | 0.34982114E-02 | 0.17887652E+02 |   25.389
 BASOPT| -----------------------------------------------------------------------
 BASOPT| Total residuum value: -.14619763E+04

 BASOPT| Information at iteration number:    3100
 BASOPT| Training set | Combination | Rho difference | Condition num. | Time
 BASOPT| -----------------------------------------------------------------------
 BASOPT|        1     |       1     | 0.31410088E-02 | 0.31416151E+03 |   33.296
 BASOPT|        1     |       2     | 0.33490031E-02 | 0.55932621E+02 |   27.997
 BASOPT|        1     |       3     | 0.34474283E-02 | 0.34606246E+02 |   23.611
 BASOPT|        2     |       1     | 0.62843121E-02 | 0.27217067E+04 |  461.486
 BASOPT|        2     |       2     | 0.11795360E-01 | 0.14896861E+04 |  294.818
 BASOPT|        2     |       3     | 0.12863659E-01 | 0.26813435E+03 |  243.944
 BASOPT|        3     |       1     | 0.30340077E-02 | 0.64931639E+04 |  295.214
 BASOPT|        3     |       2     | 0.44114154E-02 | 0.85789527E+03 |  211.209
 BASOPT|        3     |       3     | 0.54620167E-02 | 0.22905731E+03 |  174.595
 BASOPT|        4     |       1     | 0.19360102E-02 | 0.14929450E+03 |   34.923
 BASOPT|        4     |       2     | 0.31060147E-02 | 0.55486302E+02 |   29.211
 BASOPT|        4     |       3     | 0.31909819E-02 | 0.37151129E+02 |   23.207
 BASOPT|        5     |       1     | 0.12801082E-02 | 0.21399520E+03 |   20.868
 BASOPT|        5     |       2     | 0.15702885E-02 | 0.18485433E+03 |   17.346
 BASOPT|        5     |       3     | 0.15881310E-02 | 0.38105879E+02 |   15.530
 BASOPT|        6     |       1     | 0.16534499E-02 | 0.44309168E+02 |   35.684
 BASOPT|        6     |       2     | 0.32488035E-02 | 0.36655757E+02 |   29.996
 BASOPT|        6     |       3     | 0.35004850E-02 | 0.17994247E+02 |   26.234
 BASOPT| -----------------------------------------------------------------------
 BASOPT| Total residuum value: -.14619780E+04

 BASOPT| Information at iteration number:    3200
 BASOPT| Training set | Combination | Rho difference | Condition num. | Time
 BASOPT| -----------------------------------------------------------------------
 BASOPT|        1     |       1     | 0.31410376E-02 | 0.31256496E+03 |   34.367
 BASOPT|        1     |       2     | 0.33516644E-02 | 0.55617280E+02 |   28.899
 BASOPT|        1     |       3     | 0.34516727E-02 | 0.34451499E+02 |   24.371
 BASOPT|        2     |       1     | 0.62821114E-02 | 0.27287678E+04 |  476.364
 BASOPT|        2     |       2     | 0.11790178E-01 | 0.14844042E+04 |  304.394
 BASOPT|        2     |       3     | 0.12857313E-01 | 0.26825562E+03 |  251.804
 BASOPT|        3     |       1     | 0.30352267E-02 | 0.64688146E+04 |  304.741
 BASOPT|        3     |       2     | 0.44122238E-02 | 0.85445715E+03 |  218.019
 BASOPT|        3     |       3     | 0.54629369E-02 | 0.22860686E+03 |  180.224
 BASOPT|        4     |       1     | 0.19361585E-02 | 0.14913427E+03 |   36.050
 BASOPT|        4     |       2     | 0.31068700E-02 | 0.55259062E+02 |   30.149
 BASOPT|        4     |       3     | 0.31929197E-02 | 0.37075582E+02 |   23.955
 BASOPT|        5     |       1     | 0.12801696E-02 | 0.21394943E+03 |   21.541
 BASOPT|        5     |       2     | 0.15685447E-02 | 0.18476035E+03 |   17.906
 BASOPT|        5     |       3     | 0.15870890E-02 | 0.38104588E+02 |   16.031
 BASOPT|        6     |       1     | 0.16548316E-02 | 0.44312959E+02 |   36.834
 BASOPT|        6     |       2     | 0.32513440E-02 | 0.36415322E+02 |   30.963
 BASOPT|        6     |       3     | 0.35020810E-02 | 0.17964218E+02 |   27.080
 BASOPT| -----------------------------------------------------------------------
 BASOPT| Total residuum value: -.14619784E+04

 BASOPT| Information at iteration number:    3300
 BASOPT| Training set | Combination | Rho difference | Condition num. | Time
 BASOPT| -----------------------------------------------------------------------
 BASOPT|        1     |       1     | 0.31416429E-02 | 0.31140228E+03 |   35.440
 BASOPT|        1     |       2     | 0.33550242E-02 | 0.54764089E+02 |   29.802
 BASOPT|        1     |       3     | 0.34562818E-02 | 0.34594869E+02 |   25.130
 BASOPT|        2     |       1     | 0.62790077E-02 | 0.27352480E+04 |  491.243
 BASOPT|        2     |       2     | 0.11784961E-01 | 0.14870430E+04 |  313.887
 BASOPT|        2     |       3     | 0.12852431E-01 | 0.26751594E+03 |  259.666
 BASOPT|        3     |       1     | 0.30349576E-02 | 0.64669735E+04 |  314.257
 BASOPT|        3     |       2     | 0.44129043E-02 | 0.85229394E+03 |  224.830
 BASOPT|        3     |       3     | 0.54587198E-02 | 0.23019790E+03 |  185.853
 BASOPT|        4     |       1     | 0.19366352E-02 | 0.14876040E+03 |   37.177
 BASOPT|        4     |       2     | 0.31081900E-02 | 0.54844274E+02 |   31.087
 BASOPT|        4     |       3     | 0.31939349E-02 | 0.37152115E+02 |   24.701
 BASOPT|        5     |       1     | 0.12797430E-02 | 0.21380012E+03 |   22.212
 BASOPT|        5     |       2     | 0.15668944E-02 | 0.18447882E+03 |   18.466
 BASOPT|        5     |       3     | 0.15838469E-02 | 0.38172261E+02 |   16.531
 BASOPT|        6     |       1     | 0.16550251E-02 | 0.43971036E+02 |   37.985
 BASOPT|        6     |       2     | 0.32529460E-02 | 0.35746343E+02 |   31.930
 BASOPT|        6     |       3     | 0.35055227E-02 | 0.18006397E+02 |   27.925
 BASOPT| -----------------------------------------------------------------------
 BASOPT| Total residuum value: -.14619793E+04

 BASOPT| Information at iteration number:    3400
 BASOPT| Training set | Combination | Rho difference | Condition num. | Time
 BASOPT| -----------------------------------------------------------------------
 BASOPT|        1     |       1     | 0.31415578E-02 | 0.30977793E+03 |   36.517
 BASOPT|        1     |       2     | 0.33528703E-02 | 0.54285918E+02 |   30.705
 BASOPT|        1     |       3     | 0.34564353E-02 | 0.34707919E+02 |   25.889
 BASOPT|        2     |       1     | 0.62743335E-02 | 0.27339180E+04 |  506.123
 BASOPT|        2     |       2     | 0.11783189E-01 | 0.14873430E+04 |  323.382
 BASOPT|        2     |       3     | 0.12850503E-01 | 0.26767122E+03 |  267.536
 BASOPT|        3     |       1     | 0.30352996E-02 | 0.64543028E+04 |  323.774
 BASOPT|        3     |       2     | 0.44116919E-02 | 0.85301160E+03 |  231.640
 BASOPT|        3     |       3     | 0.54593011E-02 | 0.23093815E+03 |  191.484
 BASOPT|        4     |       1     | 0.19366666E-02 | 0.14834222E+03 |   38.304
 BASOPT|        4     |       2     | 0.31075709E-02 | 0.54623512E+02 |   32.025
 BASOPT|        4     |       3     | 0.31944661E-02 | 0.37226086E+02 |   25.447
 BASOPT|        5     |       1     | 0.12795538E-02 | 0.21357389E+03 |   22.883
 BASOPT|        5     |       2     | 0.15674756E-02 | 0.18418985E+03 |   19.027
 BASOPT|        5     |       3     | 0.15849079E-02 | 0.38182868E+02 |   17.030
 BASOPT|        6     |       1     | 0.16560232E-02 | 0.43698651E+02 |   39.133
 BASOPT|        6     |       2     | 0.32532740E-02 | 0.35225883E+02 |   32.897
 BASOPT|        6     |       3     | 0.35028059E-02 | 0.18007293E+02 |   28.770
 BASOPT| -----------------------------------------------------------------------
 BASOPT| Total residuum value: -.14619800E+04

 BASOPT| Information at iteration number:    3500
 BASOPT| Training set | Combination | Rho difference | Condition num. | Time
 BASOPT| -----------------------------------------------------------------------
 BASOPT|        1     |       1     | 0.31406872E-02 | 0.30742413E+03 |   37.592
 BASOPT|        1     |       2     | 0.33530677E-02 | 0.53896195E+02 |   31.607
 BASOPT|        1     |       3     | 0.34553919E-02 | 0.34321424E+02 |   26.649
 BASOPT|        2     |       1     | 0.62719295E-02 | 0.27252731E+04 |  521.004
 BASOPT|        2     |       2     | 0.11782677E-01 | 0.14815346E+04 |  332.883
 BASOPT|        2     |       3     | 0.12852988E-01 | 0.26708109E+03 |  275.401
 BASOPT|        3     |       1     | 0.30376523E-02 | 0.64199643E+04 |  333.295
 BASOPT|        3     |       2     | 0.44121101E-02 | 0.85008242E+03 |  238.451
 BASOPT|        3     |       3     | 0.54662666E-02 | 0.22843892E+03 |  197.117
 BASOPT|        4     |       1     | 0.19368555E-02 | 0.14800766E+03 |   39.432
 BASOPT|        4     |       2     | 0.31076154E-02 | 0.54384235E+02 |   32.967
 BASOPT|        4     |       3     | 0.31948517E-02 | 0.37039722E+02 |   26.193
 BASOPT|        5     |       1     | 0.12795371E-02 | 0.21324249E+03 |   23.555
 BASOPT|        5     |       2     | 0.15663655E-02 | 0.18384150E+03 |   19.587
 BASOPT|        5     |       3     | 0.15858881E-02 | 0.38126150E+02 |   17.530
 BASOPT|        6     |       1     | 0.16568122E-02 | 0.43435171E+02 |   40.285
 BASOPT|        6     |       2     | 0.32551960E-02 | 0.34714013E+02 |   33.865
 BASOPT|        6     |       3     | 0.35050406E-02 | 0.17917219E+02 |   29.616
 BASOPT| -----------------------------------------------------------------------
 BASOPT| Total residuum value: -.14619805E+04

 BASOPT| Information at iteration number:    3600
 BASOPT| Training set | Combination | Rho difference | Condition num. | Time
 BASOPT| -----------------------------------------------------------------------
 BASOPT|        1     |       1     | 0.31432766E-02 | 0.30319305E+03 |   38.663
 BASOPT|        1     |       2     | 0.33570124E-02 | 0.53356390E+02 |   32.509
 BASOPT|        1     |       3     | 0.34583675E-02 | 0.33768332E+02 |   27.408
 BASOPT|        2     |       1     | 0.62660628E-02 | 0.27109499E+04 |  535.883
 BASOPT|        2     |       2     | 0.11781094E-01 | 0.14717026E+04 |  342.377
 BASOPT|        2     |       3     | 0.12849713E-01 | 0.26619078E+03 |  283.270
 BASOPT|        3     |       1     | 0.30383723E-02 | 0.63695098E+04 |  342.815
 BASOPT|        3     |       2     | 0.44127278E-02 | 0.84602065E+03 |  245.263
 BASOPT|        3     |       3     | 0.54825952E-02 | 0.22485388E+03 |  202.746
 BASOPT|        4     |       1     | 0.19383497E-02 | 0.14743702E+03 |   40.560
 BASOPT|        4     |       2     | 0.31094309E-02 | 0.54053172E+02 |   33.913
 BASOPT|        4     |       3     | 0.31963161E-02 | 0.36768908E+02 |   26.939
[...]
 BASOPT|        2     |       2     | 0.11750039E-01 | 0.14964428E+04 | 1653.093
 BASOPT|        2     |       3     | 0.12832407E-01 | 0.27759053E+03 | 1369.788
 BASOPT|        3     |       1     | 0.30483867E-02 | 0.60443513E+04 | 1656.214
 BASOPT|        3     |       2     | 0.44063713E-02 | 0.83499155E+03 | 1185.153
 BASOPT|        3     |       3     | 0.54775770E-02 | 0.23402663E+03 |  979.599
 BASOPT|        4     |       1     | 0.19443168E-02 | 0.14672170E+03 |  196.084
 BASOPT|        4     |       2     | 0.31108543E-02 | 0.52536318E+02 |  163.617
 BASOPT|        4     |       3     | 0.32011418E-02 | 0.37827882E+02 |  130.073
 BASOPT|        5     |       1     | 0.12655094E-02 | 0.20318012E+03 |  117.134
 BASOPT|        5     |       2     | 0.15613335E-02 | 0.17113982E+03 |   97.329
 BASOPT|        5     |       3     | 0.15788011E-02 | 0.35116717E+02 |   87.185
 BASOPT|        6     |       1     | 0.16477217E-02 | 0.38423328E+02 |  200.122
 BASOPT|        6     |       2     | 0.32632514E-02 | 0.23002405E+02 |  168.285
 BASOPT|        6     |       3     | 0.35125820E-02 | 0.17664546E+02 |  147.086
 BASOPT| -----------------------------------------------------------------------
 BASOPT| Total residuum value: -.14619935E+04

 BASOPT| Information at iteration number:   17500
 BASOPT| Training set | Combination | Rho difference | Condition num. | Time
 BASOPT| -----------------------------------------------------------------------
 BASOPT|        1     |       1     | 0.31474828E-02 | 0.29120425E+03 |  187.783
 BASOPT|        1     |       2     | 0.33539558E-02 | 0.50644683E+02 |  158.156
 BASOPT|        1     |       3     | 0.34712759E-02 | 0.34940053E+02 |  133.313
 BASOPT|        2     |       1     | 0.61219626E-02 | 0.26457092E+04 | 2604.133
 BASOPT|        2     |       2     | 0.11750040E-01 | 0.14964428E+04 | 1662.648
 BASOPT|        2     |       3     | 0.12832408E-01 | 0.27759056E+03 | 1377.680
 BASOPT|        3     |       1     | 0.30483866E-02 | 0.60443514E+04 | 1665.742
 BASOPT|        3     |       2     | 0.44063712E-02 | 0.83499157E+03 | 1191.962
 BASOPT|        3     |       3     | 0.54775764E-02 | 0.23402665E+03 |  985.227
 BASOPT|        4     |       1     | 0.19443168E-02 | 0.14672170E+03 |  197.210
 BASOPT|        4     |       2     | 0.31108543E-02 | 0.52536319E+02 |  164.556
 BASOPT|        4     |       3     | 0.32011419E-02 | 0.37827883E+02 |  130.820
 BASOPT|        5     |       1     | 0.12655094E-02 | 0.20318012E+03 |  117.806
 BASOPT|        5     |       2     | 0.15613335E-02 | 0.17113982E+03 |   97.886
 BASOPT|        5     |       3     | 0.15788014E-02 | 0.35116719E+02 |   87.686
 BASOPT|        6     |       1     | 0.16477216E-02 | 0.38423328E+02 |  201.276
 BASOPT|        6     |       2     | 0.32632514E-02 | 0.23002410E+02 |  169.252
 BASOPT|        6     |       3     | 0.35125809E-02 | 0.17664546E+02 |  147.930
 BASOPT| -----------------------------------------------------------------------
 BASOPT| Total residuum value: -.14619935E+04

 BASOPT| Information at iteration number:   17600
 BASOPT| Training set | Combination | Rho difference | Condition num. | Time
 BASOPT| -----------------------------------------------------------------------
 BASOPT|        1     |       1     | 0.31474828E-02 | 0.29120425E+03 |  188.852
 BASOPT|        1     |       2     | 0.33539558E-02 | 0.50644684E+02 |  159.059
 BASOPT|        1     |       3     | 0.34712758E-02 | 0.34940053E+02 |  134.075
 BASOPT|        2     |       1     | 0.61219626E-02 | 0.26457092E+04 | 2619.005
 BASOPT|        2     |       2     | 0.11750040E-01 | 0.14964428E+04 | 1672.141
 BASOPT|        2     |       3     | 0.12832408E-01 | 0.27759056E+03 | 1385.563
 BASOPT|        3     |       1     | 0.30483866E-02 | 0.60443514E+04 | 1675.247
 BASOPT|        3     |       2     | 0.44063712E-02 | 0.83499157E+03 | 1198.776
 BASOPT|        3     |       3     | 0.54775764E-02 | 0.23402665E+03 |  990.857
 BASOPT|        4     |       1     | 0.19443168E-02 | 0.14672170E+03 |  198.334
 BASOPT|        4     |       2     | 0.31108543E-02 | 0.52536319E+02 |  165.494
 BASOPT|        4     |       3     | 0.32011419E-02 | 0.37827883E+02 |  131.566
 BASOPT|        5     |       1     | 0.12655094E-02 | 0.20318012E+03 |  118.477
 BASOPT|        5     |       2     | 0.15613335E-02 | 0.17113982E+03 |   98.445
 BASOPT|        5     |       3     | 0.15788014E-02 | 0.35116719E+02 |   88.186
 BASOPT|        6     |       1     | 0.16477216E-02 | 0.38423328E+02 |  202.421
 BASOPT|        6     |       2     | 0.32632514E-02 | 0.23002410E+02 |  170.219
 BASOPT|        6     |       3     | 0.35125809E-02 | 0.17664546E+02 |  148.775
 BASOPT| -----------------------------------------------------------------------
 BASOPT| Total residuum value: -.14619935E+04


 -------------------------------------------------------------------------------
 -                                                                             -
 -                                DBCSR STATISTICS                             -
 -                                                                             -
 -------------------------------------------------------------------------------
 COUNTER                                    TOTAL       BLAS       SMM       ACC
 flops    68 x    68 x     4               110976       0.0%    100.0%      0.0%
 flops   104 x    68 x     4               169728       0.0%    100.0%      0.0%
 flops   104 x   104 x     4               259584       0.0%    100.0%      0.0%
 flops    68 x    68 x    13               360672       0.0%    100.0%      0.0%
 flops   116 x   104 x     7               506688       0.0%    100.0%      0.0%
 flops   104 x   104 x     8               519168       0.0%    100.0%      0.0%
 flops    68 x   104 x    13               551616       0.0%    100.0%      0.0%
 flops   104 x   112 x     8               559104       0.0%    100.0%      0.0%
 flops   116 x   116 x     7               565152       0.0%    100.0%      0.0%
 flops   112 x   112 x     8               602112       0.0%    100.0%      0.0%
 flops    68 x   116 x    13               615264       0.0%    100.0%      0.0%
 flops   104 x   116 x    13               940992       0.0%    100.0%      0.0%
 flops   104 x   104 x    16              1038336       0.0%    100.0%      0.0%
 flops   116 x   116 x    13              1049568       0.0%    100.0%      0.0%
 flops   104 x    68 x    13              1103232       0.0%    100.0%      0.0%
 flops   104 x   104 x     7              1817088       0.0%    100.0%      0.0%
 flops   116 x   104 x    13              1881984       0.0%    100.0%      0.0%
 flops   116 x   104 x    16              2316288       0.0%    100.0%      0.0%
 flops   104 x   116 x    16              2316288       0.0%    100.0%      0.0%
 flops   104 x   104 x    13              5061888       0.0%    100.0%      0.0%
 flops   116 x   116 x    16             12917760       0.0%    100.0%      0.0%
 flops inhomo. stacks                           0       0.0%      0.0%      0.0%
 flops total                        35.263488E+06       0.0%    100.0%      0.0%
 flops max/rank                      3.855072E+06       0.0%    100.0%      0.0%
 matmuls inhomo. stacks                         0       0.0%      0.0%      0.0%
 matmuls total                                126       0.0%    100.0%      0.0%
 number of processed stacks                    75       0.0%    100.0%      0.0%
 average stack size                                     0.0       1.7       0.0
 marketing flops                    56.960544E+06
 -------------------------------------------------------------------------------
 # multiplications                              1
 max memory usage/rank             301.821952E+06
 # max total images/rank                        2
 # max 3D layers                                1
 # MPI messages exchanged                      12
 MPI messages size (bytes):
  total size                       253.056000E+03
  min size                           0.000000E+00
  max size                          72.704000E+03
  average size                      21.088000E+03
 MPI breakdown and total messages size (bytes):
             size <=      128                   6                        0
       128 < size <=     8192                   0                        0
      8192 < size <=    32768                   3                    34944
     32768 < size <=   131072                   3                   218112
    131072 < size <=  4194304                   0                        0
   4194304 < size <= 16777216                   0                        0
  16777216 < size                               0                        0
 -------------------------------------------------------------------------------

 *** WARNING in dbcsr_mm.F:294 :: Using a non-square number of MPI ranks ***
 *** might lead to poor performance. Used ranks: 2 Suggested: 1 4        ***

 -------------------------------------------------------------------------------
 -                                                                             -
 -                      DBCSR MESSAGE PASSING PERFORMANCE                      -
 -                                                                             -
 -------------------------------------------------------------------------------
 ROUTINE             CALLS      AVE VOLUME [Bytes]
 MP_Bcast               22                     12.
 MP_Allreduce           68                     23.
 MP_Alltoall       1057221                  30711.
 MP_ISend                6                   1979.
 MP_IRecv                8                    756.
 -------------------------------------------------------------------------------

 -------------------------------------------------------------------------------
 -                                                                             -
 -                                GRID STATISTICS                              -
 -                                                                             -
 -------------------------------------------------------------------------------
 LP    KERNEL             BACKEND                              COUNT     PERCENT
 2     collocate ortho    REF                                   6234      15.22%
 2     integrate ortho    REF                                   6234      15.22%
 4     collocate ortho    REF                                   5952      14.53%
 4     integrate ortho    REF                                   5952      14.53%
 5     collocate ortho    REF                                   2955       7.22%
 5     integrate ortho    REF                                   2955       7.22%
 6     collocate ortho    REF                                   1965       4.80%
 6     integrate ortho    REF                                   1965       4.80%
 3     collocate ortho    REF                                    924       2.26%
 3     integrate ortho    REF                                    924       2.26%
 1     collocate ortho    REF                                    840       2.05%
 1     integrate ortho    REF                                    840       2.05%
 7     collocate ortho    REF                                    621       1.52%
 7     integrate ortho    REF                                    621       1.52%
 8     collocate ortho    REF                                    576       1.41%
 8     integrate ortho    REF                                    576       1.41%
 0     collocate ortho    REF                                    384       0.94%
 0     integrate ortho    REF                                    384       0.94%
 0     collocate general  REF                                     54       0.13%
 -------------------------------------------------------------------------------

 MEMORY| Estimated peak process memory [MiB]                                 630

 -------------------------------------------------------------------------------
 -                                                                             -
 -                         MESSAGE PASSING PERFORMANCE                         -
 -                                                                             -
 -------------------------------------------------------------------------------

 ROUTINE             CALLS      AVE VOLUME [Bytes]
 MP_Bcast            17669                   5144.
 MP_Allreduce       123705                    121.
 MP_Sync             17620
 MP_Alltoall            18               43538944.
 MP_ISendRecv            9                3051864.
 MP_Wait                 9
 MP_comm_split           1
 -------------------------------------------------------------------------------


 -------------------------------------------------------------------------------
 -                                                                             -
 -                           R E F E R E N C E S                               -
 -                                                                             -
 -------------------------------------------------------------------------------
 
 CP2K version 9.0 (Development Version), the CP2K developers group (2020).
 CP2K is freely available from https://www.cp2k.org/ .

 Kuehne,Thomas D.; Iannuzzi,Marcella; Del Ben,Mauro;
 Rybkin,Vladimir V.; Seewald,Patrick; Stein,Frederick; Laino,Teodoro;
 Khaliullin,Rustam Z.; Schuett,Ole; Schiffmann,Florian; Golze,Dorothea;
 Wilhelm,Jan; Chulkov,Sergey; Bani-Hashemian,Mohammad Hossein;
 Weber,Valery; Borstnik,Urban; Taillefumier,Mathieu;
 Jakobovits,Alice Shoshana; Lazzaro,Alfio; Pabst,Hans; Mueller,Tiziano;
 Schade,Robert; Guidon,Manuel; Andermatt,Samuel; Holmberg,Nico;
 Schenter,Gregory K.; Hehn,Anna; Bussy,Augustin; Belleflamme,Fabian;
 Tabacchi,Gloria; Gloess,Andreas; Lass,Michael; Bethune,Iain;
 Mundy,Christopher J.; Plessl,Christian; Watkins,Matt;
 VandeVondele,Joost; Krack,Matthias; Hutter,Juerg. 
 The Journal of Chemical Physics, 152 (19), (2020). 
 CP2K: An electronic structure and molecular dynamics software package -
 Quickstep: Efficient and accurate electronic structure calculations.
 https://doi.org/10.1063/5.0007045

 Schuett, Ole; Messmer, Peter; Hutter, Juerg; VandeVondele, Joost. 
 Electronic Structure Calculations on Graphics Processing Units, John
 Wiley & Sons, Ltd, 173-190 (2016). 
 GPU-Accelerated Sparse Matrix-Matrix Multiplication for
 Linear Scaling Density Functional Theory.
 https://doi.org/10.1002/9781118670712.ch8

 Borstnik, U; VandeVondele, J; Weber, V; Hutter, J. 
 PARALLEL COMPUTING, 40 (5-6), 47-58 (2014). 
 Sparse matrix multiplication: The distributed block-compressed sparse
 row library.
 https://doi.org/10.1016/j.parco.2014.03.012

 Hutter, J; Iannuzzi, M; Schiffmann, F; VandeVondele, J. 
 WIREs Comput Mol Sci., 4 (1), 15-25 (2014). 
 CP2K: atomistic simulations of condensed matter systems.
 https://doi.org/10.1002/wcms.1159

 Marek, A; Blum, V; Johanni, R; Havu, V; Lang, B; Auckenthaler, T;
 Heinecke, A; Bungartz, H; Lederer, H. 
 Journal of Physics: Condensed Matter, 26 (21), (2014). 
 The ELPA library: scalable parallel eigenvalue solutions for
 electronic structure
 theory and computational science.
 https://doi.org/10.1088/0953-8984/26/21/213201

 Guidon, M; Hutter, J; VandeVondele, J. 
 JOURNAL OF CHEMICAL THEORY AND COMPUTATION, 6 (8), 2348-2364 (2010). 
 Auxiliary Density Matrix Methods for Hartree-Fock Exchange Calculations.
 https://doi.org/10.1021/ct1002225

 VandeVondele, J; Hutter, J. 
 JOURNAL OF CHEMICAL PHYSICS, 127 (11), 114105 (2007). 
 Gaussian basis sets for accurate calculations on molecular systems in
 gas and condensed phases.
 https://doi.org/10.1063/1.2770708

 Krack, M. 
 THEORETICAL CHEMISTRY ACCOUNTS, 114 (1-3), 145-152 (2005). 
 Pseudopotentials for H to Kr optimized for gradient-corrected
 exchange-correlation functionals.
 https://doi.org/10.1007/s00214-005-0655-y

 VandeVondele, J; Krack, M; Mohamed, F; Parrinello, M; Chassaing, T;
 Hutter, J. COMPUTER PHYSICS COMMUNICATIONS, 167 (2), 103-128 (2005). 
 QUICKSTEP: Fast and accurate density functional calculations using a
 mixed Gaussian and plane waves approach.
 https://doi.org/10.1016/j.cpc.2004.12.014

 Frigo, M; Johnson, SG. 
 PROCEEDINGS OF THE IEEE, 93 (2), 216-231 (2005). 
 The design and implementation of FFTW3.
 https://doi.org/10.1109/JPROC.2004.840301

 Hartwigsen, C; Goedecker, S; Hutter, J. 
 PHYSICAL REVIEW B, 58 (7), 3641-3662 (1998). 
 Relativistic separable dual-space Gaussian pseudopotentials from H to Rn.
 https://doi.org/10.1103/PhysRevB.58.3641

 Lippert, G; Hutter, J; Parrinello, M. 
 MOLECULAR PHYSICS, 92 (3), 477-487 (1997). 
 A hybrid Gaussian and plane wave density functional scheme.
 https://doi.org/10.1080/002689797170220

 Perdew, JP; Burke, K; Ernzerhof, M. 
 PHYSICAL REVIEW LETTERS, 77 (18), 3865-3868 (1996). 
 Generalized gradient approximation made simple.
 https://doi.org/10.1103/PhysRevLett.77.3865

 Goedecker, S; Teter, M; Hutter, J. 
 PHYSICAL REVIEW B, 54 (3), 1703-1710 (1996). 
 Separable dual-space Gaussian pseudopotentials.
 https://doi.org/10.1103/PhysRevB.54.1703


 -------------------------------------------------------------------------------
 -                                                                             -
 -                                T I M I N G                                  -
 -                                                                             -
 -------------------------------------------------------------------------------
 SUBROUTINE                       CALLS  ASD         SELF TIME        TOTAL TIME
                                MAXIMUM       AVERAGE  MAXIMUM  AVERAGE  MAXIMUM
 CP2K                                 1  1.0    0.002    0.005 2629.472 2629.542
 run_optimize_basis                   1  2.0    0.003    0.004 2629.460 2629.531
 driver_para_opt_basis                1  3.0    0.000    0.000 2629.447 2629.518
 driver_optimization_para_low         1  4.0    0.224    0.545 2629.446 2629.517
 compute_residuum_vectors         17620  5.0    1.081    1.473 2624.037 2624.792
 mp_sum_dv                        88101  5.8 1893.554 2535.282 1893.554 2535.282
 cp_gemm                         211440  7.2    0.315    0.467  552.529 2160.104
 cp_gemm_fm_gemm                 211440  8.2    0.186    0.314  552.214 2159.735
 cp_fm_gemm                      211440  9.2  552.028 2159.516  552.028 2159.516
 admm_fit_mo_coeffs               17620  6.0    0.047    0.080  231.626  873.671
 fit_mo_coeffs                    17620  7.0    0.162    0.240  182.910  754.219
 build_overlap_matrix_low         35244  6.0   44.027  140.812   44.995  142.093
 cp_fm_syevd                      35240  7.0    0.109    0.156   32.427  133.375
 cp_fm_syevd_base                 35240  8.0   32.273  133.198   32.273  133.198
 purify_mo_diag                   17620  7.0    0.209    0.328   48.669  122.918
 copy_dbcsr_to_fm                 88101  6.8    0.982    1.614   51.451  107.629
 cp_fm_upper_to_full              52862  7.3   27.589   66.362   27.589   66.362
 dbcsr_complete_redistribute      88102  7.8   14.413   36.806   29.297   61.715
 -------------------------------------------------------------------------------

 The number of warnings for this run is : 1
 
 -------------------------------------------------------------------------------
  **** **** ******  **  PROGRAM ENDED AT                 2021-01-23 21:17:44.957
 ***** ** ***  *** **   PROGRAM RAN ON                                   tcopt10
 **    ****   ******    PROGRAM RAN BY                                    hutter
 ***** **    ** ** **   PROGRAM PROCESS ID                                 18669
  **** **  *******  **  PROGRAM STOPPED IN /data/hutter/GITHUB/BASIS/MOLOPT/PBE/
                                           Br
