 DBCSR| CPU Multiplication driver                                           XSMM
 DBCSR| Multrec recursion limit                                              512
 DBCSR| Multiplication stack size                                           1000
 DBCSR| Maximum elements for images                                    UNLIMITED
 DBCSR| Multiplicative factor virtual images                                   1
 DBCSR| Use multiplication densification                                       T
 DBCSR| Multiplication size stacks                                             3
 DBCSR| Use memory pool for CPU allocation                                     F
 DBCSR| Number of 3D layers                                               SINGLE
 DBCSR| Use MPI memory allocation                                              F
 DBCSR| Use RMA algorithm                                                      F
 DBCSR| Use Communication thread                                               T
 DBCSR| Communication thread load                                             87
 DBCSR| MPI: My node id                                                        0
 DBCSR| MPI: Number of nodes                                                  48
 DBCSR| OMP: Current number of threads                                         1
 DBCSR| OMP: Max number of threads                                             1
 DBCSR| Split modifier for TAS multiplication algorithm                  1.0E+00


  **** **** ******  **  PROGRAM STARTED AT               2022-05-13 20:40:06.822
 ***** ** ***  *** **   PROGRAM STARTED ON                               tcopt10
 **    ****   ******    PROGRAM STARTED BY                                hutter
 ***** **    ** ** **   PROGRAM PROCESS ID                                 31298
  **** **  *******  **  PROGRAM STARTED IN /data/hutter/GITHUB/BASIS/scMOLOPT/PB
                                           E/Se

 CP2K| version string:                   CP2K version 10.0 (Development Version)
 CP2K| source code revision number:                                  git:13fcfd8
 CP2K| cp2kflags: omp libint fftw3 libxc elpa parallel mpi3 scalapack cosma xsmm
 CP2K|             spglib sirius libvori libbqb
 CP2K| is freely available from                            https://www.cp2k.org/
 CP2K| Program compiled at                      Tue 10 May 2022 02:27:21 PM CEST
 CP2K| Program compiled on                                               tcopt10
 CP2K| Program compiled for                                                local
 CP2K| Data directory path                   /data/hutter/GITHUB/TDLRI/cp2k/data
 CP2K| Input file name                                              SeO2-ref.inp

 GLOBAL| Force Environment number                                              1
 GLOBAL| Basis set file name                                        ../def2QZVPP
 GLOBAL| Potential file name                                        ../POTENTIAL
 GLOBAL| MM Potential file name                                     MM_POTENTIAL
 GLOBAL| Coordinate file name                                      __STD_INPUT__
 GLOBAL| Method name                                                        CP2K
 GLOBAL| Project name                                                    refSeO2
 GLOBAL| Run type                                                         ENERGY
 GLOBAL| FFT library                                                       FFTW3
 GLOBAL| Diagonalization library                                       ScaLAPACK
 GLOBAL| Orthonormality check for eigenvectors                          DISABLED
 GLOBAL| Matrix multiplication library                                     COSMA
 GLOBAL| All-to-all communication in single precision                          F
 GLOBAL| FFTs using library dependent lengths                                  F
 GLOBAL| Grid backend                                                       AUTO
 GLOBAL| Global print level                                                  LOW
 GLOBAL| MPI I/O enabled                                                       T
 GLOBAL| Total number of message passing processes                            48
 GLOBAL| Number of threads for this process                                    1
 GLOBAL| This output is from process                                           0
 GLOBAL| Stack size for threads created by OpenMP (OMP_STACKSIZE)        default
 GLOBAL| CPU model name                          AMD EPYC 7401 24-Core Processor
 GLOBAL| CPUID                                                              1002

 MEMORY| system memory details [Kb]
 MEMORY|                        rank 0           min           max       average
 MEMORY| MemTotal            263969136     263969136     263969136     263969136
 MEMORY| MemFree             237766960     237766960     237766960     237766960
 MEMORY| Buffers                   136           136           136           136
 MEMORY| Cached               18979124      18979124      18979124      18979124
 MEMORY| Slab                  1426664       1426664       1426664       1426664
 MEMORY| SReclaimable           872364        872364        872364        872364
 MEMORY| MemLikelyFree       257618584     257618584     257618584     257618584


 GENERATE|  Preliminary Number of Bonds generated:                             0
 GENERATE|  Achieved consistency in connectivity generation.

 *******************************************************************************
 *******************************************************************************
 **                                                                           **
 **     #####                         ##              ##                      **
 **    ##   ##            ##          ##              ##                      **
 **   ##     ##                       ##            ######                    **
 **   ##     ##  ##   ##  ##   #####  ##  ##   ####   ##    #####    #####    **
 **   ##     ##  ##   ##  ##  ##      ## ##   ##      ##   ##   ##  ##   ##   **
 **   ##  ## ##  ##   ##  ##  ##      ####     ###    ##   ######   ######    **
 **    ##  ###   ##   ##  ##  ##      ## ##      ##   ##   ##       ##        **
 **     #######   #####   ##   #####  ##  ##  ####    ##    #####   ##        **
 **           ##                                                    ##        **
 **                                                                           **
 **                                                ... make the atoms dance   **
 **                                                                           **
 **            Copyright (C) by CP2K developers group (2000-2022)             **
 **                      J. Chem. Phys. 152, 194103 (2020)                    **
 **                                                                           **
 *******************************************************************************


 TOTAL NUMBERS AND MAXIMUM NUMBERS

  Total number of            - Atomic kinds:                                   2
                             - Atoms:                                          3
                             - Shell sets:                                    61
                             - Shells:                                        61
                             - Primitive Cartesian functions:                117
                             - Cartesian basis functions:                    255
                             - Spherical basis functions:                    203

  Maximum angular momentum of the orbital basis functions:                     4


 SCF PARAMETERS         Density guess:                                    ATOMIC
                        --------------------------------------------------------
                        max_scf:                                              20
                        max_scf_history:                                       0
                        max_diis:                                              4
                        --------------------------------------------------------
                        eps_scf:                                        5.00E-07
                        eps_scf_history:                                0.00E+00
                        eps_diis:                                       1.00E-01
                        eps_eigval:                                     1.00E-05
                        --------------------------------------------------------
                        level_shift [a.u.]:                             0.000000
                        --------------------------------------------------------
                        Outer loop SCF in use 
                        No variables optimised in outer loop
                        eps_scf                                         5.00E-07
                        max_scf                                               10
                        No outer loop optimization
                        step_size                                       5.00E-01

 Number of electrons:                                                         50
 Number of occupied orbitals:                                                 25
 Number of molecular orbitals:                                                25

 Number of orbital functions:                                                203
 Number of independent orbital functions:                                    203

 Extrapolation method: initial_guess


 SCF WAVEFUNCTION OPTIMIZATION

  ----------------------------------- OT ---------------------------------------
  Minimizer      : DIIS                : direct inversion
                                         in the iterative subspace
                                         using   7 DIIS vectors
                                         safer DIIS on
  Preconditioner : FULL_ALL            : diagonalization, state selective
  Precond_solver : DEFAULT
  stepsize       :    0.15000000                  energy_gap     :    0.08000000
  eps_taylor     :   0.10000E-15                  max_taylor     :             4
  ----------------------------------- OT ---------------------------------------

  Step     Update method      Time    Convergence         Total energy    Change
  ------------------------------------------------------------------------------
     1 OT DIIS     0.15E+00    1.9     0.45124812     -2425.7011162403 -2.43E+03
     2 OT DIIS     0.15E+00    2.0     0.15056394     -2534.3895637743 -1.09E+02
     3 OT DIIS     0.15E+00    2.0     0.07001545     -2544.9832527538 -1.06E+01
     4 OT DIIS     0.15E+00    2.0     0.03661375     -2546.7436399216 -1.76E+00
     5 OT DIIS     0.15E+00    2.0     0.02757181     -2547.9969531328 -1.25E+00
     6 OT DIIS     0.15E+00    2.0     0.01584194     -2549.2023182162 -1.21E+00
     7 OT DIIS     0.15E+00    2.0     0.01252532     -2549.6262910010 -4.24E-01
     8 OT DIIS     0.15E+00    2.0     0.00940005     -2550.1833183747 -5.57E-01
     9 OT DIIS     0.15E+00    2.0     0.00740668     -2550.3494176652 -1.66E-01
    10 OT DIIS     0.15E+00    2.0     0.00685905     -2550.4773445632 -1.28E-01
    11 OT DIIS     0.15E+00    2.0     0.00572174     -2550.6236848394 -1.46E-01
    12 OT DIIS     0.15E+00    2.0     0.00433018     -2550.8290266169 -2.05E-01
    13 OT DIIS     0.15E+00    2.0     0.00376440     -2550.9036325973 -7.46E-02
    14 OT DIIS     0.15E+00    2.0     0.00342472     -2550.9604361211 -5.68E-02
    15 OT DIIS     0.15E+00    2.0     0.00308239     -2551.0092045859 -4.88E-02
    16 OT DIIS     0.15E+00    2.0     0.00269617     -2551.0752794282 -6.61E-02
    17 OT DIIS     0.15E+00    2.0     0.00262408     -2551.1057243056 -3.04E-02
    18 OT DIIS     0.15E+00    2.0     0.00250243     -2551.1168887883 -1.12E-02
    19 OT DIIS     0.15E+00    2.0     0.00231153     -2551.1615932261 -4.47E-02
    20 OT DIIS     0.15E+00    2.0     0.00233797     -2551.2116776670 -5.01E-02

  Leaving inner SCF loop after reaching    20 steps.


  Electronic density on regular grids:        -25.0707280877       24.9292719123
  Core density on regular grids:               50.0000000000        0.0000000000
  Hard and soft densities (Lebedev):          -56.9366106325      -32.0073412879
  Total Rho_soft + Rho1_hard - Rho1_soft      -49.9999974323
  Total charge density (r-space):               0.0000025677
  Total Rho_soft + Rho0_soft (g-space):         0.0000023547

  Overlap energy of the core charge distribution:               0.00000878239640
  Self energy of the core charge distribution:               -785.23510180986079
  Core Hamiltonian energy:                                  -1954.78356833753696
  Hartree energy:                                              79.22791215970557
  Exchange-correlation energy:                                -15.88068226819849

  GAPW| Exc from hard and soft atomic rho1:                   -87.85207744327195
  GAPW| local Eh = 1 center integrals:                        213.31183124979910

  Total energy:                                             -2551.21167766696681

  outer SCF iter =    1 RMS gradient =   0.23E-02 energy =      -2551.2116776670

  ----------------------------------- OT ---------------------------------------
  Minimizer      : DIIS                : direct inversion
                                         in the iterative subspace
                                         using   7 DIIS vectors
                                         safer DIIS on
  Preconditioner : FULL_ALL            : diagonalization, state selective
  Precond_solver : DEFAULT
  stepsize       :    0.15000000                  energy_gap     :    0.08000000
  eps_taylor     :   0.10000E-15                  max_taylor     :             4
  ----------------------------------- OT ---------------------------------------

  Step     Update method      Time    Convergence         Total energy    Change
  ------------------------------------------------------------------------------
     1 OT DIIS     0.15E+00    4.0     0.02397962     -2551.2507576320 -3.91E-02
     2 OT DIIS     0.15E+00    2.0     0.02195987     -2551.5050561232 -2.54E-01
     3 OT DIIS     0.15E+00    2.0     0.03245038     -2551.4875966807  1.75E-02
     4 OT DIIS     0.15E+00    2.0     0.01343259     -2551.5623817887 -7.48E-02
     5 OT DIIS     0.15E+00    2.0     0.00572781     -2551.5764007978 -1.40E-02
     6 OT DIIS     0.15E+00    2.0     0.00215748     -2551.5798129221 -3.41E-03
     7 OT DIIS     0.15E+00    2.0     0.00038770     -2551.5806558177 -8.43E-04
     8 OT DIIS     0.15E+00    2.0     0.00022359     -2551.5807261138 -7.03E-05
     9 OT DIIS     0.15E+00    2.0     0.00003817     -2551.5807363281 -1.02E-05
    10 OT DIIS     0.15E+00    2.0     0.00001394     -2551.5807370948 -7.67E-07
    11 OT DIIS     0.15E+00    2.0     0.00000657     -2551.5807371788 -8.41E-08
    12 OT DIIS     0.15E+00    2.0     0.00000607     -2551.5807371781  7.13E-10
    13 OT DIIS     0.15E+00    2.0     0.00000087     -2551.5807371780  1.62E-10
    14 OT DIIS     0.15E+00    2.0     0.00000012     -2551.5807371674  1.06E-08

  *** SCF run converged in    14 steps ***


  Electronic density on regular grids:        -25.1160933533       24.8839066467
  Core density on regular grids:               50.0000000000        0.0000000000
  Hard and soft densities (Lebedev):          -57.2685761902      -32.3846707896
  Total Rho_soft + Rho1_hard - Rho1_soft      -49.9999987539
  Total charge density (r-space):               0.0000012461
  Total Rho_soft + Rho0_soft (g-space):         0.0000010327

  Overlap energy of the core charge distribution:               0.00000878239640
  Self energy of the core charge distribution:               -785.23510180986079
  Core Hamiltonian energy:                                  -1955.34608936118980
  Hartree energy:                                              79.47362036085825
  Exchange-correlation energy:                                -15.90961172962293

  GAPW| Exc from hard and soft atomic rho1:                   -87.82297706517811
  GAPW| local Eh = 1 center integrals:                        213.25941365522985

  Total energy:                                             -2551.58073716736772

  outer SCF iter =    2 RMS gradient =   0.12E-06 energy =      -2551.5807371674
  outer SCF loop converged in   2 iterations or   34 steps


 ENERGY| Total FORCE_EVAL ( QS ) energy [a.u.]:            -2551.580737167367715

 -------------------------------------------------------------------------------
 -                                                                             -
 -                                DBCSR STATISTICS                             -
 -                                                                             -
 -------------------------------------------------------------------------------
 COUNTER                                    TOTAL       BLAS       SMM       ACC
 flops    57 x    89 x    25              8877750       0.0%    100.0%      0.0%
 flops    89 x    57 x    25              8877750       0.0%    100.0%      0.0%
 flops    25 x    25 x    25              9187500       0.0%    100.0%      0.0%
 flops    57 x    25 x    25             12255000       0.0%    100.0%      0.0%
 flops    89 x    89 x    25             13861750       0.0%    100.0%      0.0%
 flops    25 x    25 x    89             15352500       0.0%    100.0%      0.0%
 flops    57 x    57 x    25             17057250       0.0%    100.0%      0.0%
 flops    25 x    25 x    57             19665000       0.0%    100.0%      0.0%
 flops   146 x    25 x    25             31390000       0.0%    100.0%      0.0%
 flops    89 x    25 x    89             32476100       0.0%    100.0%      0.0%
 flops    89 x    25 x    57             41598600       0.0%    100.0%      0.0%
 flops   146 x    25 x    89             46778400       0.0%    100.0%      0.0%
 flops    57 x    25 x    89             59861400       0.0%    100.0%      0.0%
 flops   146 x    25 x    57             59918400       0.0%    100.0%      0.0%
 flops    57 x    25 x    57             76676400       0.0%    100.0%      0.0%
 flops inhomo. stacks                           0       0.0%      0.0%      0.0%
 flops total                       453.833800E+06       0.0%    100.0%      0.0%
 flops max/rank                    317.669350E+06       0.0%    100.0%      0.0%
 matmuls inhomo. stacks                         0       0.0%      0.0%      0.0%
 matmuls total                               2432       0.0%    100.0%      0.0%
 number of processed stacks                  2432       0.0%    100.0%      0.0%
 average stack size                                     0.0       1.0       0.0
 marketing flops                   477.780960E+06
 -------------------------------------------------------------------------------
 # multiplications                            795
 max memory usage/rank             549.978112E+06
 # max total images/rank                        3
 # max 3D layers                                1
 # MPI messages exchanged                  763200
 MPI messages size (bytes):
  total size                       775.529984E+06
  min size                           0.000000E+00
  max size                         103.952000E+03
  average size                       1.016156E+03
 MPI breakdown and total messages size (bytes):
             size <=      128              736353                        0
       128 < size <=     8192                4632                 23160000
      8192 < size <=    32768               15439                281966496
     32768 < size <=   131072                6776                470403472
    131072 < size <=  4194304                   0                        0
   4194304 < size <= 16777216                   0                        0
  16777216 < size                               0                        0
 -------------------------------------------------------------------------------

 *** WARNING in dbcsr_mm.F:290 :: Using a non-square number of MPI ranks ***
 *** might lead to poor performance. Used ranks: 48 Suggested: 49 100    ***

 -------------------------------------------------------------------------------
 -                                                                             -
 -                      DBCSR MESSAGE PASSING PERFORMANCE                      -
 -                                                                             -
 -------------------------------------------------------------------------------
 ROUTINE             CALLS      AVE VOLUME [Bytes]
 MP_Bcast               16                     12.
 MP_Allreduce         4259                      8.
 MP_Alltoall          2945                   5779.
 MP_ISend            35390                   1977.
 MP_IRecv            35208                    961.
 -------------------------------------------------------------------------------

 -------------------------------------------------------------------------------
 -                                                                             -
 -                                GRID STATISTICS                              -
 -                                                                             -
 -------------------------------------------------------------------------------
 LP    KERNEL             BACKEND                              COUNT     PERCENT
 2     collocate ortho    REF                                  10500       9.86%
 3     collocate ortho    REF                                  10290       9.67%
 2     integrate ortho    REF                                  10200       9.58%
 3     integrate ortho    REF                                   9996       9.39%
 4     collocate ortho    REF                                   8540       8.02%
 4     integrate ortho    REF                                   8296       7.79%
 1     collocate ortho    REF                                   7770       7.30%
 1     integrate ortho    REF                                   7548       7.09%
 5     collocate ortho    REF                                   5040       4.73%
 5     integrate ortho    REF                                   4896       4.60%
 2     collocate general  REF                                   4896       4.60%
 2     integrate general  REF                                   4896       4.60%
 0     collocate ortho    REF                                   3150       2.96%
 0     integrate ortho    REF                                   3060       2.87%
 6     collocate ortho    REF                                   2555       2.40%
 6     integrate ortho    REF                                   2482       2.33%
 7     collocate ortho    REF                                    980       0.92%
 7     integrate ortho    REF                                    952       0.89%
 8     collocate ortho    REF                                    210       0.20%
 8     integrate ortho    REF                                    204       0.19%
 -------------------------------------------------------------------------------

 MEMORY| Estimated peak process memory [MiB]                                 525

 -------------------------------------------------------------------------------
 -                                                                             -
 -                         MESSAGE PASSING PERFORMANCE                         -
 -                                                                             -
 -------------------------------------------------------------------------------

 ROUTINE             CALLS      AVE VOLUME [Bytes]
 MP_Group                4
 MP_Bcast              888                 262367.
 MP_Allreduce         2593                 350520.
 MP_Sync                84
 MP_Alltoall           768                3629709.
 MP_ISendRecv         9729                  66752.
 MP_Wait             18086
 MP_comm_split          40
 MP_ISend             7672                 183408.
 MP_IRecv             7672                 183383.
 MP_Recv                16                   4872.
 -------------------------------------------------------------------------------


 -------------------------------------------------------------------------------
 -                                                                             -
 -                           R E F E R E N C E S                               -
 -                                                                             -
 -------------------------------------------------------------------------------
 
 CP2K version 10.0 (Development Version), the CP2K developers group (2022).
 CP2K is freely available from https://www.cp2k.org/ .

 Kuehne,Thomas D.; Iannuzzi,Marcella; Del Ben,Mauro;
 Rybkin,Vladimir V.; Seewald,Patrick; Stein,Frederick; Laino,Teodoro;
 Khaliullin,Rustam Z.; Schuett,Ole; Schiffmann,Florian; Golze,Dorothea;
 Wilhelm,Jan; Chulkov,Sergey; Bani-Hashemian,Mohammad Hossein;
 Weber,Valery; Borstnik,Urban; Taillefumier,Mathieu;
 Jakobovits,Alice Shoshana; Lazzaro,Alfio; Pabst,Hans; Mueller,Tiziano;
 Schade,Robert; Guidon,Manuel; Andermatt,Samuel; Holmberg,Nico;
 Schenter,Gregory K.; Hehn,Anna; Bussy,Augustin; Belleflamme,Fabian;
 Tabacchi,Gloria; Gloess,Andreas; Lass,Michael; Bethune,Iain;
 Mundy,Christopher J.; Plessl,Christian; Watkins,Matt;
 VandeVondele,Joost; Krack,Matthias; Hutter,Juerg. 
 The Journal of Chemical Physics, 152 (19), (2020). 
 CP2K: An electronic structure and molecular dynamics software package -
 Quickstep: Efficient and accurate electronic structure calculations.
 https://doi.org/10.1063/5.0007045

 Schuett, Ole; Messmer, Peter; Hutter, Juerg; VandeVondele, Joost. 
 Electronic Structure Calculations on Graphics Processing Units, John
 Wiley & Sons, Ltd, 173-190 (2016). 
 GPU-Accelerated Sparse Matrix-Matrix Multiplication for
 Linear Scaling Density Functional Theory.
 https://doi.org/10.1002/9781118670712.ch8

 Heinecke, A; Henry, G; Hutchinson, M; Pabst, H. 
 Proceedings of Intl. Supercomputing Conference, 981-991 (2016). 
 LIBXSMM: Accelerating Small Matrix Multiplications
 by Runtime Code Generation.
 https://doi.org/10.1109/SC.2016.83

 Borstnik, U; VandeVondele, J; Weber, V; Hutter, J. 
 PARALLEL COMPUTING, 40 (5-6), 47-58 (2014). 
 Sparse matrix multiplication: The distributed block-compressed sparse
 row library.
 https://doi.org/10.1016/j.parco.2014.03.012

 Hutter, J; Iannuzzi, M; Schiffmann, F; VandeVondele, J. 
 WIREs Comput Mol Sci., 4 (1), 15-25 (2014). 
 CP2K: atomistic simulations of condensed matter systems.
 https://doi.org/10.1002/wcms.1159

 Frigo, M; Johnson, SG. 
 PROCEEDINGS OF THE IEEE, 93 (2), 216-231 (2005). 
 The design and implementation of FFTW3.
 https://doi.org/10.1109/JPROC.2004.840301

 VandeVondele, J; Hutter, J. 
 JOURNAL OF CHEMICAL PHYSICS, 118 (10), 4365-4369 (2003). 
 An efficient orbital transformation method for electronic structure
 calculations.
 https://doi.org/10.1063/1.1543154

 Lippert, G; Hutter, J; Parrinello, M. 
 THEORETICAL CHEMISTRY ACCOUNTS, 103 (2), 124-140 (1999). 
 The Gaussian and augmented-plane-wave density functional method for ab
 initio molecular dynamics simulations.
 https://doi.org/10.1007/s002140050523

 Krack, M; Parrinello, M. 
 PHYSICAL CHEMISTRY CHEMICAL PHYSICS, 2 (10), 2105-2112 (2000). 
 All-electron ab-initio molecular dynamics.
 https://doi.org/10.1039/b001167n

 Perdew, JP; Burke, K; Ernzerhof, M. 
 PHYSICAL REVIEW LETTERS, 77 (18), 3865-3868 (1996). 
 Generalized gradient approximation made simple.
 https://doi.org/10.1103/PhysRevLett.77.3865


 -------------------------------------------------------------------------------
 -                                                                             -
 -                                T I M I N G                                  -
 -                                                                             -
 -------------------------------------------------------------------------------
 SUBROUTINE                       CALLS  ASD         SELF TIME        TOTAL TIME
                                MAXIMUM       AVERAGE  MAXIMUM  AVERAGE  MAXIMUM
 CP2K                                 1  1.0    0.013    0.040   67.880   67.882
 qs_energies                          1  2.0    0.000    0.000   67.532   67.533
 scf_env_do_scf                       1  3.0    0.000    0.000   67.291   67.292
 scf_env_do_scf_inner_loop           34  4.0    0.001    0.002   63.578   63.579
 qs_ks_update_qs_env                 36  5.0    0.000    0.000   62.208   62.219
 rebuild_ks_matrix                   34  6.0    0.000    0.000   62.203   62.212
 qs_ks_build_kohn_sham_matrix        34  7.0    0.007    0.009   62.203   62.212
 mp_sum_d                          1471  7.7   31.448   32.243   31.448   32.243
 calculate_vxc_atom                  34  8.0    0.095    1.448   29.894   29.894
 gaVxcgb_GC                          34  9.0    0.617   27.777    0.617   27.777
 prepare_gapw_den                    34  8.0    0.001    0.002   16.784   16.808
 calculate_rho_atom                  68  9.0    4.788   13.464    4.788   13.464
 calculate_rho0_atom                 68  9.0    6.376    6.890    6.376    6.890
 pw_transfer                        719 10.1    0.070    0.079    5.786    6.325
 fft_wrap_pw1pw2                    617 11.3    0.008    0.008    5.673    6.209
 rs_pw_transfer                     344  9.5    0.008    0.010    5.685    5.985
 fft_wrap_pw1pw2_250                410 12.7    0.323    0.376    5.367    5.894
 mp_sum_dv                         1058 13.0    4.002    5.811    4.002    5.811
 fft3d_ps                           617 13.3    2.041    2.420    4.667    5.183
 integrate_vhg0_rspace               34  8.0    0.628    1.114    4.975    5.004
 qs_vxc_create                       34  8.0    0.001    0.001    4.318    4.318
 xc_vxc_pw_create                    34  9.0    0.027    0.033    4.317    4.317
 qs_rho_update_rho                   35  5.0    0.001    0.001    4.095    4.098
 calculate_rho_elec                  35  6.0    0.014    0.016    3.753    3.753
 init_scf_loop                        2  4.0    0.000    0.000    3.712    3.713
 xc_pw_derive                       204 11.0    0.002    0.002    3.062    3.602
 mp_sum_dm                          312  7.7    3.413    3.476    3.413    3.476
 sum_up_and_integrate                34  8.0    0.015    0.020    3.275    3.284
 integrate_v_rspace                  34  9.0    0.001    0.001    3.260    3.271
 density_rs2pw                       35  7.0    0.002    0.002    2.874    3.108
 mp_alltoall_z22v                   617 15.3    2.234    3.000    2.234    3.000
 xc_pw_divergence                    34 10.0    0.001    0.001    2.088    2.628
 xc_rho_set_and_dset_create          34 10.0    0.035    0.042    2.102    2.542
 rs_pw_transfer_RS2PW_250            69 10.0    1.299    1.507    2.238    2.488
 potential_pw2rs                     34 10.0    0.002    0.002    2.336    2.340
 rs_pw_transfer_PW2RS_250            68 11.0    1.344    1.435    2.177    2.281
 Vh_1c_gg_integrals                  34  8.0    0.122    1.974    1.975    2.000
 yz_to_x                            275 14.1    0.146    0.236    1.374    1.995
 mp_waitany                        7672 11.5    1.384    1.661    1.384    1.661
 put_rho0_on_grid                    34  9.0    0.017    0.021    1.622    1.647
 -------------------------------------------------------------------------------

 The number of warnings for this run is : 1
 
 -------------------------------------------------------------------------------
  **** **** ******  **  PROGRAM ENDED AT                 2022-05-13 20:41:15.136
 ***** ** ***  *** **   PROGRAM RAN ON                                   tcopt10
 **    ****   ******    PROGRAM RAN BY                                    hutter
 ***** **    ** ** **   PROGRAM PROCESS ID                                 31298
  **** **  *******  **  PROGRAM STOPPED IN /data/hutter/GITHUB/BASIS/scMOLOPT/PB
                                           E/Se
