
  **** **** ******  **  PROGRAM STARTED AT               2021-01-24 15:51:22.321
 ***** ** ***  *** **   PROGRAM STARTED ON                               tcopt10
 **    ****   ******    PROGRAM STARTED BY                                hutter
 ***** **    ** ** **   PROGRAM PROCESS ID                                 12007
  **** **  *******  **  PROGRAM STARTED IN /data/hutter/GITHUB/BASIS/MOLOPT/PBE/
                                           Cr

 CP2K| version string:                    CP2K version 9.0 (Development Version)
 CP2K| source code revision number:                                  git:7d6847f
 CP2K| cp2kflags: omp libint fftw3 libxc elpa parallel mpi3 scalapack xsmm spgli
 CP2K|            b sirius libvori libbqb
 CP2K| is freely available from                            https://www.cp2k.org/
 CP2K| Program compiled at                          Fre Jan 15 16:26:00 CET 2021
 CP2K| Program compiled on                                               tcopt10
 CP2K| Program compiled for                                                local
 CP2K| Data directory path                 /data/hutter/GITHUB/CURRENT/cp2k/data
 CP2K| Input file name                                              opt-dzvp.inp

 GLOBAL| Method name                                              OPTIMIZE_BASIS
 GLOBAL| Project name                                                     molopt
 GLOBAL| Preferred FFT library                                             FFTW3
 GLOBAL| Preferred diagonalization lib.                                     ELPA
 GLOBAL| Run type                                                   ENERGY_FORCE
 GLOBAL| All-to-all communication in single precision                          F
 GLOBAL| FFTs using library dependent lengths                                  F
 GLOBAL| Global print level                                               MEDIUM
 GLOBAL| MPI I/O enabled                                                       T
 GLOBAL| Total number of message passing processes                            48
 GLOBAL| Number of threads for this process                                    1
 GLOBAL| This output is from process                                           0
 GLOBAL| CPU model name                          AMD EPYC 7401 24-Core Processor
 GLOBAL| CPUID                                                              1002

 MEMORY| system memory details [Kb]
 MEMORY|                        rank 0           min           max       average
 MEMORY| MemTotal            263969964     263969964     263969964     263969964
 MEMORY| MemFree             258609944     258609944     258609944     258609944
 MEMORY| Buffers                    20            20            20            20
 MEMORY| Cached                1136864       1136864       1136864       1136864
 MEMORY| Slab                   547688        547688        547688        547688
 MEMORY| SReclaimable           192700        192700        192700        192700
 MEMORY| MemLikelyFree       259939528     259939528     259939528     259939528


 *** Fundamental physical constants (SI units) ***

 *** Literature: B. J. Mohr and B. N. Taylor,
 ***             CODATA recommended values of the fundamental physical
 ***             constants: 2006, Web Version 5.1
 ***             http://physics.nist.gov/constants

 Speed of light in vacuum [m/s]                             2.99792458000000E+08
 Magnetic constant or permeability of vacuum [N/A**2]       1.25663706143592E-06
 Electric constant or permittivity of vacuum [F/m]          8.85418781762039E-12
 Planck constant (h) [J*s]                                  6.62606896000000E-34
 Planck constant (h-bar) [J*s]                              1.05457162825177E-34
 Elementary charge [C]                                      1.60217648700000E-19
 Electron mass [kg]                                         9.10938215000000E-31
 Electron g factor [ ]                                     -2.00231930436220E+00
 Proton mass [kg]                                           1.67262163700000E-27
 Fine-structure constant                                    7.29735253760000E-03
 Rydberg constant [1/m]                                     1.09737315685270E+07
 Avogadro constant [1/mol]                                  6.02214179000000E+23
 Boltzmann constant [J/K]                                   1.38065040000000E-23
 Atomic mass unit [kg]                                      1.66053878200000E-27
 Bohr radius [m]                                            5.29177208590000E-11

 *** Conversion factors ***

 [u] -> [a.u.]                                              1.82288848426455E+03
 [Angstrom] -> [Bohr] = [a.u.]                              1.88972613288564E+00
 [a.u.] = [Bohr] -> [Angstrom]                              5.29177208590000E-01
 [a.u.] -> [s]                                              2.41888432650478E-17
 [a.u.] -> [fs]                                             2.41888432650478E-02
 [a.u.] -> [J]                                              4.35974393937059E-18
 [a.u.] -> [N]                                              8.23872205491840E-08
 [a.u.] -> [K]                                              3.15774647902944E+05
 [a.u.] -> [kJ/mol]                                         2.62549961709828E+03
 [a.u.] -> [kcal/mol]                                       6.27509468713739E+02
 [a.u.] -> [Pa]                                             2.94210107994716E+13
 [a.u.] -> [bar]                                            2.94210107994716E+08
 [a.u.] -> [atm]                                            2.90362800883016E+08
 [a.u.] -> [eV]                                             2.72113838565563E+01
 [a.u.] -> [Hz]                                             6.57968392072181E+15
 [a.u.] -> [1/cm] (wave numbers)                            2.19474631370540E+05
 [a.u./Bohr**2] -> [1/cm]                                   5.14048714338585E+03
 
 DBCSR| CPU Multiplication driver                                           XSMM
 DBCSR| Multrec recursion limit                                              512
 DBCSR| Multiplication stack size                                           1000
 DBCSR| Maximum elements for images                                    UNLIMITED
 DBCSR| Multiplicative factor virtual images                                   1
 DBCSR| Use multiplication densification                                       T
 DBCSR| Multiplication size stacks                                             3
 DBCSR| Use memory pool for CPU allocation                                     F
 DBCSR| Number of 3D layers                                               SINGLE
 DBCSR| Use MPI memory allocation                                              F
 DBCSR| Use RMA algorithm                                                      F
 DBCSR| Use Communication thread                                               T
 DBCSR| Communication thread load                                             87
 DBCSR| MPI: My node id                                                        0
 DBCSR| MPI: Number of nodes                                                  48
 DBCSR| OMP: Current number of threads                                         1
 DBCSR| OMP: Max number of threads                                             1
 DBCSR| Split modifier for TAS multiplication algorithm                  1.0E+00

 BASOPT| Total number of calculations      4

 BASOPT| Content of basis combination      1
 BASOPT|     Element:   CR    Basis set:    DZVP-MOLOPT-PBE-GTH-Q14
 BASOPT|     Element:    C    Basis set:    DZVP-MOLOPT-PBE-GTH-Q4
 BASOPT|     Element:    O    Basis set:    DZVP-MOLOPT-PBE-GTH-Q6
 BASOPT|     Element:    F    Basis set:    DZVP-MOLOPT-PBE-GTH-Q7
 BASOPT|     Element:   CL    Basis set:    DZVP-MOLOPT-PBE-GTH-Q7

 BASOPT| Information at iteration number:       0
 BASOPT| Training set | Combination | Rho difference | Condition num. | Time
 BASOPT| -----------------------------------------------------------------------
 BASOPT|        1     |       1     | 0.87763129E-02 | 0.14394221E+03 |    0.102
 BASOPT|        2     |       1     | 0.17860602E-01 | 0.19352347E+04 |    1.654
 BASOPT|        3     |       1     | 0.49673093E-02 | 0.27619355E+03 |    0.101
 BASOPT|        4     |       1     | 0.55943652E-02 | 0.19239165E+03 |    0.101
 BASOPT| -----------------------------------------------------------------------
 BASOPT| Total residuum value: -.13501684E+04

 BASOPT| Information at iteration number:     100
 BASOPT| Training set | Combination | Rho difference | Condition num. | Time
 BASOPT| -----------------------------------------------------------------------
 BASOPT|        1     |       1     | 0.87575837E-02 | 0.14546276E+03 |   11.506
 BASOPT|        2     |       1     | 0.17850790E-01 | 0.19352347E+04 |  192.335
 BASOPT|        3     |       1     | 0.50089528E-02 | 0.27622289E+03 |   11.523
 BASOPT|        4     |       1     | 0.56014407E-02 | 0.19281454E+03 |   11.523
 BASOPT| -----------------------------------------------------------------------
 BASOPT| Total residuum value: -.13501672E+04

 BASOPT| Information at iteration number:     200
 BASOPT| Training set | Combination | Rho difference | Condition num. | Time
 BASOPT| -----------------------------------------------------------------------
 BASOPT|        1     |       1     | 0.91731773E-02 | 0.16569300E+03 |   22.810
 BASOPT|        2     |       1     | 0.16515714E-01 | 0.25220502E+04 |  382.979
 BASOPT|        3     |       1     | 0.51390473E-02 | 0.32836369E+03 |   22.862
 BASOPT|        4     |       1     | 0.60683216E-02 | 0.22587779E+03 |   22.843
 BASOPT| -----------------------------------------------------------------------
 BASOPT| Total residuum value: -.13502663E+04

 BASOPT| Information at iteration number:     300
 BASOPT| Training set | Combination | Rho difference | Condition num. | Time
 BASOPT| -----------------------------------------------------------------------
 BASOPT|        1     |       1     | 0.90434266E-02 | 0.16212099E+03 |   34.063
 BASOPT|        2     |       1     | 0.16622919E-01 | 0.23293662E+04 |  573.551
 BASOPT|        3     |       1     | 0.50835096E-02 | 0.32412862E+03 |   34.150
 BASOPT|        4     |       1     | 0.60054290E-02 | 0.22304012E+03 |   34.117
 BASOPT| -----------------------------------------------------------------------
 BASOPT| Total residuum value: -.13502907E+04

 BASOPT| Information at iteration number:     400
 BASOPT| Training set | Combination | Rho difference | Condition num. | Time
 BASOPT| -----------------------------------------------------------------------
 BASOPT|        1     |       1     | 0.90366107E-02 | 0.16661076E+03 |   45.301
 BASOPT|        2     |       1     | 0.16602909E-01 | 0.24651892E+04 |  764.076
 BASOPT|        3     |       1     | 0.51097168E-02 | 0.32073933E+03 |   45.432
 BASOPT|        4     |       1     | 0.59470514E-02 | 0.22253564E+03 |   45.385
 BASOPT| -----------------------------------------------------------------------
 BASOPT| Total residuum value: -.13503017E+04

 BASOPT| Information at iteration number:     500
 BASOPT| Training set | Combination | Rho difference | Condition num. | Time
 BASOPT| -----------------------------------------------------------------------
 BASOPT|        1     |       1     | 0.90793808E-02 | 0.16957163E+03 |   56.540
 BASOPT|        2     |       1     | 0.16452054E-01 | 0.24402414E+04 |  954.495
 BASOPT|        3     |       1     | 0.51128359E-02 | 0.32208081E+03 |   56.711
 BASOPT|        4     |       1     | 0.59602034E-02 | 0.22453385E+03 |   56.654
 BASOPT| -----------------------------------------------------------------------
 BASOPT| Total residuum value: -.13503110E+04

 BASOPT| Information at iteration number:     600
 BASOPT| Training set | Combination | Rho difference | Condition num. | Time
 BASOPT| -----------------------------------------------------------------------
 BASOPT|        1     |       1     | 0.90459038E-02 | 0.16537847E+03 |   67.765
 BASOPT|        2     |       1     | 0.16590221E-01 | 0.22596496E+04 | 1144.925
 BASOPT|        3     |       1     | 0.51480876E-02 | 0.32179310E+03 |   67.980
 BASOPT|        4     |       1     | 0.59320731E-02 | 0.22446301E+03 |   67.907
 BASOPT| -----------------------------------------------------------------------
 BASOPT| Total residuum value: -.13503033E+04

 BASOPT| Information at iteration number:     700
 BASOPT| Training set | Combination | Rho difference | Condition num. | Time
 BASOPT| -----------------------------------------------------------------------
 BASOPT|        1     |       1     | 0.90550658E-02 | 0.16446046E+03 |   78.990
 BASOPT|        2     |       1     | 0.16601959E-01 | 0.22432648E+04 | 1335.337
 BASOPT|        3     |       1     | 0.51060888E-02 | 0.32629619E+03 |   79.249
 BASOPT|        4     |       1     | 0.59702567E-02 | 0.22853998E+03 |   79.157
 BASOPT| -----------------------------------------------------------------------
 BASOPT| Total residuum value: -.13503252E+04

 BASOPT| Information at iteration number:     800
 BASOPT| Training set | Combination | Rho difference | Condition num. | Time
 BASOPT| -----------------------------------------------------------------------
 BASOPT|        1     |       1     | 0.89822260E-02 | 0.16381793E+03 |   90.219
 BASOPT|        2     |       1     | 0.16540268E-01 | 0.22622681E+04 | 1525.739
 BASOPT|        3     |       1     | 0.50709568E-02 | 0.34433940E+03 |   90.520
 BASOPT|        4     |       1     | 0.58961828E-02 | 0.23910186E+03 |   90.414
 BASOPT| -----------------------------------------------------------------------
 BASOPT| Total residuum value: -.13503307E+04

 BASOPT| Information at iteration number:     900
 BASOPT| Training set | Combination | Rho difference | Condition num. | Time
 BASOPT| -----------------------------------------------------------------------
 BASOPT|        1     |       1     | 0.89371083E-02 | 0.16258337E+03 |  101.457
 BASOPT|        2     |       1     | 0.16466803E-01 | 0.21377044E+04 | 1716.205
 BASOPT|        3     |       1     | 0.50992284E-02 | 0.35618287E+03 |  101.798
 BASOPT|        4     |       1     | 0.58874564E-02 | 0.24573514E+03 |  101.677
 BASOPT| -----------------------------------------------------------------------
 BASOPT| Total residuum value: -.13503343E+04

 BASOPT| Information at iteration number:    1000
 BASOPT| Training set | Combination | Rho difference | Condition num. | Time
 BASOPT| -----------------------------------------------------------------------
 BASOPT|        1     |       1     | 0.90608051E-02 | 0.16309934E+03 |  112.689
 BASOPT|        2     |       1     | 0.16160886E-01 | 0.19897526E+04 | 1906.635
 BASOPT|        3     |       1     | 0.50057848E-02 | 0.37899497E+03 |  113.074
 BASOPT|        4     |       1     | 0.59718237E-02 | 0.25916728E+03 |  112.938
 BASOPT| -----------------------------------------------------------------------
 BASOPT| Total residuum value: -.13503385E+04

 BASOPT| Information at iteration number:    1100
 BASOPT| Training set | Combination | Rho difference | Condition num. | Time
 BASOPT| -----------------------------------------------------------------------
 BASOPT|        1     |       1     | 0.88923744E-02 | 0.16259376E+03 |  123.924
 BASOPT|        2     |       1     | 0.16352204E-01 | 0.20831773E+04 | 2097.160
 BASOPT|        3     |       1     | 0.50085624E-02 | 0.37276746E+03 |  124.351
 BASOPT|        4     |       1     | 0.58998907E-02 | 0.25428464E+03 |  124.198
 BASOPT| -----------------------------------------------------------------------
 BASOPT| Total residuum value: -.13503275E+04

 BASOPT| Information at iteration number:    1200
 BASOPT| Training set | Combination | Rho difference | Condition num. | Time
 BASOPT| -----------------------------------------------------------------------
 BASOPT|        1     |       1     | 0.88750395E-02 | 0.16020620E+03 |  135.158
 BASOPT|        2     |       1     | 0.16301762E-01 | 0.19486005E+04 | 2287.797
 BASOPT|        3     |       1     | 0.50018593E-02 | 0.37511207E+03 |  135.628
 BASOPT|        4     |       1     | 0.58910620E-02 | 0.25537472E+03 |  135.460
 BASOPT| -----------------------------------------------------------------------
 BASOPT| Total residuum value: -.13503432E+04

 BASOPT| Information at iteration number:    1300
 BASOPT| Training set | Combination | Rho difference | Condition num. | Time
 BASOPT| -----------------------------------------------------------------------
 BASOPT|        1     |       1     | 0.87398573E-02 | 0.15764471E+03 |  146.398
 BASOPT|        2     |       1     | 0.16453486E-01 | 0.19360068E+04 | 2478.419
 BASOPT|        3     |       1     | 0.49682946E-02 | 0.36957567E+03 |  146.907
 BASOPT|        4     |       1     | 0.57957163E-02 | 0.25194872E+03 |  146.723
 BASOPT| -----------------------------------------------------------------------
 BASOPT| Total residuum value: -.13503496E+04

 BASOPT| Information at iteration number:    1400
 BASOPT| Training set | Combination | Rho difference | Condition num. | Time
 BASOPT| -----------------------------------------------------------------------
 BASOPT|        1     |       1     | 0.87148195E-02 | 0.15879778E+03 |  157.647
 BASOPT|        2     |       1     | 0.16373175E-01 | 0.19728005E+04 | 2669.028
 BASOPT|        3     |       1     | 0.49698319E-02 | 0.38094200E+03 |  158.194
 BASOPT|        4     |       1     | 0.57943424E-02 | 0.25835924E+03 |  157.988
 BASOPT| -----------------------------------------------------------------------
 BASOPT| Total residuum value: -.13503532E+04

 BASOPT| Information at iteration number:    1500
 BASOPT| Training set | Combination | Rho difference | Condition num. | Time
 BASOPT| -----------------------------------------------------------------------
 BASOPT|        1     |       1     | 0.86286557E-02 | 0.15869558E+03 |  168.889
 BASOPT|        2     |       1     | 0.16338993E-01 | 0.19541802E+04 | 2859.629
 BASOPT|        3     |       1     | 0.49459260E-02 | 0.39954947E+03 |  169.474
 BASOPT|        4     |       1     | 0.57763029E-02 | 0.26741782E+03 |  169.254
 BASOPT| -----------------------------------------------------------------------
 BASOPT| Total residuum value: -.13503566E+04

 BASOPT| Information at iteration number:    1600
 BASOPT| Training set | Combination | Rho difference | Condition num. | Time
 BASOPT| -----------------------------------------------------------------------
 BASOPT|        1     |       1     | 0.85950531E-02 | 0.15783551E+03 |  180.135
 BASOPT|        2     |       1     | 0.16395487E-01 | 0.19477674E+04 | 3050.232
 BASOPT|        3     |       1     | 0.49314919E-02 | 0.39719263E+03 |  180.761
 BASOPT|        4     |       1     | 0.57508640E-02 | 0.26578158E+03 |  180.523
 BASOPT| -----------------------------------------------------------------------
 BASOPT| Total residuum value: -.13503579E+04

 BASOPT| Information at iteration number:    1700
 BASOPT| Training set | Combination | Rho difference | Condition num. | Time
 BASOPT| -----------------------------------------------------------------------
 BASOPT|        1     |       1     | 0.85985354E-02 | 0.15758207E+03 |  191.378
 BASOPT|        2     |       1     | 0.16407874E-01 | 0.19596904E+04 | 3240.814
 BASOPT|        3     |       1     | 0.49353513E-02 | 0.39528322E+03 |  192.042
 BASOPT|        4     |       1     | 0.57456666E-02 | 0.26481866E+03 |  191.792
 BASOPT| -----------------------------------------------------------------------
 BASOPT| Total residuum value: -.13503585E+04

 BASOPT| Information at iteration number:    1800
 BASOPT| Training set | Combination | Rho difference | Condition num. | Time
 BASOPT| -----------------------------------------------------------------------
 BASOPT|        1     |       1     | 0.85945487E-02 | 0.15708549E+03 |  202.632
 BASOPT|        2     |       1     | 0.16398984E-01 | 0.19678159E+04 | 3431.378
 BASOPT|        3     |       1     | 0.49584684E-02 | 0.39380215E+03 |  203.334
 BASOPT|        4     |       1     | 0.57333195E-02 | 0.26414374E+03 |  203.089
 BASOPT| -----------------------------------------------------------------------
 BASOPT| Total residuum value: -.13503592E+04

 BASOPT| Information at iteration number:    1900
 BASOPT| Training set | Combination | Rho difference | Condition num. | Time
 BASOPT| -----------------------------------------------------------------------
 BASOPT|        1     |       1     | 0.86220114E-02 | 0.15731417E+03 |  213.890
 BASOPT|        2     |       1     | 0.16326741E-01 | 0.19623855E+04 | 3622.015
 BASOPT|        3     |       1     | 0.49785076E-02 | 0.39620780E+03 |  214.631
 BASOPT|        4     |       1     | 0.57587267E-02 | 0.26533550E+03 |  214.380
 BASOPT| -----------------------------------------------------------------------
 BASOPT| Total residuum value: -.13503597E+04

 BASOPT| Information at iteration number:    2000
 BASOPT| Training set | Combination | Rho difference | Condition num. | Time
 BASOPT| -----------------------------------------------------------------------
 BASOPT|        1     |       1     | 0.86306617E-02 | 0.15660816E+03 |  225.146
 BASOPT|        2     |       1     | 0.16301426E-01 | 0.19385024E+04 | 3812.667
 BASOPT|        3     |       1     | 0.49920702E-02 | 0.39382640E+03 |  225.927
 BASOPT|        4     |       1     | 0.57615045E-02 | 0.26396912E+03 |  225.667
 BASOPT| -----------------------------------------------------------------------
 BASOPT| Total residuum value: -.13503604E+04

 BASOPT| Information at iteration number:    2100
 BASOPT| Training set | Combination | Rho difference | Condition num. | Time
 BASOPT| -----------------------------------------------------------------------
 BASOPT|        1     |       1     | 0.86227526E-02 | 0.15492265E+03 |  236.412
 BASOPT|        2     |       1     | 0.16315441E-01 | 0.18977604E+04 | 4003.277
 BASOPT|        3     |       1     | 0.49997848E-02 | 0.38866021E+03 |  237.222
 BASOPT|        4     |       1     | 0.57446772E-02 | 0.26070396E+03 |  236.964
 BASOPT| -----------------------------------------------------------------------
 BASOPT| Total residuum value: -.13503608E+04

 BASOPT| Information at iteration number:    2200
 BASOPT| Training set | Combination | Rho difference | Condition num. | Time
 BASOPT| -----------------------------------------------------------------------
 BASOPT|        1     |       1     | 0.86292048E-02 | 0.15435264E+03 |  247.670
 BASOPT|        2     |       1     | 0.16298503E-01 | 0.18793595E+04 | 4193.901
 BASOPT|        3     |       1     | 0.50085164E-02 | 0.38820086E+03 |  248.529
 BASOPT|        4     |       1     | 0.57450572E-02 | 0.26026126E+03 |  248.255
 BASOPT| -----------------------------------------------------------------------
 BASOPT| Total residuum value: -.13503611E+04

 BASOPT| Information at iteration number:    2300
 BASOPT| Training set | Combination | Rho difference | Condition num. | Time
 BASOPT| -----------------------------------------------------------------------
 BASOPT|        1     |       1     | 0.86262366E-02 | 0.15315577E+03 |  258.925
 BASOPT|        2     |       1     | 0.16323049E-01 | 0.18650152E+04 | 4384.562
 BASOPT|        3     |       1     | 0.50015379E-02 | 0.38525197E+03 |  259.841
 BASOPT|        4     |       1     | 0.57399739E-02 | 0.25829357E+03 |  259.548
 BASOPT| -----------------------------------------------------------------------
 BASOPT| Total residuum value: -.13503616E+04

 BASOPT| Information at iteration number:    2400
 BASOPT| Training set | Combination | Rho difference | Condition num. | Time
 BASOPT| -----------------------------------------------------------------------
 BASOPT|        1     |       1     | 0.86383008E-02 | 0.15260171E+03 |  270.178
 BASOPT|        2     |       1     | 0.16326345E-01 | 0.18687199E+04 | 4575.203
 BASOPT|        3     |       1     | 0.49995567E-02 | 0.38097487E+03 |  271.136
 BASOPT|        4     |       1     | 0.57346136E-02 | 0.25575381E+03 |  270.840
 BASOPT| -----------------------------------------------------------------------
 BASOPT| Total residuum value: -.13503620E+04

 BASOPT| Information at iteration number:    2500
 BASOPT| Training set | Combination | Rho difference | Condition num. | Time
 BASOPT| -----------------------------------------------------------------------
 BASOPT|        1     |       1     | 0.86388337E-02 | 0.15072721E+03 |  281.435
 BASOPT|        2     |       1     | 0.16344080E-01 | 0.18408225E+04 | 4765.818
 BASOPT|        3     |       1     | 0.50040423E-02 | 0.37520419E+03 |  282.434
 BASOPT|        4     |       1     | 0.57183669E-02 | 0.25223705E+03 |  282.129
 BASOPT| -----------------------------------------------------------------------
 BASOPT| Total residuum value: -.13503626E+04

 BASOPT| Information at iteration number:    2600
 BASOPT| Training set | Combination | Rho difference | Condition num. | Time
 BASOPT| -----------------------------------------------------------------------
 BASOPT|        1     |       1     | 0.86497584E-02 | 0.14927429E+03 |  292.701
 BASOPT|        2     |       1     | 0.16304219E-01 | 0.18025544E+04 | 4956.433
 BASOPT|        3     |       1     | 0.50181152E-02 | 0.37627357E+03 |  293.749
 BASOPT|        4     |       1     | 0.57298509E-02 | 0.25246680E+03 |  293.422
 BASOPT| -----------------------------------------------------------------------
 BASOPT| Total residuum value: -.13503630E+04

 BASOPT| Information at iteration number:    2700
 BASOPT| Training set | Combination | Rho difference | Condition num. | Time
 BASOPT| -----------------------------------------------------------------------
 BASOPT|        1     |       1     | 0.86453451E-02 | 0.14722240E+03 |  303.995
 BASOPT|        2     |       1     | 0.16307406E-01 | 0.17762465E+04 | 5147.006
 BASOPT|        3     |       1     | 0.50247155E-02 | 0.37325125E+03 |  305.077
 BASOPT|        4     |       1     | 0.57213070E-02 | 0.25031448E+03 |  304.746
 BASOPT| -----------------------------------------------------------------------
 BASOPT| Total residuum value: -.13503633E+04

 BASOPT| Information at iteration number:    2800
 BASOPT| Training set | Combination | Rho difference | Condition num. | Time
 BASOPT| -----------------------------------------------------------------------
 BASOPT|        1     |       1     | 0.86350744E-02 | 0.14491006E+03 |  315.326
 BASOPT|        2     |       1     | 0.16361056E-01 | 0.17524650E+04 | 5337.604
 BASOPT|        3     |       1     | 0.50165995E-02 | 0.36582823E+03 |  316.439
 BASOPT|        4     |       1     | 0.56995385E-02 | 0.24598792E+03 |  316.109
 BASOPT| -----------------------------------------------------------------------
 BASOPT| Total residuum value: -.13503638E+04

 BASOPT| Information at iteration number:    2900
 BASOPT| Training set | Combination | Rho difference | Condition num. | Time
 BASOPT| -----------------------------------------------------------------------
 BASOPT|        1     |       1     | 0.86634799E-02 | 0.14487252E+03 |  326.710
 BASOPT|        2     |       1     | 0.16327205E-01 | 0.17736036E+04 | 5528.278
 BASOPT|        3     |       1     | 0.50340908E-02 | 0.36598450E+03 |  327.857
 BASOPT|        4     |       1     | 0.57113302E-02 | 0.24622269E+03 |  327.529
 BASOPT| -----------------------------------------------------------------------
 BASOPT| Total residuum value: -.13503640E+04

 BASOPT| Information at iteration number:    3000
 BASOPT| Training set | Combination | Rho difference | Condition num. | Time
 BASOPT| -----------------------------------------------------------------------
 BASOPT|        1     |       1     | 0.86931554E-02 | 0.14513484E+03 |  338.022
 BASOPT|        2     |       1     | 0.16289217E-01 | 0.17977258E+04 | 5718.958
 BASOPT|        3     |       1     | 0.50489106E-02 | 0.36580962E+03 |  339.205
 BASOPT|        4     |       1     | 0.57154550E-02 | 0.24635804E+03 |  338.874
 BASOPT| -----------------------------------------------------------------------
 BASOPT| Total residuum value: -.13503645E+04

 BASOPT| Information at iteration number:    3100
 BASOPT| Training set | Combination | Rho difference | Condition num. | Time
 BASOPT| -----------------------------------------------------------------------
 BASOPT|        1     |       1     | 0.87092350E-02 | 0.14636789E+03 |  349.288
 BASOPT|        2     |       1     | 0.16262479E-01 | 0.18466949E+04 | 5909.655
 BASOPT|        3     |       1     | 0.50485859E-02 | 0.36691516E+03 |  350.508
 BASOPT|        4     |       1     | 0.57103307E-02 | 0.24711723E+03 |  350.158
 BASOPT| -----------------------------------------------------------------------
 BASOPT| Total residuum value: -.13503647E+04

 BASOPT| Information at iteration number:    3200
 BASOPT| Training set | Combination | Rho difference | Condition num. | Time
 BASOPT| -----------------------------------------------------------------------
 BASOPT|        1     |       1     | 0.86894652E-02 | 0.14519507E+03 |  360.552
 BASOPT|        2     |       1     | 0.16293876E-01 | 0.18347849E+04 | 6100.411
 BASOPT|        3     |       1     | 0.50329496E-02 | 0.36516840E+03 |  361.806
 BASOPT|        4     |       1     | 0.56917929E-02 | 0.24589429E+03 |  361.442
 BASOPT| -----------------------------------------------------------------------
 BASOPT| Total residuum value: -.13503650E+04

 BASOPT| Information at iteration number:    3300
 BASOPT| Training set | Combination | Rho difference | Condition num. | Time
 BASOPT| -----------------------------------------------------------------------
 BASOPT|        1     |       1     | 0.86885311E-02 | 0.14457362E+03 |  371.831
 BASOPT|        2     |       1     | 0.16285798E-01 | 0.18398806E+04 | 6291.138
 BASOPT|        3     |       1     | 0.50238471E-02 | 0.36535075E+03 |  373.125
 BASOPT|        4     |       1     | 0.56941290E-02 | 0.24574521E+03 |  372.742
 BASOPT| -----------------------------------------------------------------------
 BASOPT| Total residuum value: -.13503652E+04

 BASOPT| Information at iteration number:    3400
 BASOPT| Training set | Combination | Rho difference | Condition num. | Time
 BASOPT| -----------------------------------------------------------------------
 BASOPT|        1     |       1     | 0.86679195E-02 | 0.14254402E+03 |  383.164
 BASOPT|        2     |       1     | 0.16307898E-01 | 0.18182675E+04 | 6481.783
 BASOPT|        3     |       1     | 0.50191964E-02 | 0.36222053E+03 |  384.498
 BASOPT|        4     |       1     | 0.56812768E-02 | 0.24360019E+03 |  384.105
 BASOPT| -----------------------------------------------------------------------
 BASOPT| Total residuum value: -.13503655E+04

 BASOPT| Information at iteration number:    3500
 BASOPT| Training set | Combination | Rho difference | Condition num. | Time
 BASOPT| -----------------------------------------------------------------------
 BASOPT|        1     |       1     | 0.86699155E-02 | 0.14186856E+03 |  394.568
 BASOPT|        2     |       1     | 0.16306824E-01 | 0.18096620E+04 | 6672.499
 BASOPT|        3     |       1     | 0.50108413E-02 | 0.36263729E+03 |  395.934
 BASOPT|        4     |       1     | 0.56847923E-02 | 0.24373673E+03 |  395.536
 BASOPT| -----------------------------------------------------------------------
 BASOPT| Total residuum value: -.13503658E+04

 BASOPT| Information at iteration number:    3600
 BASOPT| Training set | Combination | Rho difference | Condition num. | Time
 BASOPT| -----------------------------------------------------------------------
 BASOPT|        1     |       1     | 0.86718004E-02 | 0.14106148E+03 |  405.968
 BASOPT|        2     |       1     | 0.16302664E-01 | 0.17989122E+04 | 6863.191
 BASOPT|        3     |       1     | 0.50160318E-02 | 0.36301890E+03 |  407.375
 BASOPT|        4     |       1     | 0.56919619E-02 | 0.24390078E+03 |  406.970
 BASOPT| -----------------------------------------------------------------------
 BASOPT| Total residuum value: -.13503658E+04

 BASOPT| Information at iteration number:    3700
 BASOPT| Training set | Combination | Rho difference | Condition num. | Time
 BASOPT| -----------------------------------------------------------------------
 BASOPT|        1     |       1     | 0.86786047E-02 | 0.14172262E+03 |  417.369
 BASOPT|        2     |       1     | 0.16260362E-01 | 0.18343000E+04 | 7053.861
 BASOPT|        3     |       1     | 0.50285784E-02 | 0.36590544E+03 |  418.814
 BASOPT|        4     |       1     | 0.56821261E-02 | 0.24569927E+03 |  418.411
 BASOPT| -----------------------------------------------------------------------
 BASOPT| Total residuum value: -.13503664E+04

 BASOPT| Information at iteration number:    3800
 BASOPT| Training set | Combination | Rho difference | Condition num. | Time
 BASOPT| -----------------------------------------------------------------------
 BASOPT|        1     |       1     | 0.86827412E-02 | 0.14139099E+03 |  428.766
 BASOPT|        2     |       1     | 0.16233060E-01 | 0.18288364E+04 | 7244.551
 BASOPT|        3     |       1     | 0.50290572E-02 | 0.36800754E+03 |  430.251
 BASOPT|        4     |       1     | 0.56838126E-02 | 0.24691991E+03 |  429.854
 BASOPT| -----------------------------------------------------------------------
 BASOPT| Total residuum value: -.13503665E+04

 BASOPT| Information at iteration number:    3900
 BASOPT| Training set | Combination | Rho difference | Condition num. | Time
 BASOPT| -----------------------------------------------------------------------
 BASOPT|        1     |       1     | 0.87008094E-02 | 0.14059468E+03 |  440.154
 BASOPT|        2     |       1     | 0.16219401E-01 | 0.18334580E+04 | 7435.293
 BASOPT|        3     |       1     | 0.50085874E-02 | 0.36718876E+03 |  441.687
 BASOPT|        4     |       1     | 0.56862827E-02 | 0.24662149E+03 |  441.292
 BASOPT| -----------------------------------------------------------------------
 BASOPT| Total residuum value: -.13503668E+04

 BASOPT| Information at iteration number:    4000
 BASOPT| Training set | Combination | Rho difference | Condition num. | Time
 BASOPT| -----------------------------------------------------------------------
 BASOPT|        1     |       1     | 0.86528028E-02 | 0.13906919E+03 |  451.537
 BASOPT|        2     |       1     | 0.16272365E-01 | 0.18196013E+04 | 7626.018
 BASOPT|        3     |       1     | 0.50139891E-02 | 0.36476810E+03 |  453.123
 BASOPT|        4     |       1     | 0.56564139E-02 | 0.24499025E+03 |  452.725
 BASOPT| -----------------------------------------------------------------------
 BASOPT| Total residuum value: -.13503671E+04

 BASOPT| Information at iteration number:    4100
 BASOPT| Training set | Combination | Rho difference | Condition num. | Time
 BASOPT| -----------------------------------------------------------------------
 BASOPT|        1     |       1     | 0.86793810E-02 | 0.13880864E+03 |  462.924
 BASOPT|        2     |       1     | 0.16254500E-01 | 0.18307142E+04 | 7816.740
 BASOPT|        3     |       1     | 0.50082651E-02 | 0.36444504E+03 |  464.559
 BASOPT|        4     |       1     | 0.56675706E-02 | 0.24483227E+03 |  464.157
 BASOPT| -----------------------------------------------------------------------
 BASOPT| Total residuum value: -.13503673E+04

 BASOPT| Information at iteration number:    4200
 BASOPT| Training set | Combination | Rho difference | Condition num. | Time
 BASOPT| -----------------------------------------------------------------------
 BASOPT|        1     |       1     | 0.86816328E-02 | 0.13745714E+03 |  474.304
 BASOPT|        2     |       1     | 0.16266280E-01 | 0.18091963E+04 | 8007.455
 BASOPT|        3     |       1     | 0.49904825E-02 | 0.36388714E+03 |  475.994
 BASOPT|        4     |       1     | 0.56705249E-02 | 0.24426730E+03 |  475.595
 BASOPT| -----------------------------------------------------------------------
 BASOPT| Total residuum value: -.13503674E+04

 BASOPT| Information at iteration number:    4300
 BASOPT| Training set | Combination | Rho difference | Condition num. | Time
 BASOPT| -----------------------------------------------------------------------
 BASOPT|        1     |       1     | 0.86789464E-02 | 0.13618619E+03 |  485.690
 BASOPT|        2     |       1     | 0.16238607E-01 | 0.17775978E+04 | 8198.213
 BASOPT|        3     |       1     | 0.50016886E-02 | 0.36399124E+03 |  487.435
 BASOPT|        4     |       1     | 0.56735820E-02 | 0.24422148E+03 |  487.032
 BASOPT| -----------------------------------------------------------------------
 BASOPT| Total residuum value: -.13503678E+04

 BASOPT| Information at iteration number:    4400
 BASOPT| Training set | Combination | Rho difference | Condition num. | Time
 BASOPT| -----------------------------------------------------------------------
 BASOPT|        1     |       1     | 0.87071687E-02 | 0.13525592E+03 |  497.079
 BASOPT|        2     |       1     | 0.16236970E-01 | 0.17668229E+04 | 8389.029
 BASOPT|        3     |       1     | 0.49857811E-02 | 0.36106655E+03 |  498.876
 BASOPT|        4     |       1     | 0.56730296E-02 | 0.24269354E+03 |  498.478
 BASOPT| -----------------------------------------------------------------------
 BASOPT| Total residuum value: -.13503681E+04

 BASOPT| Information at iteration number:    4500
 BASOPT| Training set | Combination | Rho difference | Condition num. | Time
 BASOPT| -----------------------------------------------------------------------
 BASOPT|        1     |       1     | 0.87110624E-02 | 0.13404358E+03 |  508.472
 BASOPT|        2     |       1     | 0.16228650E-01 | 0.17430731E+04 | 8579.884
 BASOPT|        3     |       1     | 0.50071270E-02 | 0.35834491E+03 |  510.320
 BASOPT|        4     |       1     | 0.56733883E-02 | 0.24126679E+03 |  509.921
 BASOPT| -----------------------------------------------------------------------
 BASOPT| Total residuum value: -.13503684E+04

 BASOPT| Information at iteration number:    4600
 BASOPT| Training set | Combination | Rho difference | Condition num. | Time
 BASOPT| -----------------------------------------------------------------------
 BASOPT|        1     |       1     | 0.87142296E-02 | 0.13353926E+03 |  519.873
 BASOPT|        2     |       1     | 0.16214013E-01 | 0.17368523E+04 | 8770.735
 BASOPT|        3     |       1     | 0.50218030E-02 | 0.35853968E+03 |  521.763
 BASOPT|        4     |       1     | 0.56734649E-02 | 0.24146033E+03 |  521.356
 BASOPT| -----------------------------------------------------------------------
 BASOPT| Total residuum value: -.13503685E+04

 BASOPT| Information at iteration number:    4700
 BASOPT| Training set | Combination | Rho difference | Condition num. | Time
 BASOPT| -----------------------------------------------------------------------
 BASOPT|        1     |       1     | 0.87311334E-02 | 0.13316736E+03 |  531.283
 BASOPT|        2     |       1     | 0.16190954E-01 | 0.17299694E+04 | 8961.605
 BASOPT|        3     |       1     | 0.50308308E-02 | 0.35891691E+03 |  533.231
 BASOPT|        4     |       1     | 0.56876470E-02 | 0.24172035E+03 |  532.793
 BASOPT| -----------------------------------------------------------------------
 BASOPT| Total residuum value: -.13503686E+04

 BASOPT| Information at iteration number:    4800
 BASOPT| Training set | Combination | Rho difference | Condition num. | Time
 BASOPT| -----------------------------------------------------------------------
 BASOPT|        1     |       1     | 0.87396121E-02 | 0.13286067E+03 |  542.696
 BASOPT|        2     |       1     | 0.16165253E-01 | 0.17328294E+04 | 9152.475
 BASOPT|        3     |       1     | 0.50425045E-02 | 0.36025133E+03 |  544.700
 BASOPT|        4     |       1     | 0.56904924E-02 | 0.24239053E+03 |  544.230
 BASOPT| -----------------------------------------------------------------------
 BASOPT| Total residuum value: -.13503689E+04

 BASOPT| Information at iteration number:    4900
 BASOPT| Training set | Combination | Rho difference | Condition num. | Time
 BASOPT| -----------------------------------------------------------------------
 BASOPT|        1     |       1     | 0.87535856E-02 | 0.13226978E+03 |  554.107
 BASOPT|        2     |       1     | 0.16160923E-01 | 0.17331347E+04 | 9343.352
 BASOPT|        3     |       1     | 0.50385624E-02 | 0.35953731E+03 |  556.168
 BASOPT|        4     |       1     | 0.56897638E-02 | 0.24193499E+03 |  555.671
 BASOPT| -----------------------------------------------------------------------
 BASOPT| Total residuum value: -.13503690E+04

 BASOPT| Information at iteration number:    5000
 BASOPT| Training set | Combination | Rho difference | Condition num. | Time
 BASOPT| -----------------------------------------------------------------------
 BASOPT|        1     |       1     | 0.87789597E-02 | 0.13036655E+03 |  565.512
 BASOPT|        2     |       1     | 0.16107683E-01 | 0.17110403E+04 | 9534.183
 BASOPT|        3     |       1     | 0.50618529E-02 | 0.36079965E+03 |  567.639
 BASOPT|        4     |       1     | 0.57027179E-02 | 0.24240931E+03 |  567.115
 BASOPT| -----------------------------------------------------------------------
 BASOPT| Total residuum value: -.13503696E+04

 BASOPT| Information at iteration number:    5100
 BASOPT| Training set | Combination | Rho difference | Condition num. | Time
 BASOPT| -----------------------------------------------------------------------
 BASOPT|        1     |       1     | 0.87911338E-02 | 0.12889031E+03 |  576.921
 BASOPT|        2     |       1     | 0.16118548E-01 | 0.17134200E+04 | 9725.089
 BASOPT|        3     |       1     | 0.50602375E-02 | 0.35890303E+03 |  579.094
 BASOPT|        4     |       1     | 0.56978284E-02 | 0.24107983E+03 |  578.559
 BASOPT| -----------------------------------------------------------------------
 BASOPT| Total residuum value: -.13503701E+04

 BASOPT| Information at iteration number:    5200
 BASOPT| Training set | Combination | Rho difference | Condition num. | Time
 BASOPT| -----------------------------------------------------------------------
 BASOPT|        1     |       1     | 0.88024883E-02 | 0.12751258E+03 |  588.333
 BASOPT|        2     |       1     | 0.16112105E-01 | 0.17044332E+04 | 9915.966
 BASOPT|        3     |       1     | 0.50676708E-02 | 0.35686572E+03 |  590.552
 BASOPT|        4     |       1     | 0.57035725E-02 | 0.23975625E+03 |  590.006
 BASOPT| -----------------------------------------------------------------------
 BASOPT| Total residuum value: -.13503704E+04

 BASOPT| Information at iteration number:    5300
 BASOPT| Training set | Combination | Rho difference | Condition num. | Time
 BASOPT| -----------------------------------------------------------------------
 BASOPT|        1     |       1     | 0.88085307E-02 | 0.12693979E+03 |  599.742
 BASOPT|        2     |       1     | 0.16084083E-01 | 0.17037850E+04 | ********
 BASOPT|        3     |       1     | 0.50889718E-02 | 0.35859090E+03 |  602.005
 BASOPT|        4     |       1     | 0.57134617E-02 | 0.24050379E+03 |  601.454
 BASOPT| -----------------------------------------------------------------------
 BASOPT| Total residuum value: -.13503707E+04

 BASOPT| Information at iteration number:    5400
 BASOPT| Training set | Combination | Rho difference | Condition num. | Time
 BASOPT| -----------------------------------------------------------------------
 BASOPT|        1     |       1     | 0.87920423E-02 | 0.12568692E+03 |  611.154
 BASOPT|        2     |       1     | 0.16084825E-01 | 0.16987891E+04 | ********
 BASOPT|        3     |       1     | 0.50847106E-02 | 0.36026145E+03 |  613.457
 BASOPT|        4     |       1     | 0.57124075E-02 | 0.24091601E+03 |  612.899
 BASOPT| -----------------------------------------------------------------------
 BASOPT| Total residuum value: -.13503710E+04

 BASOPT| Information at iteration number:    5500
 BASOPT| Training set | Combination | Rho difference | Condition num. | Time
 BASOPT| -----------------------------------------------------------------------
 BASOPT|        1     |       1     | 0.87973355E-02 | 0.12551779E+03 |  622.562
 BASOPT|        2     |       1     | 0.16090533E-01 | 0.17062604E+04 | ********
 BASOPT|        3     |       1     | 0.50854443E-02 | 0.35878679E+03 |  624.911
 BASOPT|        4     |       1     | 0.57127434E-02 | 0.24015370E+03 |  624.346
 BASOPT| -----------------------------------------------------------------------
 BASOPT| Total residuum value: -.13503712E+04

 BASOPT| Information at iteration number:    5600
 BASOPT| Training set | Combination | Rho difference | Condition num. | Time
 BASOPT| -----------------------------------------------------------------------
 BASOPT|        1     |       1     | 0.88022048E-02 | 0.12633207E+03 |  633.966
 BASOPT|        2     |       1     | 0.16054090E-01 | 0.17381463E+04 | ********
 BASOPT|        3     |       1     | 0.51076486E-02 | 0.36119180E+03 |  636.361
 BASOPT|        4     |       1     | 0.57153073E-02 | 0.24156780E+03 |  635.786
 BASOPT| -----------------------------------------------------------------------
 BASOPT| Total residuum value: -.13503714E+04

 BASOPT| Information at iteration number:    5700
 BASOPT| Training set | Combination | Rho difference | Condition num. | Time
 BASOPT| -----------------------------------------------------------------------
 BASOPT|        1     |       1     | 0.87832446E-02 | 0.12525056E+03 |  645.371
 BASOPT|        2     |       1     | 0.16093457E-01 | 0.17338683E+04 | ********
 BASOPT|        3     |       1     | 0.50965514E-02 | 0.35738304E+03 |  647.817
 BASOPT|        4     |       1     | 0.56945912E-02 | 0.23934200E+03 |  647.223
 BASOPT| -----------------------------------------------------------------------
 BASOPT| Total residuum value: -.13503715E+04

 BASOPT| Information at iteration number:    5800
 BASOPT| Training set | Combination | Rho difference | Condition num. | Time
 BASOPT| -----------------------------------------------------------------------
 BASOPT|        1     |       1     | 0.87981015E-02 | 0.12554228E+03 |  656.777
 BASOPT|        2     |       1     | 0.16064321E-01 | 0.17544932E+04 | ********
 BASOPT|        3     |       1     | 0.51090248E-02 | 0.35855483E+03 |  659.266
 BASOPT|        4     |       1     | 0.57053153E-02 | 0.23988784E+03 |  658.669
 BASOPT| -----------------------------------------------------------------------
 BASOPT| Total residuum value: -.13503717E+04

 BASOPT| Information at iteration number:    5900
 BASOPT| Training set | Combination | Rho difference | Condition num. | Time
 BASOPT| -----------------------------------------------------------------------
 BASOPT|        1     |       1     | 0.88223687E-02 | 0.12451838E+03 |  668.182
 BASOPT|        2     |       1     | 0.16030368E-01 | 0.17506477E+04 | ********
 BASOPT|        3     |       1     | 0.51180210E-02 | 0.36024345E+03 |  670.717
 BASOPT|        4     |       1     | 0.57267880E-02 | 0.24044057E+03 |  670.118
 BASOPT| -----------------------------------------------------------------------
 BASOPT| Total residuum value: -.13503721E+04

 BASOPT| Information at iteration number:    6000
 BASOPT| Training set | Combination | Rho difference | Condition num. | Time
 BASOPT| -----------------------------------------------------------------------
 BASOPT|        1     |       1     | 0.88124505E-02 | 0.12303549E+03 |  679.582
 BASOPT|        2     |       1     | 0.16040905E-01 | 0.17235099E+04 | ********
 BASOPT|        3     |       1     | 0.51090988E-02 | 0.35963269E+03 |  682.167
 BASOPT|        4     |       1     | 0.57251556E-02 | 0.23980733E+03 |  681.562
 BASOPT| -----------------------------------------------------------------------
 BASOPT| Total residuum value: -.13503724E+04

 BASOPT| Information at iteration number:    6100
 BASOPT| Training set | Combination | Rho difference | Condition num. | Time
 BASOPT| -----------------------------------------------------------------------
 BASOPT|        1     |       1     | 0.88043577E-02 | 0.12204202E+03 |  690.981
 BASOPT|        2     |       1     | 0.16021746E-01 | 0.17053829E+04 | ********
 BASOPT|        3     |       1     | 0.51217926E-02 | 0.36197492E+03 |  693.614
 BASOPT|        4     |       1     | 0.57277469E-02 | 0.24092943E+03 |  693.001
 BASOPT| -----------------------------------------------------------------------
 BASOPT| Total residuum value: -.13503726E+04

 BASOPT| Information at iteration number:    6200
 BASOPT| Training set | Combination | Rho difference | Condition num. | Time
 BASOPT| -----------------------------------------------------------------------
 BASOPT|        1     |       1     | 0.88186782E-02 | 0.12151414E+03 |  702.378
 BASOPT|        2     |       1     | 0.15987302E-01 | 0.17051699E+04 | ********
 BASOPT|        3     |       1     | 0.51379872E-02 | 0.36441919E+03 |  705.060
 BASOPT|        4     |       1     | 0.57399616E-02 | 0.24214923E+03 |  704.439
 BASOPT| -----------------------------------------------------------------------
 BASOPT| Total residuum value: -.13503728E+04

 BASOPT| Information at iteration number:    6300
 BASOPT| Training set | Combination | Rho difference | Condition num. | Time
 BASOPT| -----------------------------------------------------------------------
 BASOPT|        1     |       1     | 0.88232417E-02 | 0.12026323E+03 |  713.780
 BASOPT|        2     |       1     | 0.15961944E-01 | 0.16865641E+04 | ********
 BASOPT|        3     |       1     | 0.51570247E-02 | 0.36612387E+03 |  716.509
 BASOPT|        4     |       1     | 0.57532297E-02 | 0.24286676E+03 |  715.882
 BASOPT| -----------------------------------------------------------------------
 BASOPT| Total residuum value: -.13503730E+04

 BASOPT| Information at iteration number:    6400
 BASOPT| Training set | Combination | Rho difference | Condition num. | Time
 BASOPT| -----------------------------------------------------------------------
 BASOPT|        1     |       1     | 0.88436437E-02 | 0.12046032E+03 |  725.181
 BASOPT|        2     |       1     | 0.15965434E-01 | 0.17165637E+04 | ********
 BASOPT|        3     |       1     | 0.51629133E-02 | 0.36379038E+03 |  727.958
 BASOPT|        4     |       1     | 0.57568024E-02 | 0.24173339E+03 |  727.326
 BASOPT| -----------------------------------------------------------------------
 BASOPT| Total residuum value: -.13503732E+04

 BASOPT| Information at iteration number:    6500
 BASOPT| Training set | Combination | Rho difference | Condition num. | Time
 BASOPT| -----------------------------------------------------------------------
 BASOPT|        1     |       1     | 0.88440904E-02 | 0.12006396E+03 |  736.578
 BASOPT|        2     |       1     | 0.15958545E-01 | 0.17210810E+04 | ********
 BASOPT|        3     |       1     | 0.51823514E-02 | 0.36303860E+03 |  739.402
 BASOPT|        4     |       1     | 0.57559524E-02 | 0.24132589E+03 |  738.758
 BASOPT| -----------------------------------------------------------------------
 BASOPT| Total residuum value: -.13503734E+04

 BASOPT| Information at iteration number:    6600
 BASOPT| Training set | Combination | Rho difference | Condition num. | Time
 BASOPT| -----------------------------------------------------------------------
 BASOPT|        1     |       1     | 0.88504911E-02 | 0.11960110E+03 |  747.979
 BASOPT|        2     |       1     | 0.15947087E-01 | 0.17248676E+04 | ********
 BASOPT|        3     |       1     | 0.51957976E-02 | 0.36401130E+03 |  750.847
 BASOPT|        4     |       1     | 0.57612199E-02 | 0.24180042E+03 |  750.190
 BASOPT| -----------------------------------------------------------------------
 BASOPT| Total residuum value: -.13503734E+04

 BASOPT| Information at iteration number:    6700
 BASOPT| Training set | Combination | Rho difference | Condition num. | Time
 BASOPT| -----------------------------------------------------------------------
 BASOPT|        1     |       1     | 0.88520288E-02 | 0.11947631E+03 |  759.378
 BASOPT|        2     |       1     | 0.15937649E-01 | 0.17283959E+04 | ********
 BASOPT|        3     |       1     | 0.52013012E-02 | 0.36512101E+03 |  762.292
 BASOPT|        4     |       1     | 0.57605623E-02 | 0.24242130E+03 |  761.623
 BASOPT| -----------------------------------------------------------------------
 BASOPT| Total residuum value: -.13503736E+04

 BASOPT| Information at iteration number:    6800
 BASOPT| Training set | Combination | Rho difference | Condition num. | Time
 BASOPT| -----------------------------------------------------------------------
 BASOPT|        1     |       1     | 0.88498450E-02 | 0.11935413E+03 |  770.777
 BASOPT|        2     |       1     | 0.15948539E-01 | 0.17419036E+04 | ********
 BASOPT|        3     |       1     | 0.52053395E-02 | 0.36430995E+03 |  773.740
 BASOPT|        4     |       1     | 0.57563221E-02 | 0.24195590E+03 |  773.066
 BASOPT| -----------------------------------------------------------------------
 BASOPT| Total residuum value: -.13503737E+04

 BASOPT| Information at iteration number:    6900
 BASOPT| Training set | Combination | Rho difference | Condition num. | Time
 BASOPT| -----------------------------------------------------------------------
 BASOPT|        1     |       1     | 0.88455125E-02 | 0.11872329E+03 |  782.159
 BASOPT|        2     |       1     | 0.15949759E-01 | 0.17333640E+04 | ********
 BASOPT|        3     |       1     | 0.52152319E-02 | 0.36279794E+03 |  785.184
 BASOPT|        4     |       1     | 0.57578129E-02 | 0.24110231E+03 |  784.494
 BASOPT| -----------------------------------------------------------------------
 BASOPT| Total residuum value: -.13503739E+04

 BASOPT| Information at iteration number:    7000
 BASOPT| Training set | Combination | Rho difference | Condition num. | Time
 BASOPT| -----------------------------------------------------------------------
 BASOPT|        1     |       1     | 0.88644850E-02 | 0.11896596E+03 |  793.542
 BASOPT|        2     |       1     | 0.15932368E-01 | 0.17484754E+04 | ********
 BASOPT|        3     |       1     | 0.52142544E-02 | 0.36364662E+03 |  796.635
 BASOPT|        4     |       1     | 0.57709074E-02 | 0.24154548E+03 |  795.911
 BASOPT| -----------------------------------------------------------------------
 BASOPT| Total residuum value: -.13503740E+04

 BASOPT| Information at iteration number:    7100
 BASOPT| Training set | Combination | Rho difference | Condition num. | Time
 BASOPT| -----------------------------------------------------------------------
 BASOPT|        1     |       1     | 0.88618238E-02 | 0.11820559E+03 |  804.913
 BASOPT|        2     |       1     | 0.15946935E-01 | 0.17413421E+04 | ********
 BASOPT|        3     |       1     | 0.52127083E-02 | 0.36120883E+03 |  808.066
 BASOPT|        4     |       1     | 0.57742571E-02 | 0.24009688E+03 |  807.328
 BASOPT| -----------------------------------------------------------------------
 BASOPT| Total residuum value: -.13503740E+04

 BASOPT| Information at iteration number:    7200
 BASOPT| Training set | Combination | Rho difference | Condition num. | Time
 BASOPT| -----------------------------------------------------------------------
 BASOPT|        1     |       1     | 0.88733793E-02 | 0.11805309E+03 |  816.284
 BASOPT|        2     |       1     | 0.15942511E-01 | 0.17580045E+04 | ********
 BASOPT|        3     |       1     | 0.51983902E-02 | 0.36005549E+03 |  819.510
 BASOPT|        4     |       1     | 0.57729639E-02 | 0.23924577E+03 |  818.747
 BASOPT| -----------------------------------------------------------------------
 BASOPT| Total residuum value: -.13503743E+04

 BASOPT| Information at iteration number:    7300
 BASOPT| Training set | Combination | Rho difference | Condition num. | Time
 BASOPT| -----------------------------------------------------------------------
 BASOPT|        1     |       1     | 0.88680856E-02 | 0.11767623E+03 |  827.664
 BASOPT|        2     |       1     | 0.15941017E-01 | 0.17483119E+04 | ********
 BASOPT|        3     |       1     | 0.51992682E-02 | 0.36004322E+03 |  830.934
 BASOPT|        4     |       1     | 0.57755261E-02 | 0.23915544E+03 |  830.163
 BASOPT| -----------------------------------------------------------------------
 BASOPT| Total residuum value: -.13503743E+04

 BASOPT| Information at iteration number:    7400
 BASOPT| Training set | Combination | Rho difference | Condition num. | Time
 BASOPT| -----------------------------------------------------------------------
 BASOPT|        1     |       1     | 0.88553769E-02 | 0.11799888E+03 |  839.051
 BASOPT|        2     |       1     | 0.15918566E-01 | 0.17558836E+04 | ********
 BASOPT|        3     |       1     | 0.52091419E-02 | 0.36330083E+03 |  842.363
 BASOPT|        4     |       1     | 0.57711630E-02 | 0.24090227E+03 |  841.579
 BASOPT| -----------------------------------------------------------------------
 BASOPT| Total residuum value: -.13503744E+04

 BASOPT| Information at iteration number:    7500
 BASOPT| Training set | Combination | Rho difference | Condition num. | Time
 BASOPT| -----------------------------------------------------------------------
 BASOPT|        1     |       1     | 0.88764782E-02 | 0.11827894E+03 |  850.426
 BASOPT|        2     |       1     | 0.15872232E-01 | 0.17626001E+04 | ********
 BASOPT|        3     |       1     | 0.52234949E-02 | 0.36668413E+03 |  853.790
 BASOPT|        4     |       1     | 0.57908236E-02 | 0.24274054E+03 |  852.995
 BASOPT| -----------------------------------------------------------------------
 BASOPT| Total residuum value: -.13503745E+04

 BASOPT| Information at iteration number:    7600
 BASOPT| Training set | Combination | Rho difference | Condition num. | Time
 BASOPT| -----------------------------------------------------------------------
 BASOPT|        1     |       1     | 0.88648147E-02 | 0.11758752E+03 |  861.807
 BASOPT|        2     |       1     | 0.15889809E-01 | 0.17519870E+04 | ********
 BASOPT|        3     |       1     | 0.52195952E-02 | 0.36495719E+03 |  865.216
 BASOPT|        4     |       1     | 0.57875927E-02 | 0.24162466E+03 |  864.414
 BASOPT| -----------------------------------------------------------------------
 BASOPT| Total residuum value: -.13503746E+04

 BASOPT| Information at iteration number:    7700
 BASOPT| Training set | Combination | Rho difference | Condition num. | Time
 BASOPT| -----------------------------------------------------------------------
 BASOPT|        1     |       1     | 0.88665873E-02 | 0.11797278E+03 |  873.183
 BASOPT|        2     |       1     | 0.15873438E-01 | 0.17656901E+04 | ********
 BASOPT|        3     |       1     | 0.52255457E-02 | 0.36686530E+03 |  876.665
 BASOPT|        4     |       1     | 0.57906108E-02 | 0.24262800E+03 |  875.836
 BASOPT| -----------------------------------------------------------------------
 BASOPT| Total residuum value: -.13503746E+04

 BASOPT| Information at iteration number:    7800
 BASOPT| Training set | Combination | Rho difference | Condition num. | Time
 BASOPT| -----------------------------------------------------------------------
 BASOPT|        1     |       1     | 0.88633000E-02 | 0.11754031E+03 |  884.561
 BASOPT|        2     |       1     | 0.15878776E-01 | 0.17576569E+04 | ********
 BASOPT|        3     |       1     | 0.52166041E-02 | 0.36652692E+03 |  888.120
 BASOPT|        4     |       1     | 0.57911754E-02 | 0.24224870E+03 |  887.266
 BASOPT| -----------------------------------------------------------------------
 BASOPT| Total residuum value: -.13503747E+04

 BASOPT| Information at iteration number:    7900
 BASOPT| Training set | Combination | Rho difference | Condition num. | Time
 BASOPT| -----------------------------------------------------------------------
 BASOPT|        1     |       1     | 0.88559510E-02 | 0.11717162E+03 |  895.937
 BASOPT|        2     |       1     | 0.15887533E-01 | 0.17536129E+04 | ********
 BASOPT|        3     |       1     | 0.52157461E-02 | 0.36583751E+03 |  899.577
 BASOPT|        4     |       1     | 0.57879108E-02 | 0.24175700E+03 |  898.699
 BASOPT| -----------------------------------------------------------------------
 BASOPT| Total residuum value: -.13503747E+04

 BASOPT| Information at iteration number:    8000
 BASOPT| Training set | Combination | Rho difference | Condition num. | Time
 BASOPT| -----------------------------------------------------------------------
 BASOPT|        1     |       1     | 0.88498892E-02 | 0.11677953E+03 |  907.319
 BASOPT|        2     |       1     | 0.15893843E-01 | 0.17516548E+04 | ********
 BASOPT|        3     |       1     | 0.52172400E-02 | 0.36551609E+03 |  911.019
 BASOPT|        4     |       1     | 0.57881173E-02 | 0.24138045E+03 |  910.132
 BASOPT| -----------------------------------------------------------------------
 BASOPT| Total residuum value: -.13503748E+04

 BASOPT| Information at iteration number:    8100
 BASOPT| Training set | Combination | Rho difference | Condition num. | Time
 BASOPT| -----------------------------------------------------------------------
 BASOPT|        1     |       1     | 0.88581511E-02 | 0.11691130E+03 |  918.695
 BASOPT|        2     |       1     | 0.15884313E-01 | 0.17590427E+04 | ********
 BASOPT|        3     |       1     | 0.52198650E-02 | 0.36587556E+03 |  922.453
 BASOPT|        4     |       1     | 0.57925291E-02 | 0.24151239E+03 |  921.563
 BASOPT| -----------------------------------------------------------------------
 BASOPT| Total residuum value: -.13503748E+04

 BASOPT| Information at iteration number:    8200
 BASOPT| Training set | Combination | Rho difference | Condition num. | Time
 BASOPT| -----------------------------------------------------------------------
 BASOPT|        1     |       1     | 0.88618376E-02 | 0.11702759E+03 |  930.073
 BASOPT|        2     |       1     | 0.15886693E-01 | 0.17647477E+04 | ********
 BASOPT|        3     |       1     | 0.52155858E-02 | 0.36516184E+03 |  933.891
 BASOPT|        4     |       1     | 0.57923995E-02 | 0.24115159E+03 |  932.993
 BASOPT| -----------------------------------------------------------------------
 BASOPT| Total residuum value: -.13503748E+04

 BASOPT| Information at iteration number:    8300
 BASOPT| Training set | Combination | Rho difference | Condition num. | Time
 BASOPT| -----------------------------------------------------------------------
 BASOPT|        1     |       1     | 0.88627563E-02 | 0.11709787E+03 |  941.452
 BASOPT|        2     |       1     | 0.15885852E-01 | 0.17671611E+04 | ********
 BASOPT|        3     |       1     | 0.52162450E-02 | 0.36521922E+03 |  945.327
 BASOPT|        4     |       1     | 0.57926408E-02 | 0.24119481E+03 |  944.421
 BASOPT| -----------------------------------------------------------------------
 BASOPT| Total residuum value: -.13503748E+04

 BASOPT| Information at iteration number:    8400
 BASOPT| Training set | Combination | Rho difference | Condition num. | Time
 BASOPT| -----------------------------------------------------------------------
 BASOPT|        1     |       1     | 0.88623211E-02 | 0.11708388E+03 |  952.827
 BASOPT|        2     |       1     | 0.15885958E-01 | 0.17666526E+04 | ********
 BASOPT|        3     |       1     | 0.52163053E-02 | 0.36521556E+03 |  956.766
 BASOPT|        4     |       1     | 0.57924917E-02 | 0.24119053E+03 |  955.851
 BASOPT| -----------------------------------------------------------------------
 BASOPT| Total residuum value: -.13503748E+04

 BASOPT| Information at iteration number:    8500
 BASOPT| Training set | Combination | Rho difference | Condition num. | Time
 BASOPT| -----------------------------------------------------------------------
 BASOPT|        1     |       1     | 0.88624033E-02 | 0.11708623E+03 |  964.208
 BASOPT|        2     |       1     | 0.15885872E-01 | 0.17667185E+04 | ********
 BASOPT|        3     |       1     | 0.52163405E-02 | 0.36521854E+03 |  968.198
 BASOPT|        4     |       1     | 0.57925581E-02 | 0.24119237E+03 |  967.273
 BASOPT| -----------------------------------------------------------------------
 BASOPT| Total residuum value: -.13503748E+04

 BASOPT| Information at iteration number:    8600
 BASOPT| Training set | Combination | Rho difference | Condition num. | Time
 BASOPT| -----------------------------------------------------------------------
 BASOPT|        1     |       1     | 0.88624042E-02 | 0.11708632E+03 |  975.575
 BASOPT|        2     |       1     | 0.15885872E-01 | 0.17667230E+04 | ********
 BASOPT|        3     |       1     | 0.52163415E-02 | 0.36521866E+03 |  979.628
 BASOPT|        4     |       1     | 0.57925575E-02 | 0.24119242E+03 |  978.696
 BASOPT| -----------------------------------------------------------------------
 BASOPT| Total residuum value: -.13503748E+04

 BASOPT| Information at iteration number:    8700
 BASOPT| Training set | Combination | Rho difference | Condition num. | Time
 BASOPT| -----------------------------------------------------------------------
 BASOPT|        1     |       1     | 0.88624046E-02 | 0.11708635E+03 |  986.936
 BASOPT|        2     |       1     | 0.15885872E-01 | 0.17667238E+04 | ********
 BASOPT|        3     |       1     | 0.52163414E-02 | 0.36521864E+03 |  991.049
 BASOPT|        4     |       1     | 0.57925576E-02 | 0.24119241E+03 |  990.113
 BASOPT| -----------------------------------------------------------------------
 BASOPT| Total residuum value: -.13503748E+04

 BASOPT| Information at iteration number:    8800
 BASOPT| Training set | Combination | Rho difference | Condition num. | Time
 BASOPT| -----------------------------------------------------------------------
 BASOPT|        1     |       1     | 0.88624047E-02 | 0.11708635E+03 |  998.299
 BASOPT|        2     |       1     | 0.15885872E-01 | 0.17667240E+04 | ********
 BASOPT|        3     |       1     | 0.52163415E-02 | 0.36521865E+03 | 1002.469
 BASOPT|        4     |       1     | 0.57925577E-02 | 0.24119242E+03 | 1001.527
 BASOPT| -----------------------------------------------------------------------
 BASOPT| Total residuum value: -.13503748E+04

 BASOPT| Information at iteration number:    8900
 BASOPT| Training set | Combination | Rho difference | Condition num. | Time
 BASOPT| -----------------------------------------------------------------------
 BASOPT|        1     |       1     | 0.88624047E-02 | 0.11708635E+03 | 1009.664
 BASOPT|        2     |       1     | 0.15885872E-01 | 0.17667240E+04 | ********
 BASOPT|        3     |       1     | 0.52163415E-02 | 0.36521865E+03 | 1013.894
 BASOPT|        4     |       1     | 0.57925577E-02 | 0.24119242E+03 | 1012.946
 BASOPT| -----------------------------------------------------------------------
 BASOPT| Total residuum value: -.13503748E+04

 BASOPT| Information at iteration number:    9000
 BASOPT| Training set | Combination | Rho difference | Condition num. | Time
 BASOPT| -----------------------------------------------------------------------
 BASOPT|        1     |       1     | 0.88624047E-02 | 0.11708635E+03 | 1021.028
 BASOPT|        2     |       1     | 0.15885872E-01 | 0.17667240E+04 | ********
 BASOPT|        3     |       1     | 0.52163415E-02 | 0.36521865E+03 | 1025.322
 BASOPT|        4     |       1     | 0.57925577E-02 | 0.24119242E+03 | 1024.374
 BASOPT| -----------------------------------------------------------------------
 BASOPT| Total residuum value: -.13503748E+04

 BASOPT| Information at iteration number:    9100
 BASOPT| Training set | Combination | Rho difference | Condition num. | Time
 BASOPT| -----------------------------------------------------------------------
 BASOPT|        1     |       1     | 0.88624047E-02 | 0.11708635E+03 | 1032.394
 BASOPT|        2     |       1     | 0.15885872E-01 | 0.17667240E+04 | ********
 BASOPT|        3     |       1     | 0.52163415E-02 | 0.36521865E+03 | 1036.753
 BASOPT|        4     |       1     | 0.57925577E-02 | 0.24119242E+03 | 1035.810
 BASOPT| -----------------------------------------------------------------------
 BASOPT| Total residuum value: -.13503748E+04


 -------------------------------------------------------------------------------
 -                                                                             -
 -                                DBCSR STATISTICS                             -
 -                                                                             -
 -------------------------------------------------------------------------------
 COUNTER                                    TOTAL       BLAS       SMM       ACC
 flops   144 x   144 x     5               414720       0.0%    100.0%      0.0%
 flops   144 x   116 x    16              1069056       0.0%    100.0%      0.0%
 flops   144 x   116 x    17              1135872       0.0%    100.0%      0.0%
 flops   144 x   116 x    18              1202688       0.0%    100.0%      0.0%
 flops   144 x   144 x    16              1327104       0.0%    100.0%      0.0%
 flops   144 x   144 x    17              1410048       0.0%    100.0%      0.0%
 flops   144 x   144 x    18              1492992       0.0%    100.0%      0.0%
 flops   116 x   144 x     5              2004480       0.0%    100.0%      0.0%
 flops   144 x   116 x     5              2004480       0.0%    100.0%      0.0%
 flops   116 x   144 x    16              2138112       0.0%    100.0%      0.0%
 flops   116 x   144 x    17              2271744       0.0%    100.0%      0.0%
 flops   116 x   144 x    18              2405376       0.0%    100.0%      0.0%
 flops   144 x   144 x    32              2654208       0.0%    100.0%      0.0%
 flops   116 x   116 x    16              5167104       0.0%    100.0%      0.0%
 flops   116 x   116 x    17              5490048       0.0%    100.0%      0.0%
 flops   116 x   116 x    18              5812992       0.0%    100.0%      0.0%
 flops   116 x   144 x    32             12828672       0.0%    100.0%      0.0%
 flops   144 x   116 x    32             12828672       0.0%    100.0%      0.0%
 flops   116 x   116 x     5             20991360       0.0%    100.0%      0.0%
 flops   116 x   116 x    32            134344704       0.0%    100.0%      0.0%
 flops inhomo. stacks                           0       0.0%      0.0%      0.0%
 flops total                       218.994432E+06       0.0%    100.0%      0.0%
 flops max/rank                     25.889344E+06       0.0%    100.0%      0.0%
 matmuls inhomo. stacks                         0       0.0%      0.0%      0.0%
 matmuls total                                424       0.0%    100.0%      0.0%
 number of processed stacks                   138       0.0%    100.0%      0.0%
 average stack size                                     0.0       3.1       0.0
 marketing flops                   398.556864E+06
 -------------------------------------------------------------------------------
 # multiplications                              2
 max memory usage/rank             152.481792E+06
 # max total images/rank                        3
 # max 3D layers                                1
 # MPI messages exchanged                     768
 MPI messages size (bytes):
  total size                         7.864704E+06
  min size                           0.000000E+00
  max size                         207.872000E+03
  average size                      10.240500E+03
 MPI breakdown and total messages size (bytes):
             size <=      128                 620                        0
       128 < size <=     8192                   0                        0
      8192 < size <=    32768                  76                  1751232
     32768 < size <=   131072                  52                  2181312
    131072 < size <=  4194304                  20                  3932160
   4194304 < size <= 16777216                   0                        0
  16777216 < size                               0                        0
 -------------------------------------------------------------------------------

 *** WARNING in dbcsr_mm.F:294 :: Using a non-square number of MPI ranks ***
 *** might lead to poor performance. Used ranks: 12 Suggested: 9 25      ***

 -------------------------------------------------------------------------------
 -                                                                             -
 -                      DBCSR MESSAGE PASSING PERFORMANCE                      -
 -                                                                             -
 -------------------------------------------------------------------------------
 ROUTINE             CALLS      AVE VOLUME [Bytes]
 MP_Bcast               21                     12.
 MP_Allreduce           73                     21.
 MP_Alltoall        661494                  62021.
 MP_ISend               44                   3363.
 MP_IRecv               40                     56.
 -------------------------------------------------------------------------------

 -------------------------------------------------------------------------------
 -                                                                             -
 -                                GRID STATISTICS                              -
 -                                                                             -
 -------------------------------------------------------------------------------
 LP    KERNEL             BACKEND                              COUNT     PERCENT
 2     collocate ortho    REF                                  27978      17.88%
 2     integrate ortho    REF                                  27978      17.88%
 5     collocate ortho    REF                                  27704      17.71%
 5     integrate ortho    REF                                  27704      17.71%
 4     collocate ortho    REF                                  10054       6.43%
 4     integrate ortho    REF                                  10054       6.43%
 8     collocate ortho    REF                                   6782       4.33%
 8     integrate ortho    REF                                   6782       4.33%
 7     collocate ortho    REF                                   3838       2.45%
 7     integrate ortho    REF                                   3838       2.45%
 6     collocate ortho    REF                                   1868       1.19%
 6     integrate ortho    REF                                   1868       1.19%
 0     collocate general  REF                                     25       0.02%
 -------------------------------------------------------------------------------

 MEMORY| Estimated peak process memory [MiB]                                 213

 -------------------------------------------------------------------------------
 -                                                                             -
 -                         MESSAGE PASSING PERFORMANCE                         -
 -                                                                             -
 -------------------------------------------------------------------------------

 ROUTINE             CALLS      AVE VOLUME [Bytes]
 MP_Bcast            36790                    834.
 MP_Allreduce       165738                     38.
 MP_Sync             36748
 MP_Alltoall            34                 915607.
 MP_ISendRecv          187                  67584.
 MP_Wait               187
 MP_comm_split       27562
 -------------------------------------------------------------------------------


 -------------------------------------------------------------------------------
 -                                                                             -
 -                           R E F E R E N C E S                               -
 -                                                                             -
 -------------------------------------------------------------------------------
 
 CP2K version 9.0 (Development Version), the CP2K developers group (2020).
 CP2K is freely available from https://www.cp2k.org/ .

 Kuehne,Thomas D.; Iannuzzi,Marcella; Del Ben,Mauro;
 Rybkin,Vladimir V.; Seewald,Patrick; Stein,Frederick; Laino,Teodoro;
 Khaliullin,Rustam Z.; Schuett,Ole; Schiffmann,Florian; Golze,Dorothea;
 Wilhelm,Jan; Chulkov,Sergey; Bani-Hashemian,Mohammad Hossein;
 Weber,Valery; Borstnik,Urban; Taillefumier,Mathieu;
 Jakobovits,Alice Shoshana; Lazzaro,Alfio; Pabst,Hans; Mueller,Tiziano;
 Schade,Robert; Guidon,Manuel; Andermatt,Samuel; Holmberg,Nico;
 Schenter,Gregory K.; Hehn,Anna; Bussy,Augustin; Belleflamme,Fabian;
 Tabacchi,Gloria; Gloess,Andreas; Lass,Michael; Bethune,Iain;
 Mundy,Christopher J.; Plessl,Christian; Watkins,Matt;
 VandeVondele,Joost; Krack,Matthias; Hutter,Juerg. 
 The Journal of Chemical Physics, 152 (19), (2020). 
 CP2K: An electronic structure and molecular dynamics software package -
 Quickstep: Efficient and accurate electronic structure calculations.
 https://doi.org/10.1063/5.0007045

 Schuett, Ole; Messmer, Peter; Hutter, Juerg; VandeVondele, Joost. 
 Electronic Structure Calculations on Graphics Processing Units, John
 Wiley & Sons, Ltd, 173-190 (2016). 
 GPU-Accelerated Sparse Matrix-Matrix Multiplication for
 Linear Scaling Density Functional Theory.
 https://doi.org/10.1002/9781118670712.ch8

 Borstnik, U; VandeVondele, J; Weber, V; Hutter, J. 
 PARALLEL COMPUTING, 40 (5-6), 47-58 (2014). 
 Sparse matrix multiplication: The distributed block-compressed sparse
 row library.
 https://doi.org/10.1016/j.parco.2014.03.012

 Hutter, J; Iannuzzi, M; Schiffmann, F; VandeVondele, J. 
 WIREs Comput Mol Sci., 4 (1), 15-25 (2014). 
 CP2K: atomistic simulations of condensed matter systems.
 https://doi.org/10.1002/wcms.1159

 Marek, A; Blum, V; Johanni, R; Havu, V; Lang, B; Auckenthaler, T;
 Heinecke, A; Bungartz, H; Lederer, H. 
 Journal of Physics: Condensed Matter, 26 (21), (2014). 
 The ELPA library: scalable parallel eigenvalue solutions for
 electronic structure
 theory and computational science.
 https://doi.org/10.1088/0953-8984/26/21/213201

 Guidon, M; Hutter, J; VandeVondele, J. 
 JOURNAL OF CHEMICAL THEORY AND COMPUTATION, 6 (8), 2348-2364 (2010). 
 Auxiliary Density Matrix Methods for Hartree-Fock Exchange Calculations.
 https://doi.org/10.1021/ct1002225

 VandeVondele, J; Hutter, J. 
 JOURNAL OF CHEMICAL PHYSICS, 127 (11), 114105 (2007). 
 Gaussian basis sets for accurate calculations on molecular systems in
 gas and condensed phases.
 https://doi.org/10.1063/1.2770708

 Krack, M. 
 THEORETICAL CHEMISTRY ACCOUNTS, 114 (1-3), 145-152 (2005). 
 Pseudopotentials for H to Kr optimized for gradient-corrected
 exchange-correlation functionals.
 https://doi.org/10.1007/s00214-005-0655-y

 VandeVondele, J; Krack, M; Mohamed, F; Parrinello, M; Chassaing, T;
 Hutter, J. COMPUTER PHYSICS COMMUNICATIONS, 167 (2), 103-128 (2005). 
 QUICKSTEP: Fast and accurate density functional calculations using a
 mixed Gaussian and plane waves approach.
 https://doi.org/10.1016/j.cpc.2004.12.014

 Frigo, M; Johnson, SG. 
 PROCEEDINGS OF THE IEEE, 93 (2), 216-231 (2005). 
 The design and implementation of FFTW3.
 https://doi.org/10.1109/JPROC.2004.840301

 Hartwigsen, C; Goedecker, S; Hutter, J. 
 PHYSICAL REVIEW B, 58 (7), 3641-3662 (1998). 
 Relativistic separable dual-space Gaussian pseudopotentials from H to Rn.
 https://doi.org/10.1103/PhysRevB.58.3641

 Lippert, G; Hutter, J; Parrinello, M. 
 MOLECULAR PHYSICS, 92 (3), 477-487 (1997). 
 A hybrid Gaussian and plane wave density functional scheme.
 https://doi.org/10.1080/002689797170220

 Perdew, JP; Burke, K; Ernzerhof, M. 
 PHYSICAL REVIEW LETTERS, 77 (18), 3865-3868 (1996). 
 Generalized gradient approximation made simple.
 https://doi.org/10.1103/PhysRevLett.77.3865

 Goedecker, S; Teter, M; Hutter, J. 
 PHYSICAL REVIEW B, 54 (3), 1703-1710 (1996). 
 Separable dual-space Gaussian pseudopotentials.
 https://doi.org/10.1103/PhysRevB.54.1703


 -------------------------------------------------------------------------------
 -                                                                             -
 -                                T I M I N G                                  -
 -                                                                             -
 -------------------------------------------------------------------------------
 SUBROUTINE                       CALLS  ASD         SELF TIME        TOTAL TIME
                                MAXIMUM       AVERAGE  MAXIMUM  AVERAGE  MAXIMUM
 CP2K                                 1  1.0     0.00     0.00 17532.59 17535.05
 run_optimize_basis                   1  2.0     0.00     0.00 17532.58 17535.04
 driver_para_opt_basis                1  3.0     0.00     0.00 17532.57 17535.03
 driver_optimization_para_low         1  4.0     0.07     0.14 17532.57 17535.03
 compute_residuum_vectors          9187  5.0     0.66     0.82 17528.02 17530.84
 cp_gemm                         192927  7.1     0.30     0.42  4661.28 16645.78
 cp_gemm_fm_gemm                 192927  8.1     0.18     0.24  4660.98 16645.36
 cp_fm_gemm                      192927  9.1  4660.80 16645.12  4660.80 16645.12
 mp_sum_dv                        45936  5.8 12364.36 16488.61 12364.36 16488.61
 admm_fit_mo_coeffs                9187  6.0     0.03     0.04  1839.77  6074.23
 fit_mo_coeffs                     9187  7.0     0.09     0.15  1322.14  4427.69
 purify_mo_diag                    9187  7.0     0.22     0.33   517.60  1680.79
 copy_dbcsr_to_fm                 55123  6.7     0.66     1.05   258.81   479.01
 build_overlap_matrix_low         18378  6.0   105.09   413.58   105.55   414.14
 dbcsr_desymmetrize_deep          55123  7.7     3.43    21.78   206.12   360.73
 -------------------------------------------------------------------------------

 The number of warnings for this run is : 1
 
 -------------------------------------------------------------------------------
  **** **** ******  **  PROGRAM ENDED AT                 2021-01-24 20:43:35.703
 ***** ** ***  *** **   PROGRAM RAN ON                                   tcopt10
 **    ****   ******    PROGRAM RAN BY                                    hutter
 ***** **    ** ** **   PROGRAM PROCESS ID                                 12007
  **** **  *******  **  PROGRAM STOPPED IN /data/hutter/GITHUB/BASIS/MOLOPT/PBE/
                                           Cr
