 DBCSR| CPU Multiplication driver                                           XSMM
 DBCSR| Multrec recursion limit                                              512
 DBCSR| Multiplication stack size                                           1000
 DBCSR| Maximum elements for images                                    UNLIMITED
 DBCSR| Multiplicative factor virtual images                                   1
 DBCSR| Use multiplication densification                                       T
 DBCSR| Multiplication size stacks                                             3
 DBCSR| Use memory pool for CPU allocation                                     F
 DBCSR| Number of 3D layers                                               SINGLE
 DBCSR| Use MPI memory allocation                                              F
 DBCSR| Use RMA algorithm                                                      F
 DBCSR| Use Communication thread                                               T
 DBCSR| Communication thread load                                             87
 DBCSR| Split modifier for TAS multiplication algorithm                  1.0E+00


  **** **** ******  **  PROGRAM STARTED AT               2020-11-30 16:50:54.402
 ***** ** ***  *** **   PROGRAM STARTED ON                               tcopt10
 **    ****   ******    PROGRAM STARTED BY                                hutter
 ***** **    ** ** **   PROGRAM PROCESS ID                                 33143
  **** **  *******  **  PROGRAM STARTED IN /data/hutter/GITHUB/BASIS/MOLOPT/PBE0
                                           /alsipscl

 CP2K| version string:                    CP2K version 8.0 (Development Version)
 CP2K| source code revision number:                                  git:afc71fa
 CP2K| cp2kflags: omp libint fftw3 libxc elpa parallel mpi3 scalapack xsmm spgli
 CP2K|            b sirius
 CP2K| is freely available from                            https://www.cp2k.org/
 CP2K| Program compiled at                          Tue Nov 17 10:27:14 CET 2020
 CP2K| Program compiled on                                               tcopt10
 CP2K| Program compiled for                                                local
 CP2K| Data directory path                 /data/hutter/GITHUB/CURRENT/cp2k/data
 CP2K| Input file name                                             Al2O3-ref.inp

 GLOBAL| Force Environment number                                              1
 GLOBAL| Basis set file name                                  ../PBE0_UCSEGBASIS
 GLOBAL| Potential file name                                        ../POTENTIAL
 GLOBAL| MM Potential file name                                     MM_POTENTIAL
 GLOBAL| Coordinate file name                                      __STD_INPUT__
 GLOBAL| Method name                                                        CP2K
 GLOBAL| Project name                                                   refAl2O3
 GLOBAL| Preferred FFT library                                             FFTW3
 GLOBAL| Preferred diagonalization lib.                                     ELPA
 GLOBAL| Run type                                                         ENERGY
 GLOBAL| All-to-all communication in single precision                          F
 GLOBAL| FFTs using library dependent lengths                                  F
 GLOBAL| Global print level                                                  LOW
 GLOBAL| MPI I/O enabled                                                       T
 GLOBAL| Total number of message passing processes                            36
 GLOBAL| Number of threads for this process                                    1
 GLOBAL| This output is from process                                           0
 GLOBAL| CPU model name                          AMD EPYC 7401 24-Core Processor
 GLOBAL| CPUID                                                              1002

 MEMORY| system memory details [Kb]
 MEMORY|                        rank 0           min           max       average
 MEMORY| MemTotal            263987256     263987256     263987256     263987256
 MEMORY| MemFree             258507432     258507432     258507432     258507432
 MEMORY| Buffers                    32            32            32            32
 MEMORY| Cached                1941572       1941572       1941572       1941572
 MEMORY| Slab                   768732        768732        768732        768732
 MEMORY| SReclaimable           280484        280484        280484        280484
 MEMORY| MemLikelyFree       260729520     260729520     260729520     260729520


 GENERATE|  Preliminary Number of Bonds generated:                             0
 GENERATE|  Achieved consistency in connectivity generation.

 *******************************************************************************
 *   ___                                                                       *
 *  /   \                                                                      *
 * [ABORT]                                                                     *
 *  \___/  The requested atomic potential <GTH-PBE-q6> for element <O> was not *
 *    |                 found in the potential file <../POTENTIAL>             *
 *  O/|                                                                        *
 * /| |                                                                        *
 * / \                                  subsys/external_potential_types.F:2325 *
 *******************************************************************************


 ===== Routine Calling Stack ===== 

            3 read_qs_kind
            2 create_qs_kind_set
            1 CP2K
 DBCSR| CPU Multiplication driver                                           XSMM
 DBCSR| Multrec recursion limit                                              512
 DBCSR| Multiplication stack size                                           1000
 DBCSR| Maximum elements for images                                    UNLIMITED
 DBCSR| Multiplicative factor virtual images                                   1
 DBCSR| Use multiplication densification                                       T
 DBCSR| Multiplication size stacks                                             3
 DBCSR| Use memory pool for CPU allocation                                     F
 DBCSR| Number of 3D layers                                               SINGLE
 DBCSR| Use MPI memory allocation                                              F
 DBCSR| Use RMA algorithm                                                      F
 DBCSR| Use Communication thread                                               T
 DBCSR| Communication thread load                                             87
 DBCSR| Split modifier for TAS multiplication algorithm                  1.0E+00


  **** **** ******  **  PROGRAM STARTED AT               2020-11-30 17:10:52.108
 ***** ** ***  *** **   PROGRAM STARTED ON                               tcopt10
 **    ****   ******    PROGRAM STARTED BY                                hutter
 ***** **    ** ** **   PROGRAM PROCESS ID                                 39164
  **** **  *******  **  PROGRAM STARTED IN /data/hutter/GITHUB/BASIS/MOLOPT/PBE0
                                           /alsipscl

 CP2K| version string:                    CP2K version 8.0 (Development Version)
 CP2K| source code revision number:                                  git:afc71fa
 CP2K| cp2kflags: omp libint fftw3 libxc elpa parallel mpi3 scalapack xsmm spgli
 CP2K|            b sirius
 CP2K| is freely available from                            https://www.cp2k.org/
 CP2K| Program compiled at                          Tue Nov 17 10:27:14 CET 2020
 CP2K| Program compiled on                                               tcopt10
 CP2K| Program compiled for                                                local
 CP2K| Data directory path                 /data/hutter/GITHUB/CURRENT/cp2k/data
 CP2K| Input file name                                             Al2O3-ref.inp

 GLOBAL| Force Environment number                                              1
 GLOBAL| Basis set file name                                  ../PBE0_UCSEGBASIS
 GLOBAL| Potential file name                                        ../POTENTIAL
 GLOBAL| MM Potential file name                                     MM_POTENTIAL
 GLOBAL| Coordinate file name                                      __STD_INPUT__
 GLOBAL| Method name                                                        CP2K
 GLOBAL| Project name                                                   refAl2O3
 GLOBAL| Preferred FFT library                                             FFTW3
 GLOBAL| Preferred diagonalization lib.                                     ELPA
 GLOBAL| Run type                                                         ENERGY
 GLOBAL| All-to-all communication in single precision                          F
 GLOBAL| FFTs using library dependent lengths                                  F
 GLOBAL| Global print level                                                  LOW
 GLOBAL| MPI I/O enabled                                                       T
 GLOBAL| Total number of message passing processes                            36
 GLOBAL| Number of threads for this process                                    1
 GLOBAL| This output is from process                                           0
 GLOBAL| CPU model name                          AMD EPYC 7401 24-Core Processor
 GLOBAL| CPUID                                                              1002

 MEMORY| system memory details [Kb]
 MEMORY|                        rank 0           min           max       average
 MEMORY| MemTotal            263987256     263987256     263987256     263987256
 MEMORY| MemFree             258473020     258473020     258473020     258473020
 MEMORY| Buffers                    32            32            32            32
 MEMORY| Cached                1951624       1951624       1951624       1951624
 MEMORY| Slab                   769920        769920        769920        769920
 MEMORY| SReclaimable           276580        276580        276580        276580
 MEMORY| MemLikelyFree       260701256     260701256     260701256     260701256


 GENERATE|  Preliminary Number of Bonds generated:                             0
 GENERATE|  Achieved consistency in connectivity generation.

 *******************************************************************************
 *******************************************************************************
 **                                                                           **
 **     #####                         ##              ##                      **
 **    ##   ##            ##          ##              ##                      **
 **   ##     ##                       ##            ######                    **
 **   ##     ##  ##   ##  ##   #####  ##  ##   ####   ##    #####    #####    **
 **   ##     ##  ##   ##  ##  ##      ## ##   ##      ##   ##   ##  ##   ##   **
 **   ##  ## ##  ##   ##  ##  ##      ####     ###    ##   ######   ######    **
 **    ##  ###   ##   ##  ##  ##      ## ##      ##   ##   ##       ##        **
 **     #######   #####   ##   #####  ##  ##  ####    ##    #####   ##        **
 **           ##                                                    ##        **
 **                                                                           **
 **                                                ... make the atoms dance   **
 **                                                                           **
 **            Copyright (C) by CP2K developers group (2000 - 2020)           **
 **                      J. Chem. Phys. 152, 194103 (2020)                    **
 **                                                                           **
 *******************************************************************************


 TOTAL NUMBERS AND MAXIMUM NUMBERS

  Total number of            - Atomic kinds:                                   2
                             - Atoms:                                          5
                             - Shell sets:                                    60
                             - Shells:                                       116
                             - Primitive Cartesian functions:                 60
                             - Cartesian basis functions:                    480
                             - Spherical basis functions:                    388

  Maximum angular momentum of- Orbital basis functions:                        4
                             - Local part of the GTH pseudopotential:          2
                             - Non-local part of the GTH pseudopotential:      2


 SCF PARAMETERS         Density guess:                                    ATOMIC
                        --------------------------------------------------------
                        max_scf:                                              10
                        max_scf_history:                                       0
                        max_diis:                                              4
                        --------------------------------------------------------
                        eps_scf:                                        1.00E-07
                        eps_scf_history:                                0.00E+00
                        eps_diis:                                       1.00E-01
                        eps_eigval:                                     1.00E-05
                        --------------------------------------------------------
                        level_shift [a.u.]:                                 0.00
                        --------------------------------------------------------
                        Outer loop SCF in use 
                        No variables optimised in outer loop
                        eps_scf                                         1.00E-07
                        max_scf                                               10
                        No outer loop optimization
                        step_size                                       5.00E-01

 Number of electrons:                                                         24
 Number of occupied orbitals:                                                 12
 Number of molecular orbitals:                                                12

 Number of orbital functions:                                                388
 Number of independent orbital functions:                                    388

 Extrapolation method: initial_guess


 SCF WAVEFUNCTION OPTIMIZATION

  ----------------------------------- OT ---------------------------------------
  Minimizer      : DIIS                : direct inversion
                                         in the iterative subspace
                                         using   7 DIIS vectors
                                         safer DIIS on
  Preconditioner : FULL_ALL            : diagonalization, state selective
  Precond_solver : DEFAULT
  stepsize       :    0.15000000                  energy_gap     :    0.08000000
  eps_taylor     :   0.10000E-15                  max_taylor     :             4
  ----------------------------------- OT ---------------------------------------

  Step     Update method      Time    Convergence         Total energy    Change
  ------------------------------------------------------------------------------
     1 OT DIIS     0.15E+00   28.6     0.07205830       -50.3717132727 -5.04E+01
     2 OT DIIS     0.15E+00    1.4     0.05765721       -50.8792368100 -5.08E-01
     3 OT DIIS     0.15E+00    1.2     0.05843982       -51.3711943173 -4.92E-01
     4 OT DIIS     0.15E+00    1.2     0.02891284       -51.6758896165 -3.05E-01
     5 OT DIIS     0.15E+00    1.3     0.01660728       -51.8537279753 -1.78E-01
     6 OT DIIS     0.15E+00    1.2     0.01326665       -51.9387862612 -8.51E-02
     7 OT DIIS     0.15E+00    1.2     0.01827980       -51.9800531325 -4.13E-02
     8 OT DIIS     0.15E+00    1.2     0.01259352       -52.0382342430 -5.82E-02
     9 OT DIIS     0.15E+00    1.2     0.01607901       -52.0904047326 -5.22E-02
    10 OT DIIS     0.15E+00    1.2     0.00936398       -52.1004774874 -1.01E-02

  Leaving inner SCF loop after reaching    10 steps.


  Electronic density on regular grids:        -23.9999999999        0.0000000001
  Core density on regular grids:               24.0000000000        0.0000000000
  Total charge density on r-space grids:        0.0000000001
  Total charge density g-space grids:           0.0000000001

  Overlap energy of the core charge distribution:               0.00000006986146
  Self energy of the core charge distribution:               -134.49271480640292
  Core Hamiltonian energy:                                     37.64858611442828
  Hartree energy:                                              56.74483611153393
  Exchange-correlation energy:                                 -9.25064685498473
  Hartree-Fock Exchange energy:                                -2.75053812184136

  Total energy:                                               -52.10047748740532

  outer SCF iter =    1 RMS gradient =   0.94E-02 energy =        -52.1004774874

  ----------------------------------- OT ---------------------------------------
  Minimizer      : DIIS                : direct inversion
                                         in the iterative subspace
                                         using   7 DIIS vectors
                                         safer DIIS on
  Preconditioner : FULL_ALL            : diagonalization, state selective
  Precond_solver : DEFAULT
  stepsize       :    0.15000000                  energy_gap     :    0.08000000
  eps_taylor     :   0.10000E-15                  max_taylor     :             4
  ----------------------------------- OT ---------------------------------------

  Step     Update method      Time    Convergence         Total energy    Change
  ------------------------------------------------------------------------------
     1 OT DIIS     0.15E+00    2.5     0.00408161       -52.1315294677 -3.11E-02
     2 OT DIIS     0.15E+00    1.2     0.00341142       -52.1375606792 -6.03E-03
     3 OT DIIS     0.15E+00    1.3     0.00187985       -52.1397296709 -2.17E-03
     4 OT DIIS     0.15E+00    1.3     0.00047996       -52.1413306708 -1.60E-03
     5 OT DIIS     0.15E+00    1.2     0.00025338       -52.1414193153 -8.86E-05
     6 OT DIIS     0.15E+00    1.2     0.00014574       -52.1414487152 -2.94E-05
     7 OT DIIS     0.15E+00    1.2     0.00005995       -52.1414549557 -6.24E-06
     8 OT DIIS     0.15E+00    1.3     0.00000946       -52.1414559360 -9.80E-07
     9 OT DIIS     0.15E+00    1.2     0.00000322       -52.1414559907 -5.47E-08
    10 OT DIIS     0.15E+00    1.2     0.00000115       -52.1414559982 -7.55E-09

  Leaving inner SCF loop after reaching    10 steps.


  Electronic density on regular grids:        -24.0000000000        0.0000000000
  Core density on regular grids:               24.0000000000        0.0000000000
  Total charge density on r-space grids:        0.0000000000
  Total charge density g-space grids:           0.0000000000

  Overlap energy of the core charge distribution:               0.00000006986146
  Self energy of the core charge distribution:               -134.49271480640292
  Core Hamiltonian energy:                                     37.48227426082844
  Hartree energy:                                              56.85852503557081
  Exchange-correlation energy:                                 -9.23952970361773
  Hartree-Fock Exchange energy:                                -2.75001085447586

  Total energy:                                               -52.14145599823579

  outer SCF iter =    2 RMS gradient =   0.12E-05 energy =        -52.1414559982

  ----------------------------------- OT ---------------------------------------
  Minimizer      : DIIS                : direct inversion
                                         in the iterative subspace
                                         using   7 DIIS vectors
                                         safer DIIS on
  Preconditioner : FULL_ALL            : diagonalization, state selective
  Precond_solver : DEFAULT
  stepsize       :    0.15000000                  energy_gap     :    0.08000000
  eps_taylor     :   0.10000E-15                  max_taylor     :             4
  ----------------------------------- OT ---------------------------------------

  Step     Update method      Time    Convergence         Total energy    Change
  ------------------------------------------------------------------------------
     1 OT DIIS     0.15E+00    2.5     0.00000048       -52.1414559987 -4.62E-10
     2 OT DIIS     0.15E+00    1.3     0.00000020       -52.1414559988 -1.17E-10
     3 OT SD       0.15E+00    1.2     0.00000035       -52.1414559988 -1.84E-11
     4 OT DIIS     0.15E+00    1.2     0.00000028       -52.1414559988  2.09E-11
     5 OT DIIS     0.15E+00    1.3     0.00000026       -52.1414559988 -3.09E-12
     6 OT SD       0.15E+00    1.2     0.00000024       -52.1414559988 -7.04E-12
     7 OT DIIS     0.15E+00    1.2     0.00000005       -52.1414559988 -2.13E-11

  *** SCF run converged in     7 steps ***


  Electronic density on regular grids:        -24.0000000000        0.0000000000
  Core density on regular grids:               24.0000000000        0.0000000000
  Total charge density on r-space grids:        0.0000000000
  Total charge density g-space grids:           0.0000000000

  Overlap energy of the core charge distribution:               0.00000006986146
  Self energy of the core charge distribution:               -134.49271480640292
  Core Hamiltonian energy:                                     37.48231928647608
  Hartree energy:                                              56.85848833075470
  Exchange-correlation energy:                                 -9.23953597727916
  Hartree-Fock Exchange energy:                                -2.75001290225405

  Total energy:                                               -52.14145599884387

  outer SCF iter =    3 RMS gradient =   0.48E-07 energy =        -52.1414559988
  outer SCF loop converged in   3 iterations or   27 steps


 ENERGY| Total FORCE_EVAL ( QS ) energy [a.u.]:              -52.141455998843867

 -------------------------------------------------------------------------------
 -                                                                             -
 -                                DBCSR STATISTICS                             -
 -                                                                             -
 -------------------------------------------------------------------------------
 COUNTER                                    TOTAL       BLAS       SMM       ACC
 flops    12 x    12 x    12               653184       0.0%    100.0%      0.0%
 flops    12 x    12 x    52              4987008       0.0%    100.0%      0.0%
 flops    52 x    12 x    12              6200064       0.0%    100.0%      0.0%
 flops    12 x    12 x   116              7416576       0.0%    100.0%      0.0%
 flops   116 x    12 x    12              9220608       0.0%    100.0%      0.0%
 flops    52 x    52 x    12             10902528       0.0%    100.0%      0.0%
 flops    52 x   116 x    12             12160512       0.0%    100.0%      0.0%
 flops   116 x    52 x    12             12160512       0.0%    100.0%      0.0%
 flops   116 x   116 x    12             27127296       0.0%    100.0%      0.0%
 flops    52 x    12 x    52             78264576       0.0%    100.0%      0.0%
 flops   116 x    12 x    52            116393472       0.0%    100.0%      0.0%
 flops    52 x    12 x   116            116393472       0.0%    100.0%      0.0%
 flops   116 x    12 x   116            173097984       0.0%    100.0%      0.0%
 flops inhomo. stacks                           0       0.0%      0.0%      0.0%
 flops total                       574.977792E+06       0.0%    100.0%      0.0%
 flops max/rank                    171.455232E+06       0.0%    100.0%      0.0%
 matmuls inhomo. stacks                         0       0.0%      0.0%      0.0%
 matmuls total                               5204       0.0%    100.0%      0.0%
 number of processed stacks                  5204       0.0%    100.0%      0.0%
 average stack size                                     0.0       1.0       0.0
 marketing flops                   614.128448E+06
 -------------------------------------------------------------------------------
 # multiplications                            603
 max memory usage/rank               1.312743E+09
 # max total images/rank                        1
 # max 3D layers                                1
 # MPI messages exchanged                  217080
 MPI messages size (bytes):
  total size                       912.320000E+06
  min size                           0.000000E+00
  max size                         107.648000E+03
  average size                       4.202690E+03
 MPI breakdown and total messages size (bytes):
             size <=      128              184000                        0
       128 < size <=     8192               10830                 44156160
      8192 < size <=    32768               11530                191688960
     32768 < size <=   131072               10720                676474880
    131072 < size <=  4194304                   0                        0
   4194304 < size <= 16777216                   0                        0
  16777216 < size                               0                        0
 -------------------------------------------------------------------------------
 -                                                                             -
 -                      DBCSR MESSAGE PASSING PERFORMANCE                      -
 -                                                                             -
 -------------------------------------------------------------------------------
 ROUTINE             CALLS      AVE VOLUME [Bytes]
 MP_Bcast               14                     12.
 MP_Allreduce         3225                      8.
 MP_Alltoall          2452                   4322.
 MP_ISend            14460                   4502.
 MP_IRecv            14460                   3039.
 -------------------------------------------------------------------------------

 -------------------------------------------------------------------------------
 -                                                                             -
 -                                GRID STATISTICS                              -
 -                                                                             -
 -------------------------------------------------------------------------------
 LP    KERNEL    OPERATION                                     COUNT     PERCENT
 0     general   collocate                                       180       0.17%
 2     ortho     integrate                                     22734      21.27%
 2     ortho     collocate                                     23576      22.06%
 3     ortho     integrate                                     13554      12.68%
 3     ortho     collocate                                     14056      13.15%
 4     ortho     integrate                                      2322       2.17%
 4     ortho     collocate                                      2408       2.25%
 5     ortho     integrate                                      9990       9.35%
 5     ortho     collocate                                     10360       9.69%
 6     ortho     integrate                                      2484       2.32%
 6     ortho     collocate                                      2576       2.41%
 8     ortho     integrate                                      1296       1.21%
 8     ortho     collocate                                      1344       1.26%
 -------------------------------------------------------------------------------

 MEMORY| Estimated peak process memory [MiB]                                1252

 -------------------------------------------------------------------------------
 -                                                                             -
 -                         MESSAGE PASSING PERFORMANCE                         -
 -                                                                             -
 -------------------------------------------------------------------------------

 ROUTINE             CALLS      AVE VOLUME [Bytes]
 MP_Group                5
 MP_Bcast              396                 461291.
 MP_Allreduce         1098                   1299.
 MP_Sync               142
 MP_Alltoall           533                6274683.
 MP_ISendRecv         7735                 112895.
 MP_Wait             10479
 MP_ISend             2464                 289178.
 MP_IRecv             2464                 289178.
 MP_Recv                10                   6208.
 -------------------------------------------------------------------------------


 -------------------------------------------------------------------------------
 -                                                                             -
 -                           R E F E R E N C E S                               -
 -                                                                             -
 -------------------------------------------------------------------------------
 
 CP2K version 8.0 (Development Version), the CP2K developers group (2020).
 CP2K is freely available from https://www.cp2k.org/ .

 Kuehne,Thomas D.; Iannuzzi,Marcella; Del Ben,Mauro;
 Rybkin,Vladimir V.; Seewald,Patrick; Stein,Frederick; Laino,Teodoro;
 Khaliullin,Rustam Z.; Schuett,Ole; Schiffmann,Florian; Golze,Dorothea;
 Wilhelm,Jan; Chulkov,Sergey; Bani-Hashemian,Mohammad Hossein;
 Weber,Valery; Borstnik,Urban; Taillefumier,Mathieu;
 Jakobovits,Alice Shoshana; Lazzaro,Alfio; Pabst,Hans; Mueller,Tiziano;
 Schade,Robert; Guidon,Manuel; Andermatt,Samuel; Holmberg,Nico;
 Schenter,Gregory K.; Hehn,Anna; Bussy,Augustin; Belleflamme,Fabian;
 Tabacchi,Gloria; Gloess,Andreas; Lass,Michael; Bethune,Iain;
 Mundy,Christopher J.; Plessl,Christian; Watkins,Matt;
 VandeVondele,Joost; Krack,Matthias; Hutter,Juerg. 
 The Journal of Chemical Physics, 152 (19), (2020). 
 CP2K: An electronic structure and molecular dynamics software package -
 Quickstep: Efficient and accurate electronic structure calculations.
 https://doi.org/10.1063/5.0007045

 Schuett, Ole; Messmer, Peter; Hutter, Juerg; VandeVondele, Joost. 
 Electronic Structure Calculations on Graphics Processing Units, John
 Wiley & Sons, Ltd, 173-190 (2016). 
 GPU-Accelerated Sparse Matrix-Matrix Multiplication for
 Linear Scaling Density Functional Theory.
 https://doi.org/10.1002/9781118670712.ch8

 Borstnik, U; VandeVondele, J; Weber, V; Hutter, J. 
 PARALLEL COMPUTING, 40 (5-6), 47-58 (2014). 
 Sparse matrix multiplication: The distributed block-compressed sparse
 row library.
 https://doi.org/10.1016/j.parco.2014.03.012

 Hutter, J; Iannuzzi, M; Schiffmann, F; VandeVondele, J. 
 WIREs Comput Mol Sci., 4 (1), 15-25 (2014). 
 CP2K: atomistic simulations of condensed matter systems.
 https://doi.org/10.1002/wcms.1159

 Marek, A; Blum, V; Johanni, R; Havu, V; Lang, B; Auckenthaler, T;
 Heinecke, A; Bungartz, H; Lederer, H. 
 Journal of Physics: Condensed Matter, 26 (21), (2014). 
 The ELPA library: scalable parallel eigenvalue solutions for
 electronic structure
 theory and computational science.
 https://doi.org/10.1088/0953-8984/26/21/213201

 Guidon, M; Hutter, J; VandeVondele, J. 
 JOURNAL OF CHEMICAL THEORY AND COMPUTATION, 5 (11), 3010-3021 (2009). 
 Robust Periodic Hartree-Fock Exchange for Large-Scale Simulations Using
 Gaussian Basis Sets.
 https://doi.org/10.1021/ct900494g

 Guidon, M; Schiffmann, F; Hutter, J; VandeVondele, J. 
 JOURNAL OF CHEMICAL PHYSICS, 128 (21), 214104 (2008). 
 Ab initio molecular dynamics using hybrid density functionals.
 https://doi.org/10.1063/1.2931945

 Krack, M. 
 THEORETICAL CHEMISTRY ACCOUNTS, 114 (1-3), 145-152 (2005). 
 Pseudopotentials for H to Kr optimized for gradient-corrected
 exchange-correlation functionals.
 https://doi.org/10.1007/s00214-005-0655-y

 VandeVondele, J; Krack, M; Mohamed, F; Parrinello, M; Chassaing, T;
 Hutter, J. COMPUTER PHYSICS COMMUNICATIONS, 167 (2), 103-128 (2005). 
 QUICKSTEP: Fast and accurate density functional calculations using a
 mixed Gaussian and plane waves approach.
 https://doi.org/10.1016/j.cpc.2004.12.014

 Frigo, M; Johnson, SG. 
 PROCEEDINGS OF THE IEEE, 93 (2), 216-231 (2005). 
 The design and implementation of FFTW3.
 https://doi.org/10.1109/JPROC.2004.840301

 VandeVondele, J; Hutter, J. 
 JOURNAL OF CHEMICAL PHYSICS, 118 (10), 4365-4369 (2003). 
 An efficient orbital transformation method for electronic structure
 calculations.
 https://doi.org/10.1063/1.1543154

 Martyna, GJ; Tuckerman, ME. 
 JOURNAL OF CHEMICAL PHYSICS, 110 (6), 2810-2821 (1999). 
 A reciprocal space based method for treating long range interactions in
 ab initio and force-field-based calculations in clusters.
 https://doi.org/10.1063/1.477923

 Hartwigsen, C; Goedecker, S; Hutter, J. 
 PHYSICAL REVIEW B, 58 (7), 3641-3662 (1998). 
 Relativistic separable dual-space Gaussian pseudopotentials from H to Rn.
 https://doi.org/10.1103/PhysRevB.58.3641

 Lippert, G; Hutter, J; Parrinello, M. 
 MOLECULAR PHYSICS, 92 (3), 477-487 (1997). 
 A hybrid Gaussian and plane wave density functional scheme.
 https://doi.org/10.1080/002689797170220

 Perdew, JP; Burke, K; Ernzerhof, M. 
 PHYSICAL REVIEW LETTERS, 77 (18), 3865-3868 (1996). 
 Generalized gradient approximation made simple.
 https://doi.org/10.1103/PhysRevLett.77.3865

 Goedecker, S; Teter, M; Hutter, J. 
 PHYSICAL REVIEW B, 54 (3), 1703-1710 (1996). 
 Separable dual-space Gaussian pseudopotentials.
 https://doi.org/10.1103/PhysRevB.54.1703


 -------------------------------------------------------------------------------
 -                                                                             -
 -                                T I M I N G                                  -
 -                                                                             -
 -------------------------------------------------------------------------------
 SUBROUTINE                       CALLS  ASD         SELF TIME        TOTAL TIME
                                MAXIMUM       AVERAGE  MAXIMUM  AVERAGE  MAXIMUM
 CP2K                                 1  1.0    0.067    0.090   61.936   61.943
 qs_energies                          1  2.0    0.000    0.000   61.639   61.646
 scf_env_do_scf                       1  3.0    0.000    0.000   61.429   61.436
 qs_ks_update_qs_env                 30  5.0    0.000    0.001   57.339   57.343
 rebuild_ks_matrix                   27  6.0    0.000    0.000   57.335   57.340
 qs_ks_build_kohn_sham_matrix        27  7.0    0.004    0.005   57.335   57.340
 hfx_ks_matrix                       27  8.0    0.001    0.001   47.722   47.726
 integrate_four_center               27  9.0    0.025    0.029   47.720   47.725
 integrate_four_center_main          27 10.0    0.004    0.006   21.297   32.151
 integrate_four_center_bin         3402 11.0   21.293   32.148   21.293   32.148
 init_scf_loop                        3  4.0    0.000    0.000   30.924   30.928
 scf_env_do_scf_inner_loop           27  4.0    0.001    0.003   30.504   30.507
 mp_sync                            142 10.7   10.979   15.786   10.979   15.786
 calc_screening_functions             1 10.0   12.623   13.309   13.262   13.954
 pw_transfer                        520  9.6    0.046    0.059    6.346    7.185
 fft_wrap_pw1pw2                    466 10.7    0.006    0.008    6.248    7.099
 fft_wrap_pw1pw2_300                300 11.8    0.332    0.399    5.922    6.740
 qs_vxc_create                       27  8.0    0.001    0.001    6.316    6.332
 xc_vxc_pw_create                    27  9.0    0.048    0.054    6.315    6.331
 fft3d_ps                           466 12.7    2.300    2.440    4.981    6.003
 xc_rho_set_and_dset_create          27 10.0    0.026    0.031    3.744    4.025
 qs_rho_update_rho                   28  5.0    0.000    0.000    3.472    3.473
 calculate_rho_elec                  28  6.0    0.020    0.021    3.472    3.473
 mp_alltoall_z22v                   466 14.7    2.132    3.297    2.132    3.297
 rs_pw_transfer                     221  9.5    0.004    0.005    2.761    2.913
 density_rs2pw                       28  7.0    0.001    0.002    2.462    2.603
 sum_up_and_integrate                27  8.0    0.011    0.013    2.389    2.392
 integrate_v_rspace_low              27  9.0    0.187    0.219    2.378    2.383
 yz_to_x                            222 13.1    0.226    0.292    1.409    2.360
 xc_functional_eval                  27 11.0    0.000    0.000    1.940    2.221
 pbe_lda_eval                        27 12.0    1.940    2.220    1.940    2.220
 potential_pw2rs                     27 10.0    0.002    0.002    2.136    2.139
 x_to_yz                            244 14.2    0.310    0.352    1.259    1.443
 -------------------------------------------------------------------------------

 The number of warnings for this run is : 0
 
 -------------------------------------------------------------------------------
  **** **** ******  **  PROGRAM ENDED AT                 2020-11-30 17:11:54.759
 ***** ** ***  *** **   PROGRAM RAN ON                                   tcopt10
 **    ****   ******    PROGRAM RAN BY                                    hutter
 ***** **    ** ** **   PROGRAM PROCESS ID                                 39164
  **** **  *******  **  PROGRAM STOPPED IN /data/hutter/GITHUB/BASIS/MOLOPT/PBE0
                                           /alsipscl
