 DBCSR| CPU Multiplication driver                                           XSMM
 DBCSR| Multrec recursion limit                                              512
 DBCSR| Multiplication stack size                                           1000
 DBCSR| Maximum elements for images                                    UNLIMITED
 DBCSR| Multiplicative factor virtual images                                   1
 DBCSR| Use multiplication densification                                       T
 DBCSR| Multiplication size stacks                                             3
 DBCSR| Use memory pool for CPU allocation                                     F
 DBCSR| Number of 3D layers                                               SINGLE
 DBCSR| Use MPI memory allocation                                              F
 DBCSR| Use RMA algorithm                                                      F
 DBCSR| Use Communication thread                                               T
 DBCSR| Communication thread load                                             87
 DBCSR| Split modifier for TAS multiplication algorithm                  1.0E+00


  **** **** ******  **  PROGRAM STARTED AT               2020-11-30 16:50:56.817
 ***** ** ***  *** **   PROGRAM STARTED ON                               tcopt10
 **    ****   ******    PROGRAM STARTED BY                                hutter
 ***** **    ** ** **   PROGRAM PROCESS ID                                 33593
  **** **  *******  **  PROGRAM STARTED IN /data/hutter/GITHUB/BASIS/MOLOPT/PBE0
                                           /alsipscl

 CP2K| version string:                    CP2K version 8.0 (Development Version)
 CP2K| source code revision number:                                  git:afc71fa
 CP2K| cp2kflags: omp libint fftw3 libxc elpa parallel mpi3 scalapack xsmm spgli
 CP2K|            b sirius
 CP2K| is freely available from                            https://www.cp2k.org/
 CP2K| Program compiled at                          Tue Nov 17 10:27:14 CET 2020
 CP2K| Program compiled on                                               tcopt10
 CP2K| Program compiled for                                                local
 CP2K| Data directory path                 /data/hutter/GITHUB/CURRENT/cp2k/data
 CP2K| Input file name                                              AlF3-ref.inp

 GLOBAL| Force Environment number                                              1
 GLOBAL| Basis set file name                                  ../PBE0_UCSEGBASIS
 GLOBAL| Potential file name                                        ../POTENTIAL
 GLOBAL| MM Potential file name                                     MM_POTENTIAL
 GLOBAL| Coordinate file name                                      __STD_INPUT__
 GLOBAL| Method name                                                        CP2K
 GLOBAL| Project name                                                    refAlF3
 GLOBAL| Preferred FFT library                                             FFTW3
 GLOBAL| Preferred diagonalization lib.                                     ELPA
 GLOBAL| Run type                                                         ENERGY
 GLOBAL| All-to-all communication in single precision                          F
 GLOBAL| FFTs using library dependent lengths                                  F
 GLOBAL| Global print level                                                  LOW
 GLOBAL| MPI I/O enabled                                                       T
 GLOBAL| Total number of message passing processes                            36
 GLOBAL| Number of threads for this process                                    1
 GLOBAL| This output is from process                                           0
 GLOBAL| CPU model name                          AMD EPYC 7401 24-Core Processor
 GLOBAL| CPUID                                                              1002

 MEMORY| system memory details [Kb]
 MEMORY|                        rank 0           min           max       average
 MEMORY| MemTotal            263987256     263987256     263987256     263987256
 MEMORY| MemFree             258410644     258410644     258410644     258410644
 MEMORY| Buffers                    32            32            32            32
 MEMORY| Cached                1942552       1942552       1942552       1942552
 MEMORY| Slab                   772380        772380        772380        772380
 MEMORY| SReclaimable           280388        280388        280388        280388
 MEMORY| MemLikelyFree       260633616     260633616     260633616     260633616


 GENERATE|  Preliminary Number of Bonds generated:                             0
 GENERATE|  Achieved consistency in connectivity generation.

 *******************************************************************************
 *   ___                                                                       *
 *  /   \                                                                      *
 * [ABORT]                                                                     *
 *  \___/    The requested atomic potential <GTH-PBE-q3> for element <Al> was  *
 *    |               not found in the potential file <../POTENTIAL>           *
 *  O/|                                                                        *
 * /| |                                                                        *
 * / \                                  subsys/external_potential_types.F:2325 *
 *******************************************************************************


 ===== Routine Calling Stack ===== 

            3 read_qs_kind
            2 create_qs_kind_set
            1 CP2K
 DBCSR| CPU Multiplication driver                                           XSMM
 DBCSR| Multrec recursion limit                                              512
 DBCSR| Multiplication stack size                                           1000
 DBCSR| Maximum elements for images                                    UNLIMITED
 DBCSR| Multiplicative factor virtual images                                   1
 DBCSR| Use multiplication densification                                       T
 DBCSR| Multiplication size stacks                                             3
 DBCSR| Use memory pool for CPU allocation                                     F
 DBCSR| Number of 3D layers                                               SINGLE
 DBCSR| Use MPI memory allocation                                              F
 DBCSR| Use RMA algorithm                                                      F
 DBCSR| Use Communication thread                                               T
 DBCSR| Communication thread load                                             87
 DBCSR| Split modifier for TAS multiplication algorithm                  1.0E+00


  **** **** ******  **  PROGRAM STARTED AT               2020-11-30 17:16:14.845
 ***** ** ***  *** **   PROGRAM STARTED ON                               tcopt10
 **    ****   ******    PROGRAM STARTED BY                                hutter
 ***** **    ** ** **   PROGRAM PROCESS ID                                 40024
  **** **  *******  **  PROGRAM STARTED IN /data/hutter/GITHUB/BASIS/MOLOPT/PBE0
                                           /alsipscl

 CP2K| version string:                    CP2K version 8.0 (Development Version)
 CP2K| source code revision number:                                  git:afc71fa
 CP2K| cp2kflags: omp libint fftw3 libxc elpa parallel mpi3 scalapack xsmm spgli
 CP2K|            b sirius
 CP2K| is freely available from                            https://www.cp2k.org/
 CP2K| Program compiled at                          Tue Nov 17 10:27:14 CET 2020
 CP2K| Program compiled on                                               tcopt10
 CP2K| Program compiled for                                                local
 CP2K| Data directory path                 /data/hutter/GITHUB/CURRENT/cp2k/data
 CP2K| Input file name                                              AlF3-ref.inp

 GLOBAL| Force Environment number                                              1
 GLOBAL| Basis set file name                                  ../PBE0_UCSEGBASIS
 GLOBAL| Potential file name                                        ../POTENTIAL
 GLOBAL| MM Potential file name                                     MM_POTENTIAL
 GLOBAL| Coordinate file name                                      __STD_INPUT__
 GLOBAL| Method name                                                        CP2K
 GLOBAL| Project name                                                    refAlF3
 GLOBAL| Preferred FFT library                                             FFTW3
 GLOBAL| Preferred diagonalization lib.                                     ELPA
 GLOBAL| Run type                                                         ENERGY
 GLOBAL| All-to-all communication in single precision                          F
 GLOBAL| FFTs using library dependent lengths                                  F
 GLOBAL| Global print level                                                  LOW
 GLOBAL| MPI I/O enabled                                                       T
 GLOBAL| Total number of message passing processes                            36
 GLOBAL| Number of threads for this process                                    1
 GLOBAL| This output is from process                                           0
 GLOBAL| CPU model name                          AMD EPYC 7401 24-Core Processor
 GLOBAL| CPUID                                                              1002

 MEMORY| system memory details [Kb]
 MEMORY|                        rank 0           min           max       average
 MEMORY| MemTotal            263987256     263987256     263987256     263987256
 MEMORY| MemFree             258469536     258469536     258469536     258469536
 MEMORY| Buffers                    32            32            32            32
 MEMORY| Cached                1954876       1954876       1954876       1954876
 MEMORY| Slab                   771120        771120        771120        771120
 MEMORY| SReclaimable           278532        278532        278532        278532
 MEMORY| MemLikelyFree       260702976     260702976     260702976     260702976


 GENERATE|  Preliminary Number of Bonds generated:                             0
 GENERATE|  Achieved consistency in connectivity generation.

 *******************************************************************************
 *******************************************************************************
 **                                                                           **
 **     #####                         ##              ##                      **
 **    ##   ##            ##          ##              ##                      **
 **   ##     ##                       ##            ######                    **
 **   ##     ##  ##   ##  ##   #####  ##  ##   ####   ##    #####    #####    **
 **   ##     ##  ##   ##  ##  ##      ## ##   ##      ##   ##   ##  ##   ##   **
 **   ##  ## ##  ##   ##  ##  ##      ####     ###    ##   ######   ######    **
 **    ##  ###   ##   ##  ##  ##      ## ##      ##   ##   ##       ##        **
 **     #######   #####   ##   #####  ##  ##  ####    ##    #####   ##        **
 **           ##                                                    ##        **
 **                                                                           **
 **                                                ... make the atoms dance   **
 **                                                                           **
 **            Copyright (C) by CP2K developers group (2000 - 2020)           **
 **                      J. Chem. Phys. 152, 194103 (2020)                    **
 **                                                                           **
 *******************************************************************************


 TOTAL NUMBERS AND MAXIMUM NUMBERS

  Total number of            - Atomic kinds:                                   2
                             - Atoms:                                          4
                             - Shell sets:                                    48
                             - Shells:                                        88
                             - Primitive Cartesian functions:                 48
                             - Cartesian basis functions:                    324
                             - Spherical basis functions:                    272

  Maximum angular momentum of- Orbital basis functions:                        4
                             - Local part of the GTH pseudopotential:          2
                             - Non-local part of the GTH pseudopotential:      2


 SCF PARAMETERS         Density guess:                                    ATOMIC
                        --------------------------------------------------------
                        max_scf:                                              10
                        max_scf_history:                                       0
                        max_diis:                                              4
                        --------------------------------------------------------
                        eps_scf:                                        1.00E-07
                        eps_scf_history:                                0.00E+00
                        eps_diis:                                       1.00E-01
                        eps_eigval:                                     1.00E-05
                        --------------------------------------------------------
                        level_shift [a.u.]:                                 0.00
                        --------------------------------------------------------
                        Outer loop SCF in use 
                        No variables optimised in outer loop
                        eps_scf                                         1.00E-07
                        max_scf                                               10
                        No outer loop optimization
                        step_size                                       5.00E-01

 Number of electrons:                                                         24
 Number of occupied orbitals:                                                 12
 Number of molecular orbitals:                                                12

 Number of orbital functions:                                                272
 Number of independent orbital functions:                                    272

 Extrapolation method: initial_guess


 SCF WAVEFUNCTION OPTIMIZATION

  ----------------------------------- OT ---------------------------------------
  Minimizer      : DIIS                : direct inversion
                                         in the iterative subspace
                                         using   7 DIIS vectors
                                         safer DIIS on
  Preconditioner : FULL_ALL            : diagonalization, state selective
  Precond_solver : DEFAULT
  stepsize       :    0.15000000                  energy_gap     :    0.08000000
  eps_taylor     :   0.10000E-15                  max_taylor     :             4
  ----------------------------------- OT ---------------------------------------

  Step     Update method      Time    Convergence         Total energy    Change
  ------------------------------------------------------------------------------
     1 OT DIIS     0.15E+00   28.6     0.06272568       -73.2818433957 -7.33E+01
     2 OT DIIS     0.15E+00    1.3     0.07846329       -73.3427524872 -6.09E-02
     3 OT DIIS     0.15E+00    1.2     0.04488104       -73.9379839201 -5.95E-01
     4 OT DIIS     0.15E+00    1.2     0.03614075       -74.1056846909 -1.68E-01
     5 OT DIIS     0.15E+00    1.3     0.02706044       -74.3050832888 -1.99E-01
     6 OT SD       0.15E+00    1.2     0.02872578       -74.3524256862 -4.73E-02
     7 OT SD       0.15E+00    1.2     0.02344409       -74.6887180046 -3.36E-01
     8 OT SD       0.15E+00    1.2     0.01637719       -74.8397343157 -1.51E-01
     9 OT DIIS     0.15E+00    1.3     0.02052223       -74.8520157251 -1.23E-02
    10 OT DIIS     0.15E+00    1.2     0.02913462       -74.7581692352  9.38E-02

  Leaving inner SCF loop after reaching    10 steps.


  Electronic density on regular grids:        -23.9999999897        0.0000000103
  Core density on regular grids:               24.0000000000        0.0000000000
  Total charge density on r-space grids:        0.0000000103
  Total charge density g-space grids:           0.0000000103

  Overlap energy of the core charge distribution:               0.00000001328982
  Self energy of the core charge distribution:               -202.28573588137749
  Core Hamiltonian energy:                                     56.26635307031638
  Hartree energy:                                              86.10686716015883
  Exchange-correlation energy:                                -11.38742396144668
  Hartree-Fock Exchange energy:                                -3.45822963614115

  Total energy:                                               -74.75816923520031

  outer SCF iter =    1 RMS gradient =   0.29E-01 energy =        -74.7581692352

  ----------------------------------- OT ---------------------------------------
  Minimizer      : DIIS                : direct inversion
                                         in the iterative subspace
                                         using   7 DIIS vectors
                                         safer DIIS on
  Preconditioner : FULL_ALL            : diagonalization, state selective
  Precond_solver : DEFAULT
  stepsize       :    0.15000000                  energy_gap     :    0.08000000
  eps_taylor     :   0.10000E-15                  max_taylor     :             4
  ----------------------------------- OT ---------------------------------------

  Step     Update method      Time    Convergence         Total energy    Change
  ------------------------------------------------------------------------------
     1 OT DIIS     0.15E+00    2.5     0.00473440       -74.9064157239 -1.48E-01
     2 OT DIIS     0.15E+00    1.2     0.00224366       -74.9137065267 -7.29E-03
     3 OT DIIS     0.15E+00    1.2     0.00108157       -74.9153948890 -1.69E-03
     4 OT DIIS     0.15E+00    1.2     0.00011251       -74.9157543942 -3.60E-04
     5 OT DIIS     0.15E+00    1.2     0.00004006       -74.9157590506 -4.66E-06
     6 OT DIIS     0.15E+00    1.2     0.00001824       -74.9157595216 -4.71E-07
     7 OT DIIS     0.15E+00    1.2     0.00000283       -74.9157596061 -8.46E-08
     8 OT DIIS     0.15E+00    1.2     0.00000068       -74.9157596087 -2.60E-09
     9 OT DIIS     0.15E+00    1.2     0.00000029       -74.9157596089 -1.43E-10
    10 OT DIIS     0.15E+00    1.2     0.00000007       -74.9157596089 -2.69E-11

  *** SCF run converged in    10 steps ***


  Electronic density on regular grids:        -23.9999999887        0.0000000113
  Core density on regular grids:               24.0000000000        0.0000000000
  Total charge density on r-space grids:        0.0000000113
  Total charge density g-space grids:           0.0000000113

  Overlap energy of the core charge distribution:               0.00000001328982
  Self energy of the core charge distribution:               -202.28573588137749
  Core Hamiltonian energy:                                     55.87134865820050
  Hartree energy:                                              86.37114418763467
  Exchange-correlation energy:                                -11.39584635650085
  Hartree-Fock Exchange energy:                                -3.47667023014296

  Total energy:                                               -74.91575960889631

  outer SCF iter =    2 RMS gradient =   0.70E-07 energy =        -74.9157596089
  outer SCF loop converged in   2 iterations or   20 steps


 ENERGY| Total FORCE_EVAL ( QS ) energy [a.u.]:              -74.915759608896309

 -------------------------------------------------------------------------------
 -                                                                             -
 -                                DBCSR STATISTICS                             -
 -                                                                             -
 -------------------------------------------------------------------------------
 COUNTER                                    TOTAL       BLAS       SMM       ACC
 flops    12 x    12 x    12               801792       0.0%    100.0%      0.0%
 flops    12 x    12 x   116              2739456       0.0%    100.0%      0.0%
 flops   116 x    52 x    12              3040128       0.0%    100.0%      0.0%
 flops   116 x    12 x    12              3407616       0.0%    100.0%      0.0%
 flops    12 x    12 x    52              3684096       0.0%    100.0%      0.0%
 flops    52 x    12 x    12              4582656       0.0%    100.0%      0.0%
 flops    52 x   116 x    12              6080256       0.0%    100.0%      0.0%
 flops   116 x   116 x    12              6781824       0.0%    100.0%      0.0%
 flops    52 x    52 x    12              8176896       0.0%    100.0%      0.0%
 flops   116 x    12 x   116             31648512       0.0%    100.0%      0.0%
 flops   116 x    12 x    52             42561792       0.0%    100.0%      0.0%
 flops    52 x    12 x   116             42561792       0.0%    100.0%      0.0%
 flops    52 x    12 x    52             57238272       0.0%    100.0%      0.0%
 flops inhomo. stacks                           0       0.0%      0.0%      0.0%
 flops total                       213.305088E+06       0.0%    100.0%      0.0%
 flops max/rank                     91.625088E+06       0.0%    100.0%      0.0%
 matmuls inhomo. stacks                         0       0.0%      0.0%      0.0%
 matmuls total                               2746       0.0%    100.0%      0.0%
 number of processed stacks                  2746       0.0%    100.0%      0.0%
 average stack size                                     0.0       1.0       0.0
 marketing flops                   226.670464E+06
 -------------------------------------------------------------------------------
 # multiplications                            537
 max memory usage/rank               1.316868E+09
 # max total images/rank                        1
 # max 3D layers                                1
 # MPI messages exchanged                  193320
 MPI messages size (bytes):
  total size                       346.284800E+06
  min size                           0.000000E+00
  max size                         107.648000E+03
  average size                       1.791252E+03
 MPI breakdown and total messages size (bytes):
             size <=      128              174530                        0
       128 < size <=     8192                8920                 33661440
      8192 < size <=    32768                6440                118003200
     32768 < size <=   131072                3430                194620160
    131072 < size <=  4194304                   0                        0
   4194304 < size <= 16777216                   0                        0
  16777216 < size                               0                        0
 -------------------------------------------------------------------------------
 -                                                                             -
 -                      DBCSR MESSAGE PASSING PERFORMANCE                      -
 -                                                                             -
 -------------------------------------------------------------------------------
 ROUTINE             CALLS      AVE VOLUME [Bytes]
 MP_Bcast               14                     12.
 MP_Allreduce         2859                      8.
 MP_Alltoall          1926                   3800.
 MP_ISend            12880                   2684.
 MP_IRecv            12880                   1462.
 -------------------------------------------------------------------------------

 -------------------------------------------------------------------------------
 -                                                                             -
 -                                GRID STATISTICS                              -
 -                                                                             -
 -------------------------------------------------------------------------------
 LP    KERNEL    OPERATION                                     COUNT     PERCENT
 0     general   collocate                                       144       0.26%
 2     ortho     integrate                                     11600      21.04%
 2     ortho     collocate                                     12180      22.10%
 3     ortho     integrate                                      8880      16.11%
 3     ortho     collocate                                      9324      16.91%
 4     ortho     integrate                                      1860       3.37%
 4     ortho     collocate                                      1953       3.54%
 5     ortho     integrate                                      3200       5.80%
 5     ortho     collocate                                      3360       6.10%
 6     ortho     integrate                                       960       1.74%
 6     ortho     collocate                                      1008       1.83%
 8     ortho     integrate                                       320       0.58%
 8     ortho     collocate                                       336       0.61%
 -------------------------------------------------------------------------------

 MEMORY| Estimated peak process memory [MiB]                                1256

 -------------------------------------------------------------------------------
 -                                                                             -
 -                         MESSAGE PASSING PERFORMANCE                         -
 -                                                                             -
 -------------------------------------------------------------------------------

 ROUTINE             CALLS      AVE VOLUME [Bytes]
 MP_Group                5
 MP_Bcast              324                 563584.
 MP_Allreduce          914                   1551.
 MP_Sync               107
 MP_Alltoall           400                6279220.
 MP_ISendRecv         5775                 112558.
 MP_Wait              7833
 MP_ISend             1848                 289178.
 MP_IRecv             1848                 289178.
 MP_Recv                 5                   4352.
 -------------------------------------------------------------------------------


 -------------------------------------------------------------------------------
 -                                                                             -
 -                           R E F E R E N C E S                               -
 -                                                                             -
 -------------------------------------------------------------------------------
 
 CP2K version 8.0 (Development Version), the CP2K developers group (2020).
 CP2K is freely available from https://www.cp2k.org/ .

 Kuehne,Thomas D.; Iannuzzi,Marcella; Del Ben,Mauro;
 Rybkin,Vladimir V.; Seewald,Patrick; Stein,Frederick; Laino,Teodoro;
 Khaliullin,Rustam Z.; Schuett,Ole; Schiffmann,Florian; Golze,Dorothea;
 Wilhelm,Jan; Chulkov,Sergey; Bani-Hashemian,Mohammad Hossein;
 Weber,Valery; Borstnik,Urban; Taillefumier,Mathieu;
 Jakobovits,Alice Shoshana; Lazzaro,Alfio; Pabst,Hans; Mueller,Tiziano;
 Schade,Robert; Guidon,Manuel; Andermatt,Samuel; Holmberg,Nico;
 Schenter,Gregory K.; Hehn,Anna; Bussy,Augustin; Belleflamme,Fabian;
 Tabacchi,Gloria; Gloess,Andreas; Lass,Michael; Bethune,Iain;
 Mundy,Christopher J.; Plessl,Christian; Watkins,Matt;
 VandeVondele,Joost; Krack,Matthias; Hutter,Juerg. 
 The Journal of Chemical Physics, 152 (19), (2020). 
 CP2K: An electronic structure and molecular dynamics software package -
 Quickstep: Efficient and accurate electronic structure calculations.
 https://doi.org/10.1063/5.0007045

 Schuett, Ole; Messmer, Peter; Hutter, Juerg; VandeVondele, Joost. 
 Electronic Structure Calculations on Graphics Processing Units, John
 Wiley & Sons, Ltd, 173-190 (2016). 
 GPU-Accelerated Sparse Matrix-Matrix Multiplication for
 Linear Scaling Density Functional Theory.
 https://doi.org/10.1002/9781118670712.ch8

 Borstnik, U; VandeVondele, J; Weber, V; Hutter, J. 
 PARALLEL COMPUTING, 40 (5-6), 47-58 (2014). 
 Sparse matrix multiplication: The distributed block-compressed sparse
 row library.
 https://doi.org/10.1016/j.parco.2014.03.012

 Hutter, J; Iannuzzi, M; Schiffmann, F; VandeVondele, J. 
 WIREs Comput Mol Sci., 4 (1), 15-25 (2014). 
 CP2K: atomistic simulations of condensed matter systems.
 https://doi.org/10.1002/wcms.1159

 Marek, A; Blum, V; Johanni, R; Havu, V; Lang, B; Auckenthaler, T;
 Heinecke, A; Bungartz, H; Lederer, H. 
 Journal of Physics: Condensed Matter, 26 (21), (2014). 
 The ELPA library: scalable parallel eigenvalue solutions for
 electronic structure
 theory and computational science.
 https://doi.org/10.1088/0953-8984/26/21/213201

 Guidon, M; Hutter, J; VandeVondele, J. 
 JOURNAL OF CHEMICAL THEORY AND COMPUTATION, 5 (11), 3010-3021 (2009). 
 Robust Periodic Hartree-Fock Exchange for Large-Scale Simulations Using
 Gaussian Basis Sets.
 https://doi.org/10.1021/ct900494g

 Guidon, M; Schiffmann, F; Hutter, J; VandeVondele, J. 
 JOURNAL OF CHEMICAL PHYSICS, 128 (21), 214104 (2008). 
 Ab initio molecular dynamics using hybrid density functionals.
 https://doi.org/10.1063/1.2931945

 Krack, M. 
 THEORETICAL CHEMISTRY ACCOUNTS, 114 (1-3), 145-152 (2005). 
 Pseudopotentials for H to Kr optimized for gradient-corrected
 exchange-correlation functionals.
 https://doi.org/10.1007/s00214-005-0655-y

 VandeVondele, J; Krack, M; Mohamed, F; Parrinello, M; Chassaing, T;
 Hutter, J. COMPUTER PHYSICS COMMUNICATIONS, 167 (2), 103-128 (2005). 
 QUICKSTEP: Fast and accurate density functional calculations using a
 mixed Gaussian and plane waves approach.
 https://doi.org/10.1016/j.cpc.2004.12.014

 Frigo, M; Johnson, SG. 
 PROCEEDINGS OF THE IEEE, 93 (2), 216-231 (2005). 
 The design and implementation of FFTW3.
 https://doi.org/10.1109/JPROC.2004.840301

 VandeVondele, J; Hutter, J. 
 JOURNAL OF CHEMICAL PHYSICS, 118 (10), 4365-4369 (2003). 
 An efficient orbital transformation method for electronic structure
 calculations.
 https://doi.org/10.1063/1.1543154

 Martyna, GJ; Tuckerman, ME. 
 JOURNAL OF CHEMICAL PHYSICS, 110 (6), 2810-2821 (1999). 
 A reciprocal space based method for treating long range interactions in
 ab initio and force-field-based calculations in clusters.
 https://doi.org/10.1063/1.477923

 Hartwigsen, C; Goedecker, S; Hutter, J. 
 PHYSICAL REVIEW B, 58 (7), 3641-3662 (1998). 
 Relativistic separable dual-space Gaussian pseudopotentials from H to Rn.
 https://doi.org/10.1103/PhysRevB.58.3641

 Lippert, G; Hutter, J; Parrinello, M. 
 MOLECULAR PHYSICS, 92 (3), 477-487 (1997). 
 A hybrid Gaussian and plane wave density functional scheme.
 https://doi.org/10.1080/002689797170220

 Perdew, JP; Burke, K; Ernzerhof, M. 
 PHYSICAL REVIEW LETTERS, 77 (18), 3865-3868 (1996). 
 Generalized gradient approximation made simple.
 https://doi.org/10.1103/PhysRevLett.77.3865

 Goedecker, S; Teter, M; Hutter, J. 
 PHYSICAL REVIEW B, 54 (3), 1703-1710 (1996). 
 Separable dual-space Gaussian pseudopotentials.
 https://doi.org/10.1103/PhysRevB.54.1703


 -------------------------------------------------------------------------------
 -                                                                             -
 -                                T I M I N G                                  -
 -                                                                             -
 -------------------------------------------------------------------------------
 SUBROUTINE                       CALLS  ASD         SELF TIME        TOTAL TIME
                                MAXIMUM       AVERAGE  MAXIMUM  AVERAGE  MAXIMUM
 CP2K                                 1  1.0    0.020    0.058   52.767   52.774
 qs_energies                          1  2.0    0.000    0.000   52.486   52.494
 scf_env_do_scf                       1  3.0    0.000    0.000   52.269   52.276
 qs_ks_update_qs_env                 22  5.0    0.000    0.000   49.311   49.319
 rebuild_ks_matrix                   20  6.0    0.000    0.000   49.308   49.316
 qs_ks_build_kohn_sham_matrix        20  7.0    0.003    0.004   49.308   49.316
 hfx_ks_matrix                       20  8.0    0.001    0.001   42.190   42.197
 integrate_four_center               20  9.0    0.016    0.018   42.188   42.194
 init_scf_loop                        2  4.0    0.000    0.000   29.741   29.745
 integrate_four_center_main          20 10.0    0.003    0.004    5.110   26.221
 integrate_four_center_bin         2540 11.0    5.107   26.219    5.107   26.219
 mp_sync                            107 10.7   21.125   23.728   21.125   23.728
 scf_env_do_scf_inner_loop           20  4.0    0.001    0.002   22.527   22.530
 calc_screening_functions             1 10.0   12.964   13.670   13.686   14.391
 pw_transfer                        387  9.6    0.034    0.041    4.816    5.479
 fft_wrap_pw1pw2                    347 10.7    0.004    0.006    4.743    5.413
 fft_wrap_pw1pw2_300                223 11.8    0.246    0.290    4.479    5.135
 fft3d_ps                           347 12.7    1.718    1.823    3.794    4.541
 qs_vxc_create                       20  8.0    0.000    0.001    4.476    4.488
 xc_vxc_pw_create                    20  9.0    0.035    0.037    4.475    4.487
 xc_rho_set_and_dset_create          20 10.0    0.019    0.022    2.492    2.814
 qs_rho_update_rho                   21  5.0    0.000    0.000    2.560    2.560
 calculate_rho_elec                  21  6.0    0.015    0.016    2.560    2.560
 mp_alltoall_z22v                   347 14.7    1.664    2.544    1.664    2.544
 rs_pw_transfer                     165  9.4    0.003    0.004    2.042    2.159
 density_rs2pw                       21  7.0    0.001    0.001    1.820    1.937
 sum_up_and_integrate                20  8.0    0.008    0.010    1.925    1.928
 integrate_v_rspace_low              20  9.0    0.085    0.323    1.917    1.920
 yz_to_x                            166 13.1    0.170    0.203    1.135    1.884
 potential_pw2rs                     20 10.0    0.002    0.002    1.578    1.580
 xc_functional_eval                  20 11.0    0.000    0.000    1.156    1.475
 pbe_lda_eval                        20 12.0    1.155    1.475    1.155    1.475
 calc_pair_dist_radii                 1 10.0    1.086    1.092    1.271    1.280
 mp_sum_l                          2689 10.9    0.771    1.096    0.771    1.096
 -------------------------------------------------------------------------------

 The number of warnings for this run is : 0
 
 -------------------------------------------------------------------------------
  **** **** ******  **  PROGRAM ENDED AT                 2020-11-30 17:17:08.338
 ***** ** ***  *** **   PROGRAM RAN ON                                   tcopt10
 **    ****   ******    PROGRAM RAN BY                                    hutter
 ***** **    ** ** **   PROGRAM PROCESS ID                                 40024
  **** **  *******  **  PROGRAM STOPPED IN /data/hutter/GITHUB/BASIS/MOLOPT/PBE0
                                           /alsipscl
