SIRIUS 7.0.0, git hash: https://api.github.com/repos/electronic-structure/SIRIUS/git/ref/tags/v7.0.0
 DBCSR| CPU Multiplication driver                                           XSMM
 DBCSR| Multrec recursion limit                                              512
 DBCSR| Multiplication stack size                                           1000
 DBCSR| Maximum elements for images                                    UNLIMITED
 DBCSR| Multiplicative factor virtual images                                   1
 DBCSR| Use multiplication densification                                       T
 DBCSR| Multiplication size stacks                                             3
 DBCSR| Use memory pool for CPU allocation                                     F
 DBCSR| Number of 3D layers                                               SINGLE
 DBCSR| Use MPI memory allocation                                              F
 DBCSR| Use RMA algorithm                                                      F
 DBCSR| Use Communication thread                                               T
 DBCSR| Communication thread load                                             87
 DBCSR| Split modifier for TAS multiplication algorithm                  1.0E+00


  **** **** ******  **  PROGRAM STARTED AT               2020-12-01 21:09:17.589
 ***** ** ***  *** **   PROGRAM STARTED ON                               tcopt13
 **    ****   ******    PROGRAM STARTED BY                                hutter
 ***** **    ** ** **   PROGRAM PROCESS ID                                126343
  **** **  *******  **  PROGRAM STARTED IN /data/hutter/GITHUB/BASIS/MOLOPT/PBE0
                                           /alsipscl

 CP2K| version string:                    CP2K version 8.0 (Development Version)
 CP2K| source code revision number:                                  git:971f4a7
 CP2K| cp2kflags: omp libint fftw3 libxc elpa parallel mpi3 scalapack xsmm spgli
 CP2K|            b sirius
 CP2K| is freely available from                            https://www.cp2k.org/
 CP2K| Program compiled at                          Mon Nov 30 14:07:31 CET 2020
 CP2K| Program compiled on                                               tcopt13
 CP2K| Program compiled for                                                local
 CP2K| Data directory path                 /data/hutter/GITHUB/CURRENT/cp2k/data
 CP2K| Input file name                                               AlN-ref.inp

 GLOBAL| Force Environment number                                              1
 GLOBAL| Basis set file name                                  ../PBE0_UCSEGBASIS
 GLOBAL| Potential file name                                        ../POTENTIAL
 GLOBAL| MM Potential file name                                     MM_POTENTIAL
 GLOBAL| Coordinate file name                                      __STD_INPUT__
 GLOBAL| Method name                                                        CP2K
 GLOBAL| Project name                                                     refAlN
 GLOBAL| Preferred FFT library                                             FFTW3
 GLOBAL| Preferred diagonalization lib.                                     ELPA
 GLOBAL| Run type                                                         ENERGY
 GLOBAL| All-to-all communication in single precision                          F
 GLOBAL| FFTs using library dependent lengths                                  F
 GLOBAL| Global print level                                                  LOW
 GLOBAL| MPI I/O enabled                                                       T
 GLOBAL| Total number of message passing processes                            64
 GLOBAL| Number of threads for this process                                    1
 GLOBAL| This output is from process                                           0
 GLOBAL| CPU model name                          AMD EPYC 7742 64-Core Processor
 GLOBAL| CPUID                                                              1002

 MEMORY| system memory details [Kb]
 MEMORY|                        rank 0           min           max       average
 MEMORY| MemTotal           1056629884    1056629884    1056629884    1056629884
 MEMORY| MemFree             877298596     877298596     877298596     877298596
 MEMORY| Buffers                  1220          1220          1220          1220
 MEMORY| Cached              165476368     165476368     165476368     165476368
 MEMORY| Slab                  5480892       5480892       5480892       5480892
 MEMORY| SReclaimable          3820660       3820660       3820660       3820660
 MEMORY| MemLikelyFree      1046596844    1046596844    1046596844    1046596844


 GENERATE|  Preliminary Number of Bonds generated:                             0
 GENERATE|  Achieved consistency in connectivity generation.

 *******************************************************************************
 *******************************************************************************
 **                                                                           **
 **     #####                         ##              ##                      **
 **    ##   ##            ##          ##              ##                      **
 **   ##     ##                       ##            ######                    **
 **   ##     ##  ##   ##  ##   #####  ##  ##   ####   ##    #####    #####    **
 **   ##     ##  ##   ##  ##  ##      ## ##   ##      ##   ##   ##  ##   ##   **
 **   ##  ## ##  ##   ##  ##  ##      ####     ###    ##   ######   ######    **
 **    ##  ###   ##   ##  ##  ##      ## ##      ##   ##   ##       ##        **
 **     #######   #####   ##   #####  ##  ##  ####    ##    #####   ##        **
 **           ##                                                    ##        **
 **                                                                           **
 **                                                ... make the atoms dance   **
 **                                                                           **
 **            Copyright (C) by CP2K developers group (2000 - 2020)           **
 **                      J. Chem. Phys. 152, 194103 (2020)                    **
 **                                                                           **
 *******************************************************************************


 TOTAL NUMBERS AND MAXIMUM NUMBERS

  Total number of            - Atomic kinds:                                   2
                             - Atoms:                                          2
                             - Shell sets:                                    24
                             - Shells:                                        48
                             - Primitive Cartesian functions:                 24
                             - Cartesian basis functions:                    212
                             - Spherical basis functions:                    168

  Maximum angular momentum of- Orbital basis functions:                        4
                             - Local part of the GTH pseudopotential:          2
                             - Non-local part of the GTH pseudopotential:      2


 SCF PARAMETERS         Density guess:                                    ATOMIC
                        --------------------------------------------------------
                        max_scf:                                              10
                        max_scf_history:                                       0
                        max_diis:                                              4
                        --------------------------------------------------------
                        eps_scf:                                        1.00E-06
                        eps_scf_history:                                0.00E+00
                        eps_diis:                                       1.00E-01
                        eps_eigval:                                     1.00E-05
                        --------------------------------------------------------
                        level_shift [a.u.]:                                 0.00
                        --------------------------------------------------------
                        Outer loop SCF in use 
                        No variables optimised in outer loop
                        eps_scf                                         1.00E-06
                        max_scf                                               10
                        No outer loop optimization
                        step_size                                       5.00E-01

 Number of electrons:                                                          8
 Number of occupied orbitals:                                                  4
 Number of molecular orbitals:                                                 4

 Number of orbital functions:                                                168
 Number of independent orbital functions:                                    168

 Extrapolation method: initial_guess


 SCF WAVEFUNCTION OPTIMIZATION

  ----------------------------------- OT ---------------------------------------
  Minimizer      : DIIS                : direct inversion
                                         in the iterative subspace
                                         using   7 DIIS vectors
                                         safer DIIS on
  Preconditioner : FULL_ALL            : diagonalization, state selective
  Precond_solver : DEFAULT
  stepsize       :    0.15000000                  energy_gap     :    0.08000000
  eps_taylor     :   0.10000E-15                  max_taylor     :             4
  ----------------------------------- OT ---------------------------------------

  Step     Update method      Time    Convergence         Total energy    Change
  ------------------------------------------------------------------------------
     1 OT DIIS     0.15E+00   21.0     0.07322365       -11.5731156275 -1.16E+01
     2 OT DIIS     0.15E+00    1.2     0.17451644       -11.3926747284  1.80E-01
     3 OT DIIS     0.15E+00    1.2     0.02183363       -11.7361991841 -3.44E-01
     4 OT DIIS     0.15E+00    1.2     0.01140324       -11.7559702284 -1.98E-02
     5 OT DIIS     0.15E+00    1.2     0.00227227       -11.7610002497 -5.03E-03
     6 OT DIIS     0.15E+00    1.2     0.00137278       -11.7614995529 -4.99E-04
     7 OT DIIS     0.15E+00    1.2     0.00116602       -11.7617933021 -2.94E-04
     8 OT DIIS     0.15E+00    1.2     0.00093158       -11.7620528387 -2.60E-04
     9 OT DIIS     0.15E+00    1.2     0.00094606       -11.7623938037 -3.41E-04
    10 OT DIIS     0.15E+00    1.2     0.00065757       -11.7627355293 -3.42E-04

  Leaving inner SCF loop after reaching    10 steps.


  Electronic density on regular grids:         -8.0000000000        0.0000000000
  Core density on regular grids:                8.0000000000        0.0000000000
  Total charge density on r-space grids:        0.0000000000
  Total charge density g-space grids:           0.0000000000

  Overlap energy of the core charge distribution:               0.00000000148359
  Self energy of the core charge distribution:                -30.32914360351929
  Core Hamiltonian energy:                                      7.90220366141095
  Hartree energy:                                              13.68765729805472
  Exchange-correlation energy:                                 -2.34580235026128
  Hartree-Fock Exchange energy:                                -0.67765053644978

  Total energy:                                               -11.76273552928109

  outer SCF iter =    1 RMS gradient =   0.66E-03 energy =        -11.7627355293

  ----------------------------------- OT ---------------------------------------
  Minimizer      : DIIS                : direct inversion
                                         in the iterative subspace
                                         using   7 DIIS vectors
                                         safer DIIS on
  Preconditioner : FULL_ALL            : diagonalization, state selective
  Precond_solver : DEFAULT
  stepsize       :    0.15000000                  energy_gap     :    0.08000000
  eps_taylor     :   0.10000E-15                  max_taylor     :             4
  ----------------------------------- OT ---------------------------------------

  Step     Update method      Time    Convergence         Total energy    Change
  ------------------------------------------------------------------------------
     1 OT DIIS     0.15E+00    2.4     0.00029600       -11.7628904516 -1.55E-04
     2 OT DIIS     0.15E+00    1.2     0.00021461       -11.7628978013 -7.35E-06
     3 OT DIIS     0.15E+00    1.2     0.00022003       -11.7629041941 -6.39E-06
     4 OT DIIS     0.15E+00    1.2     0.00016647       -11.7629064415 -2.25E-06
     5 OT DIIS     0.15E+00    1.2     0.00014269       -11.7629150680 -8.63E-06
     6 OT DIIS     0.15E+00    1.2     0.00008333       -11.7629356776 -2.06E-05
     7 OT DIIS     0.15E+00    1.2     0.00001649       -11.7629419840 -6.31E-06
     8 OT DIIS     0.15E+00    1.2     0.00000625       -11.7629421445 -1.61E-07
     9 OT DIIS     0.15E+00    1.2     0.00000257       -11.7629421474 -2.92E-09
    10 OT DIIS     0.15E+00    1.2     0.00000074       -11.7629421478 -3.09E-10

  *** SCF run converged in    10 steps ***


  Electronic density on regular grids:         -8.0000000000        0.0000000000
  Core density on regular grids:                8.0000000000        0.0000000000
  Total charge density on r-space grids:        0.0000000000
  Total charge density g-space grids:           0.0000000000

  Overlap energy of the core charge distribution:               0.00000000148359
  Self energy of the core charge distribution:                -30.32914360351929
  Core Hamiltonian energy:                                      7.88781488751209
  Hartree energy:                                              13.69713844283876
  Exchange-correlation energy:                                 -2.34353342752058
  Hartree-Fock Exchange energy:                                -0.67521844854503

  Total energy:                                               -11.76294214775046

  outer SCF iter =    2 RMS gradient =   0.74E-06 energy =        -11.7629421478
  outer SCF loop converged in   2 iterations or   20 steps


 ENERGY| Total FORCE_EVAL ( QS ) energy [a.u.]:              -11.762942147750458

 -------------------------------------------------------------------------------
 -                                                                             -
 -                                DBCSR STATISTICS                             -
 -                                                                             -
 -------------------------------------------------------------------------------
 COUNTER                                    TOTAL       BLAS       SMM       ACC
 flops     4 x     4 x     4                24576       0.0%    100.0%      0.0%
 flops     4 x     4 x    52               136448       0.0%    100.0%      0.0%
 flops    52 x     4 x     4               169728       0.0%    100.0%      0.0%
 flops     4 x     4 x   116               304384       0.0%    100.0%      0.0%
 flops   116 x     4 x     4               378624       0.0%    100.0%      0.0%
 flops    52 x    52 x     4               454272       0.0%    100.0%      0.0%
 flops   116 x    52 x     4              1013376       0.0%    100.0%      0.0%
 flops    52 x     4 x    52              2119936       0.0%    100.0%      0.0%
 flops   116 x   116 x     4              2260608       0.0%    100.0%      0.0%
 flops   116 x     4 x    52              4729088       0.0%    100.0%      0.0%
 flops    52 x     4 x   116              4729088       0.0%    100.0%      0.0%
 flops   116 x     4 x   116             10549504       0.0%    100.0%      0.0%
 flops inhomo. stacks                           0       0.0%      0.0%      0.0%
 flops total                        26.869632E+06       0.0%    100.0%      0.0%
 flops max/rank                     18.383232E+06       0.0%    100.0%      0.0%
 matmuls inhomo. stacks                         0       0.0%      0.0%      0.0%
 matmuls total                               1015       0.0%    100.0%      0.0%
 number of processed stacks                  1015       0.0%    100.0%      0.0%
 average stack size                                     0.0       1.0       0.0
 marketing flops                    27.893760E+06
 -------------------------------------------------------------------------------
 # multiplications                            497
 max memory usage/rank               1.435963E+09
 # max total images/rank                        1
 # max 3D layers                                1
 # MPI messages exchanged                  445312
 MPI messages size (bytes):
  total size                       170.607360E+06
  min size                           0.000000E+00
  max size                         107.648000E+03
  average size                     383.118713E+00
 MPI breakdown and total messages size (bytes):
             size <=      128              436884                   435456
       128 < size <=     8192                5684                 15278592
      8192 < size <=    32768                 686                 14839552
     32768 < size <=   131072                2058                140053760
    131072 < size <=  4194304                   0                        0
   4194304 < size <= 16777216                   0                        0
  16777216 < size                               0                        0
 -------------------------------------------------------------------------------
 -                                                                             -
 -                      DBCSR MESSAGE PASSING PERFORMANCE                      -
 -                                                                             -
 -------------------------------------------------------------------------------
 ROUTINE             CALLS      AVE VOLUME [Bytes]
 MP_Bcast               13                     12.
 MP_Allreduce         2657                      8.
 MP_Alltoall          1846                   6742.
 MP_ISend            15896                   1145.
 MP_IRecv            15896                    382.
 -------------------------------------------------------------------------------

 -------------------------------------------------------------------------------
 -                                                                             -
 -                                GRID STATISTICS                              -
 -                                                                             -
 -------------------------------------------------------------------------------
 LP    KERNEL    OPERATION                                     COUNT     PERCENT
 0     general   collocate                                       128       0.72%
 2     ortho     integrate                                      3840      21.52%
 2     ortho     collocate                                      4032      22.60%
 3     ortho     integrate                                      1920      10.76%
 3     ortho     collocate                                      2016      11.30%
 4     ortho     integrate                                       320       1.79%
 4     ortho     collocate                                       336       1.88%
 5     ortho     integrate                                      1920      10.76%
 5     ortho     collocate                                      2016      11.30%
 6     ortho     integrate                                       320       1.79%
 6     ortho     collocate                                       336       1.88%
 8     ortho     integrate                                       320       1.79%
 8     ortho     collocate                                       336       1.88%
 -------------------------------------------------------------------------------

 MEMORY| Estimated peak process memory [MiB]                                1370

 -------------------------------------------------------------------------------
 -                                                                             -
 -                         MESSAGE PASSING PERFORMANCE                         -
 -                                                                             -
 -------------------------------------------------------------------------------

 ROUTINE             CALLS      AVE VOLUME [Bytes]
 MP_Group                5
 MP_Bcast              215                 849292.
 MP_Allreduce          649                   4038.
 MP_Sync               121
 MP_Alltoall           444                4799699.
 MP_ISendRecv         7812                  72885.
 MP_Wait              9970
 MP_comm_split          14
 MP_ISend             1826                 588759.
 MP_IRecv             1826                 588862.
 MP_Recv                 3                   1344.
 -------------------------------------------------------------------------------


 -------------------------------------------------------------------------------
 -                                                                             -
 -                           R E F E R E N C E S                               -
 -                                                                             -
 -------------------------------------------------------------------------------
 
 CP2K version 8.0 (Development Version), the CP2K developers group (2020).
 CP2K is freely available from https://www.cp2k.org/ .

 Kuehne,Thomas D.; Iannuzzi,Marcella; Del Ben,Mauro;
 Rybkin,Vladimir V.; Seewald,Patrick; Stein,Frederick; Laino,Teodoro;
 Khaliullin,Rustam Z.; Schuett,Ole; Schiffmann,Florian; Golze,Dorothea;
 Wilhelm,Jan; Chulkov,Sergey; Bani-Hashemian,Mohammad Hossein;
 Weber,Valery; Borstnik,Urban; Taillefumier,Mathieu;
 Jakobovits,Alice Shoshana; Lazzaro,Alfio; Pabst,Hans; Mueller,Tiziano;
 Schade,Robert; Guidon,Manuel; Andermatt,Samuel; Holmberg,Nico;
 Schenter,Gregory K.; Hehn,Anna; Bussy,Augustin; Belleflamme,Fabian;
 Tabacchi,Gloria; Gloess,Andreas; Lass,Michael; Bethune,Iain;
 Mundy,Christopher J.; Plessl,Christian; Watkins,Matt;
 VandeVondele,Joost; Krack,Matthias; Hutter,Juerg. 
 The Journal of Chemical Physics, 152 (19), (2020). 
 CP2K: An electronic structure and molecular dynamics software package -
 Quickstep: Efficient and accurate electronic structure calculations.
 https://doi.org/10.1063/5.0007045

 Schuett, Ole; Messmer, Peter; Hutter, Juerg; VandeVondele, Joost. 
 Electronic Structure Calculations on Graphics Processing Units, John
 Wiley & Sons, Ltd, 173-190 (2016). 
 GPU-Accelerated Sparse Matrix-Matrix Multiplication for
 Linear Scaling Density Functional Theory.
 https://doi.org/10.1002/9781118670712.ch8

 Borstnik, U; VandeVondele, J; Weber, V; Hutter, J. 
 PARALLEL COMPUTING, 40 (5-6), 47-58 (2014). 
 Sparse matrix multiplication: The distributed block-compressed sparse
 row library.
 https://doi.org/10.1016/j.parco.2014.03.012

 Hutter, J; Iannuzzi, M; Schiffmann, F; VandeVondele, J. 
 WIREs Comput Mol Sci., 4 (1), 15-25 (2014). 
 CP2K: atomistic simulations of condensed matter systems.
 https://doi.org/10.1002/wcms.1159

 Marek, A; Blum, V; Johanni, R; Havu, V; Lang, B; Auckenthaler, T;
 Heinecke, A; Bungartz, H; Lederer, H. 
 Journal of Physics: Condensed Matter, 26 (21), (2014). 
 The ELPA library: scalable parallel eigenvalue solutions for
 electronic structure
 theory and computational science.
 https://doi.org/10.1088/0953-8984/26/21/213201

 Guidon, M; Hutter, J; VandeVondele, J. 
 JOURNAL OF CHEMICAL THEORY AND COMPUTATION, 5 (11), 3010-3021 (2009). 
 Robust Periodic Hartree-Fock Exchange for Large-Scale Simulations Using
 Gaussian Basis Sets.
 https://doi.org/10.1021/ct900494g

 Guidon, M; Schiffmann, F; Hutter, J; VandeVondele, J. 
 JOURNAL OF CHEMICAL PHYSICS, 128 (21), 214104 (2008). 
 Ab initio molecular dynamics using hybrid density functionals.
 https://doi.org/10.1063/1.2931945

 Krack, M. 
 THEORETICAL CHEMISTRY ACCOUNTS, 114 (1-3), 145-152 (2005). 
 Pseudopotentials for H to Kr optimized for gradient-corrected
 exchange-correlation functionals.
 https://doi.org/10.1007/s00214-005-0655-y

 VandeVondele, J; Krack, M; Mohamed, F; Parrinello, M; Chassaing, T;
 Hutter, J. COMPUTER PHYSICS COMMUNICATIONS, 167 (2), 103-128 (2005). 
 QUICKSTEP: Fast and accurate density functional calculations using a
 mixed Gaussian and plane waves approach.
 https://doi.org/10.1016/j.cpc.2004.12.014

 Frigo, M; Johnson, SG. 
 PROCEEDINGS OF THE IEEE, 93 (2), 216-231 (2005). 
 The design and implementation of FFTW3.
 https://doi.org/10.1109/JPROC.2004.840301

 VandeVondele, J; Hutter, J. 
 JOURNAL OF CHEMICAL PHYSICS, 118 (10), 4365-4369 (2003). 
 An efficient orbital transformation method for electronic structure
 calculations.
 https://doi.org/10.1063/1.1543154

 Martyna, GJ; Tuckerman, ME. 
 JOURNAL OF CHEMICAL PHYSICS, 110 (6), 2810-2821 (1999). 
 A reciprocal space based method for treating long range interactions in
 ab initio and force-field-based calculations in clusters.
 https://doi.org/10.1063/1.477923

 Hartwigsen, C; Goedecker, S; Hutter, J. 
 PHYSICAL REVIEW B, 58 (7), 3641-3662 (1998). 
 Relativistic separable dual-space Gaussian pseudopotentials from H to Rn.
 https://doi.org/10.1103/PhysRevB.58.3641

 Lippert, G; Hutter, J; Parrinello, M. 
 MOLECULAR PHYSICS, 92 (3), 477-487 (1997). 
 A hybrid Gaussian and plane wave density functional scheme.
 https://doi.org/10.1080/002689797170220

 Perdew, JP; Burke, K; Ernzerhof, M. 
 PHYSICAL REVIEW LETTERS, 77 (18), 3865-3868 (1996). 
 Generalized gradient approximation made simple.
 https://doi.org/10.1103/PhysRevLett.77.3865

 Goedecker, S; Teter, M; Hutter, J. 
 PHYSICAL REVIEW B, 54 (3), 1703-1710 (1996). 
 Separable dual-space Gaussian pseudopotentials.
 https://doi.org/10.1103/PhysRevB.54.1703


 -------------------------------------------------------------------------------
 -                                                                             -
 -                                T I M I N G                                  -
 -                                                                             -
 -------------------------------------------------------------------------------
 SUBROUTINE                       CALLS  ASD         SELF TIME        TOTAL TIME
                                MAXIMUM       AVERAGE  MAXIMUM  AVERAGE  MAXIMUM
 CP2K                                 1  1.0    0.008    0.068   44.654   44.661
 qs_energies                          1  2.0    0.000    0.000   44.323   44.330
 scf_env_do_scf                       1  3.0    0.000    0.000   44.045   44.052
 qs_ks_update_qs_env                 22  5.0    0.000    0.001   40.131   40.137
 rebuild_ks_matrix                   20  6.0    0.000    0.000   40.129   40.136
 qs_ks_build_kohn_sham_matrix        20  7.0    0.004    0.006   40.129   40.136
 hfx_ks_matrix                       20  8.0    0.001    0.002   31.695   31.706
 integrate_four_center               20  9.0    0.034    0.056   31.693   31.703
 init_scf_loop                        2  4.0    0.000    0.000   22.043   22.046
 scf_env_do_scf_inner_loop           20  4.0    0.001    0.001   22.002   22.005
 mp_sync                            121 10.7   19.243   19.875   19.243   19.875
 integrate_four_center_main          20 10.0    0.002    0.003    0.624   19.824
 integrate_four_center_bin         2560 11.0    0.621   19.823    0.621   19.823
 calc_screening_functions             1 10.0    9.841   10.074   10.307   10.548
 pw_transfer                        387  9.6    0.027    0.034    5.926    6.525
 fft_wrap_pw1pw2                    347 10.7    0.004    0.004    5.859    6.456
 fft_wrap_pw1pw2_300                223 11.8    0.418    0.471    5.501    6.089
 fft3d_ps                           347 12.7    1.857    2.112    4.736    5.396
 qs_vxc_create                       20  8.0    0.001    0.001    4.767    4.814
 xc_vxc_pw_create                    20  9.0    0.039    0.044    4.767    4.813
 qs_rho_update_rho                   21  5.0    0.000    0.000    3.728    3.729
 calculate_rho_elec                  21  6.0    0.018    0.019    3.728    3.729
 rs_pw_transfer                     165  9.4    0.003    0.004    3.388    3.503
 mp_alltoall_z22v                   347 14.7    2.430    3.492    2.430    3.492
 density_rs2pw                       21  7.0    0.001    0.001    2.716    2.843
 xc_rho_set_and_dset_create          20 10.0    0.043    0.047    2.275    2.755
 sum_up_and_integrate                20  8.0    0.017    0.026    2.730    2.753
 integrate_v_rspace_low              20  9.0    0.016    0.288    2.713    2.746
 potential_pw2rs                     20 10.0    0.002    0.002    2.414    2.444
 yz_to_x                            145 13.2    0.152    0.200    1.598    2.377
 x_to_yz                            161 14.1    0.274    0.314    1.256    1.397
 mp_waitany                        1826 11.4    0.870    1.083    0.870    1.083
 rs_pw_transfer_RS2PW_300            22  8.9    0.698    0.752    0.969    1.080
 rs_pw_transfer_PW2RS_300            20 12.0    0.602    0.667    1.005    1.064
 xc_functional_eval                  20 11.0    0.000    0.000    0.550    1.028
 pbe_lda_eval                        20 12.0    0.550    1.028    0.550    1.028
 grid_collocate_task_list            21  7.0    0.672    0.950    0.672    0.950
 -------------------------------------------------------------------------------

 The number of warnings for this run is : 0
 
 -------------------------------------------------------------------------------
  **** **** ******  **  PROGRAM ENDED AT                 2020-12-01 21:10:02.989
 ***** ** ***  *** **   PROGRAM RAN ON                                   tcopt13
 **    ****   ******    PROGRAM RAN BY                                    hutter
 ***** **    ** ** **   PROGRAM PROCESS ID                                126343
  **** **  *******  **  PROGRAM STOPPED IN /data/hutter/GITHUB/BASIS/MOLOPT/PBE0
                                           /alsipscl
