 DBCSR| CPU Multiplication driver                                           XSMM
 DBCSR| Multrec recursion limit                                              512
 DBCSR| Multiplication stack size                                           1000
 DBCSR| Maximum elements for images                                    UNLIMITED
 DBCSR| Multiplicative factor virtual images                                   1
 DBCSR| Use multiplication densification                                       T
 DBCSR| Multiplication size stacks                                             3
 DBCSR| Use memory pool for CPU allocation                                     F
 DBCSR| Number of 3D layers                                               SINGLE
 DBCSR| Use MPI memory allocation                                              F
 DBCSR| Use RMA algorithm                                                      F
 DBCSR| Use Communication thread                                               T
 DBCSR| Communication thread load                                             87
 DBCSR| Split modifier for TAS multiplication algorithm                  1.0E+00


  **** **** ******  **  PROGRAM STARTED AT               2020-11-30 16:50:58.461
 ***** ** ***  *** **   PROGRAM STARTED ON                               tcopt10
 **    ****   ******    PROGRAM STARTED BY                                hutter
 ***** **    ** ** **   PROGRAM PROCESS ID                                 33897
  **** **  *******  **  PROGRAM STARTED IN /data/hutter/GITHUB/BASIS/MOLOPT/PBE0
                                           /alsipscl

 CP2K| version string:                    CP2K version 8.0 (Development Version)
 CP2K| source code revision number:                                  git:afc71fa
 CP2K| cp2kflags: omp libint fftw3 libxc elpa parallel mpi3 scalapack xsmm spgli
 CP2K|            b sirius
 CP2K| is freely available from                            https://www.cp2k.org/
 CP2K| Program compiled at                          Tue Nov 17 10:27:14 CET 2020
 CP2K| Program compiled on                                               tcopt10
 CP2K| Program compiled for                                                local
 CP2K| Data directory path                 /data/hutter/GITHUB/CURRENT/cp2k/data
 CP2K| Input file name                                               AlN-ref.inp

 GLOBAL| Force Environment number                                              1
 GLOBAL| Basis set file name                                  ../PBE0_UCSEGBASIS
 GLOBAL| Potential file name                                        ../POTENTIAL
 GLOBAL| MM Potential file name                                     MM_POTENTIAL
 GLOBAL| Coordinate file name                                      __STD_INPUT__
 GLOBAL| Method name                                                        CP2K
 GLOBAL| Project name                                                     refAlN
 GLOBAL| Preferred FFT library                                             FFTW3
 GLOBAL| Preferred diagonalization lib.                                     ELPA
 GLOBAL| Run type                                                         ENERGY
 GLOBAL| All-to-all communication in single precision                          F
 GLOBAL| FFTs using library dependent lengths                                  F
 GLOBAL| Global print level                                                  LOW
 GLOBAL| MPI I/O enabled                                                       T
 GLOBAL| Total number of message passing processes                            36
 GLOBAL| Number of threads for this process                                    1
 GLOBAL| This output is from process                                           0
 GLOBAL| CPU model name                          AMD EPYC 7401 24-Core Processor
 GLOBAL| CPUID                                                              1002

 MEMORY| system memory details [Kb]
 MEMORY|                        rank 0           min           max       average
 MEMORY| MemTotal            263987256     263987256     263987256     263987256
 MEMORY| MemFree             258378916     258378916     258378916     258378916
 MEMORY| Buffers                    32            32            32            32
 MEMORY| Cached                1942464       1942464       1942464       1942464
 MEMORY| Slab                   771192        771192        771192        771192
 MEMORY| SReclaimable           280132        280132        280132        280132
 MEMORY| MemLikelyFree       260601544     260601544     260601544     260601544


 GENERATE|  Preliminary Number of Bonds generated:                             0
 GENERATE|  Achieved consistency in connectivity generation.

 *******************************************************************************
 *   ___                                                                       *
 *  /   \                                                                      *
 * [ABORT]                                                                     *
 *  \___/  The requested atomic potential <GTH-PBE-q5> for element <N> was not *
 *    |                 found in the potential file <../POTENTIAL>             *
 *  O/|                                                                        *
 * /| |                                                                        *
 * / \                                  subsys/external_potential_types.F:2325 *
 *******************************************************************************


 ===== Routine Calling Stack ===== 

            3 read_qs_kind
            2 create_qs_kind_set
            1 CP2K
 DBCSR| CPU Multiplication driver                                           XSMM
 DBCSR| Multrec recursion limit                                              512
 DBCSR| Multiplication stack size                                           1000
 DBCSR| Maximum elements for images                                    UNLIMITED
 DBCSR| Multiplicative factor virtual images                                   1
 DBCSR| Use multiplication densification                                       T
 DBCSR| Multiplication size stacks                                             3
 DBCSR| Use memory pool for CPU allocation                                     F
 DBCSR| Number of 3D layers                                               SINGLE
 DBCSR| Use MPI memory allocation                                              F
 DBCSR| Use RMA algorithm                                                      F
 DBCSR| Use Communication thread                                               T
 DBCSR| Communication thread load                                             87
 DBCSR| Split modifier for TAS multiplication algorithm                  1.0E+00


  **** **** ******  **  PROGRAM STARTED AT               2020-11-30 17:17:59.445
 ***** ** ***  *** **   PROGRAM STARTED ON                               tcopt10
 **    ****   ******    PROGRAM STARTED BY                                hutter
 ***** **    ** ** **   PROGRAM PROCESS ID                                 40458
  **** **  *******  **  PROGRAM STARTED IN /data/hutter/GITHUB/BASIS/MOLOPT/PBE0
                                           /alsipscl

 CP2K| version string:                    CP2K version 8.0 (Development Version)
 CP2K| source code revision number:                                  git:afc71fa
 CP2K| cp2kflags: omp libint fftw3 libxc elpa parallel mpi3 scalapack xsmm spgli
 CP2K|            b sirius
 CP2K| is freely available from                            https://www.cp2k.org/
 CP2K| Program compiled at                          Tue Nov 17 10:27:14 CET 2020
 CP2K| Program compiled on                                               tcopt10
 CP2K| Program compiled for                                                local
 CP2K| Data directory path                 /data/hutter/GITHUB/CURRENT/cp2k/data
 CP2K| Input file name                                               AlN-ref.inp

 GLOBAL| Force Environment number                                              1
 GLOBAL| Basis set file name                                  ../PBE0_UCSEGBASIS
 GLOBAL| Potential file name                                        ../POTENTIAL
 GLOBAL| MM Potential file name                                     MM_POTENTIAL
 GLOBAL| Coordinate file name                                      __STD_INPUT__
 GLOBAL| Method name                                                        CP2K
 GLOBAL| Project name                                                     refAlN
 GLOBAL| Preferred FFT library                                             FFTW3
 GLOBAL| Preferred diagonalization lib.                                     ELPA
 GLOBAL| Run type                                                         ENERGY
 GLOBAL| All-to-all communication in single precision                          F
 GLOBAL| FFTs using library dependent lengths                                  F
 GLOBAL| Global print level                                                  LOW
 GLOBAL| MPI I/O enabled                                                       T
 GLOBAL| Total number of message passing processes                            36
 GLOBAL| Number of threads for this process                                    1
 GLOBAL| This output is from process                                           0
 GLOBAL| CPU model name                          AMD EPYC 7401 24-Core Processor
 GLOBAL| CPUID                                                              1002

 MEMORY| system memory details [Kb]
 MEMORY|                        rank 0           min           max       average
 MEMORY| MemTotal            263987256     263987256     263987256     263987256
 MEMORY| MemFree             258456080     258456080     258456080     258456080
 MEMORY| Buffers                    32            32            32            32
 MEMORY| Cached                1956004       1956004       1956004       1956004
 MEMORY| Slab                   771064        771064        771064        771064
 MEMORY| SReclaimable           278148        278148        278148        278148
 MEMORY| MemLikelyFree       260690264     260690264     260690264     260690264


 GENERATE|  Preliminary Number of Bonds generated:                             0
 GENERATE|  Achieved consistency in connectivity generation.

 *******************************************************************************
 *******************************************************************************
 **                                                                           **
 **     #####                         ##              ##                      **
 **    ##   ##            ##          ##              ##                      **
 **   ##     ##                       ##            ######                    **
 **   ##     ##  ##   ##  ##   #####  ##  ##   ####   ##    #####    #####    **
 **   ##     ##  ##   ##  ##  ##      ## ##   ##      ##   ##   ##  ##   ##   **
 **   ##  ## ##  ##   ##  ##  ##      ####     ###    ##   ######   ######    **
 **    ##  ###   ##   ##  ##  ##      ## ##      ##   ##   ##       ##        **
 **     #######   #####   ##   #####  ##  ##  ####    ##    #####   ##        **
 **           ##                                                    ##        **
 **                                                                           **
 **                                                ... make the atoms dance   **
 **                                                                           **
 **            Copyright (C) by CP2K developers group (2000 - 2020)           **
 **                      J. Chem. Phys. 152, 194103 (2020)                    **
 **                                                                           **
 *******************************************************************************


 TOTAL NUMBERS AND MAXIMUM NUMBERS

  Total number of            - Atomic kinds:                                   2
                             - Atoms:                                          2
                             - Shell sets:                                    24
                             - Shells:                                        48
                             - Primitive Cartesian functions:                 24
                             - Cartesian basis functions:                    212
                             - Spherical basis functions:                    168

  Maximum angular momentum of- Orbital basis functions:                        4
                             - Local part of the GTH pseudopotential:          2
                             - Non-local part of the GTH pseudopotential:      2


 SCF PARAMETERS         Density guess:                                    ATOMIC
                        --------------------------------------------------------
                        max_scf:                                              10
                        max_scf_history:                                       0
                        max_diis:                                              4
                        --------------------------------------------------------
                        eps_scf:                                        1.00E-07
                        eps_scf_history:                                0.00E+00
                        eps_diis:                                       1.00E-01
                        eps_eigval:                                     1.00E-05
                        --------------------------------------------------------
                        level_shift [a.u.]:                                 0.00
                        --------------------------------------------------------
                        Outer loop SCF in use 
                        No variables optimised in outer loop
                        eps_scf                                         1.00E-07
                        max_scf                                               10
                        No outer loop optimization
                        step_size                                       5.00E-01

 Number of electrons:                                                          8
 Number of occupied orbitals:                                                  4
 Number of molecular orbitals:                                                 4

 Number of orbital functions:                                                168
 Number of independent orbital functions:                                    168

 Extrapolation method: initial_guess


 SCF WAVEFUNCTION OPTIMIZATION

  ----------------------------------- OT ---------------------------------------
  Minimizer      : DIIS                : direct inversion
                                         in the iterative subspace
                                         using   7 DIIS vectors
                                         safer DIIS on
  Preconditioner : FULL_ALL            : diagonalization, state selective
  Precond_solver : DEFAULT
  stepsize       :    0.15000000                  energy_gap     :    0.08000000
  eps_taylor     :   0.10000E-15                  max_taylor     :             4
  ----------------------------------- OT ---------------------------------------

  Step     Update method      Time    Convergence         Total energy    Change
  ------------------------------------------------------------------------------
     1 OT DIIS     0.15E+00   28.0     0.07322550       -11.5730986841 -1.16E+01
     2 OT DIIS     0.15E+00    1.4     0.17452152       -11.3926391066  1.80E-01
     3 OT DIIS     0.15E+00    1.2     0.02183398       -11.7361868378 -3.44E-01
     4 OT DIIS     0.15E+00    1.2     0.01140370       -11.7559580738 -1.98E-02
     5 OT DIIS     0.15E+00    1.3     0.00227302       -11.7609887592 -5.03E-03
     6 OT DIIS     0.15E+00    1.2     0.00137390       -11.7614884570 -5.00E-04
     7 OT DIIS     0.15E+00    1.2     0.00116737       -11.7617827829 -2.94E-04
     8 OT DIIS     0.15E+00    1.2     0.00093271       -11.7620431938 -2.60E-04
     9 OT DIIS     0.15E+00    1.2     0.00094745       -11.7623854170 -3.42E-04
    10 OT DIIS     0.15E+00    1.2     0.00065900       -11.7627280105 -3.43E-04

  Leaving inner SCF loop after reaching    10 steps.


  Electronic density on regular grids:         -8.0000000000        0.0000000000
  Core density on regular grids:                8.0000000000        0.0000000000
  Total charge density on r-space grids:        0.0000000000
  Total charge density g-space grids:           0.0000000000

  Overlap energy of the core charge distribution:               0.00000000148359
  Self energy of the core charge distribution:                -30.32914360351929
  Core Hamiltonian energy:                                      7.90219300030652
  Hartree energy:                                              13.68767997651787
  Exchange-correlation energy:                                 -2.34581076215795
  Hartree-Fock Exchange energy:                                -0.67764662318031

  Total energy:                                               -11.76272801054956

  outer SCF iter =    1 RMS gradient =   0.66E-03 energy =        -11.7627280105

  ----------------------------------- OT ---------------------------------------
  Minimizer      : DIIS                : direct inversion
                                         in the iterative subspace
                                         using   7 DIIS vectors
                                         safer DIIS on
  Preconditioner : FULL_ALL            : diagonalization, state selective
  Precond_solver : DEFAULT
  stepsize       :    0.15000000                  energy_gap     :    0.08000000
  eps_taylor     :   0.10000E-15                  max_taylor     :             4
  ----------------------------------- OT ---------------------------------------

  Step     Update method      Time    Convergence         Total energy    Change
  ------------------------------------------------------------------------------
     1 OT DIIS     0.15E+00    2.5     0.00029631       -11.7628829261 -1.55E-04
     2 OT DIIS     0.15E+00    1.2     0.00021485       -11.7628902953 -7.37E-06
     3 OT DIIS     0.15E+00    1.2     0.00021851       -11.7628967588 -6.46E-06
     4 OT DIIS     0.15E+00    1.2     0.00016690       -11.7628989766 -2.22E-06
     5 OT DIIS     0.15E+00    1.2     0.00014299       -11.7629076611 -8.68E-06
     6 OT DIIS     0.15E+00    1.2     0.00008361       -11.7629283764 -2.07E-05
     7 OT DIIS     0.15E+00    1.2     0.00001659       -11.7629347269 -6.35E-06
     8 OT DIIS     0.15E+00    1.2     0.00000630       -11.7629348900 -1.63E-07
     9 OT DIIS     0.15E+00    1.3     0.00000260       -11.7629348929 -2.96E-09
    10 OT DIIS     0.15E+00    1.2     0.00000074       -11.7629348932 -3.14E-10

  Leaving inner SCF loop after reaching    10 steps.


  Electronic density on regular grids:         -8.0000000000        0.0000000000
  Core density on regular grids:                8.0000000000        0.0000000000
  Total charge density on r-space grids:        0.0000000000
  Total charge density g-space grids:           0.0000000000

  Overlap energy of the core charge distribution:               0.00000000148359
  Self energy of the core charge distribution:                -30.32914360351929
  Core Hamiltonian energy:                                      7.88778933274155
  Hartree energy:                                              13.69716894880328
  Exchange-correlation energy:                                 -2.34353757284121
  Hartree-Fock Exchange energy:                                -0.67521199989775

  Total energy:                                               -11.76293489322983

  outer SCF iter =    2 RMS gradient =   0.74E-06 energy =        -11.7629348932

  ----------------------------------- OT ---------------------------------------
  Minimizer      : DIIS                : direct inversion
                                         in the iterative subspace
                                         using   7 DIIS vectors
                                         safer DIIS on
  Preconditioner : FULL_ALL            : diagonalization, state selective
  Precond_solver : DEFAULT
  stepsize       :    0.15000000                  energy_gap     :    0.08000000
  eps_taylor     :   0.10000E-15                  max_taylor     :             4
  ----------------------------------- OT ---------------------------------------

  Step     Update method      Time    Convergence         Total energy    Change
  ------------------------------------------------------------------------------
     1 OT DIIS     0.15E+00    2.5     0.00000035       -11.7629348933 -3.26E-11
     2 OT DIIS     0.15E+00    1.2     0.00000033       -11.7629348933 -1.18E-11
     3 OT DIIS     0.15E+00    1.3     0.00000034       -11.7629348933 -1.77E-11
     4 OT DIIS     0.15E+00    1.2     0.00000033       -11.7629348933 -7.00E-12
     5 OT DIIS     0.15E+00    1.2     0.00000033       -11.7629348933 -1.57E-11
     6 OT DIIS     0.15E+00    1.2     0.00000033       -11.7629348933 -3.23E-11
     7 OT DIIS     0.15E+00    1.2     0.00000033       -11.7629348935 -1.76E-10
     8 OT DIIS     0.15E+00    1.2     0.00000032       -11.7629348940 -5.05E-10
     9 OT DIIS     0.15E+00    1.2     0.00000032       -11.7629348942 -1.60E-10
    10 OT DIIS     0.15E+00    1.2     0.00000032       -11.7629348943 -1.53E-10

  Leaving inner SCF loop after reaching    10 steps.


  Electronic density on regular grids:         -8.0000000000        0.0000000000
  Core density on regular grids:                8.0000000000        0.0000000000
  Total charge density on r-space grids:        0.0000000000
  Total charge density g-space grids:           0.0000000000

  Overlap energy of the core charge distribution:               0.00000000148359
  Self energy of the core charge distribution:                -30.32914360351929
  Core Hamiltonian energy:                                      7.88779084890678
  Hartree energy:                                              13.69716759996472
  Exchange-correlation energy:                                 -2.34353796688703
  Hartree-Fock Exchange energy:                                -0.67521177428969

  Total energy:                                               -11.76293489434092

  outer SCF iter =    3 RMS gradient =   0.32E-06 energy =        -11.7629348943

  ----------------------------------- OT ---------------------------------------
  Minimizer      : DIIS                : direct inversion
                                         in the iterative subspace
                                         using   7 DIIS vectors
                                         safer DIIS on
  Preconditioner : FULL_ALL            : diagonalization, state selective
  Precond_solver : DEFAULT
  stepsize       :    0.15000000                  energy_gap     :    0.08000000
  eps_taylor     :   0.10000E-15                  max_taylor     :             4
  ----------------------------------- OT ---------------------------------------

  Step     Update method      Time    Convergence         Total energy    Change
  ------------------------------------------------------------------------------
     1 OT DIIS     0.15E+00    2.5     0.00000032       -11.7629348960 -1.62E-09
     2 OT DIIS     0.15E+00    1.2     0.00000032       -11.7629348960 -1.03E-11
     3 OT DIIS     0.15E+00    1.2     0.00000032       -11.7629348960 -3.74E-12
     4 OT SD       0.15E+00    1.2     0.00000032       -11.7629348960 -1.36E-11
     5 OT SD       0.15E+00    1.2     0.00000032       -11.7629348960 -1.03E-11
     6 OT SD       0.15E+00    1.2     0.00000032       -11.7629348960 -1.04E-11
     7 OT SD       0.15E+00    1.2     0.00000032       -11.7629348960 -1.04E-11
     8 OT SD       0.15E+00    1.2     0.00000032       -11.7629348960 -1.04E-11
     9 OT SD       0.15E+00    1.3     0.00000032       -11.7629348960 -1.04E-11
    10 OT SD       0.15E+00    1.2     0.00000032       -11.7629348961 -1.04E-11

  Leaving inner SCF loop after reaching    10 steps.


  Electronic density on regular grids:         -8.0000000000        0.0000000000
  Core density on regular grids:                8.0000000000        0.0000000000
  Total charge density on r-space grids:        0.0000000000
  Total charge density g-space grids:           0.0000000000

  Overlap energy of the core charge distribution:               0.00000000148359
  Self energy of the core charge distribution:                -30.32914360351929
  Core Hamiltonian energy:                                      7.88779100065936
  Hartree energy:                                              13.69716750202365
  Exchange-correlation energy:                                 -2.34353799789462
  Hartree-Fock Exchange energy:                                -0.67521179880803

  Total energy:                                               -11.76293489605535

  outer SCF iter =    4 RMS gradient =   0.32E-06 energy =        -11.7629348961

  ----------------------------------- OT ---------------------------------------
  Minimizer      : DIIS                : direct inversion
                                         in the iterative subspace
                                         using   7 DIIS vectors
                                         safer DIIS on
  Preconditioner : FULL_ALL            : diagonalization, state selective
  Precond_solver : DEFAULT
  stepsize       :    0.15000000                  energy_gap     :    0.08000000
  eps_taylor     :   0.10000E-15                  max_taylor     :             4
  ----------------------------------- OT ---------------------------------------

  Step     Update method      Time    Convergence         Total energy    Change
  ------------------------------------------------------------------------------
     1 OT DIIS     0.15E+00    2.5     0.00000032       -11.7629348961 -1.05E-11
     2 OT SD       0.15E+00    1.2     0.00000033       -11.7629348961 -7.54E-12
     3 OT SD       0.15E+00    1.2     0.00000034       -11.7629348961 -7.72E-12
     4 OT SD       0.15E+00    1.3     0.00000035       -11.7629348961 -8.24E-12
     5 OT SD       0.15E+00    1.2     0.00000042       -11.7629348961 -8.30E-12
     6 OT SD       0.15E+00    1.2     0.00000064       -11.7629348961 -6.16E-12
     7 OT SD       0.15E+00    1.2     0.00000121       -11.7629348961  6.46E-12
     8 OT SD       0.15E+00    1.2     0.00000252       -11.7629348960  6.69E-11
     9 OT SD       0.15E+00    1.2     0.00000537       -11.7629348957  3.49E-10
    10 OT DIIS     0.15E+00    1.3     0.00001151       -11.7629348940  1.65E-09

  Leaving inner SCF loop after reaching    10 steps.


  Electronic density on regular grids:         -7.9999999999        0.0000000001
  Core density on regular grids:                8.0000000000        0.0000000000
  Total charge density on r-space grids:        0.0000000001
  Total charge density g-space grids:           0.0000000001

  Overlap energy of the core charge distribution:               0.00000000148359
  Self energy of the core charge distribution:                -30.32914360351929
  Core Hamiltonian energy:                                      7.88791629476783
  Hartree energy:                                              13.69707426959662
  Exchange-correlation energy:                                 -2.34356232200878
  Hartree-Fock Exchange energy:                                -0.67521953435585

  Total energy:                                               -11.76293489403588

  outer SCF iter =    5 RMS gradient =   0.12E-04 energy =        -11.7629348940

  ----------------------------------- OT ---------------------------------------
  Minimizer      : DIIS                : direct inversion
                                         in the iterative subspace
                                         using   7 DIIS vectors
                                         safer DIIS on
  Preconditioner : FULL_ALL            : diagonalization, state selective
  Precond_solver : DEFAULT
  stepsize       :    0.15000000                  energy_gap     :    0.08000000
  eps_taylor     :   0.10000E-15                  max_taylor     :             4
  ----------------------------------- OT ---------------------------------------

  Step     Update method      Time    Convergence         Total energy    Change
  ------------------------------------------------------------------------------
     1 OT DIIS     0.15E+00    2.5     0.00001025       -11.7629349048 -1.08E-08
     2 OT DIIS     0.15E+00    1.2     0.00001350       -11.7629347941  1.11E-07
     3 OT DIIS     0.15E+00    1.2     0.00001350       -11.7629347935  5.75E-10
     4 OT SD       0.15E+00    1.2     0.00001351       -11.7629347918  1.71E-09
     5 OT SD       0.15E+00    1.2     0.00001417       -11.7629346721  1.20E-07
     6 OT SD       0.15E+00    1.2     0.00001479       -11.7629345636  1.09E-07
     7 OT SD       0.15E+00    1.2     0.00001599       -11.7629344676  9.60E-08
     8 OT SD       0.15E+00    1.2     0.00002129       -11.7629343835  8.41E-08
     9 OT SD       0.15E+00    1.2     0.00003518       -11.7629343030  8.05E-08
    10 OT DIIS     0.15E+00    1.2     0.00007095       -11.7629341916  1.11E-07

  Leaving inner SCF loop after reaching    10 steps.


  Electronic density on regular grids:         -7.9999981717        0.0000018283
  Core density on regular grids:                8.0000000000        0.0000000000
  Total charge density on r-space grids:        0.0000018283
  Total charge density g-space grids:           0.0000018283

  Overlap energy of the core charge distribution:               0.00000000148359
  Self energy of the core charge distribution:                -30.32914360351929
  Core Hamiltonian energy:                                      7.88721185292347
  Hartree energy:                                              13.69760127932628
  Exchange-correlation energy:                                 -2.34342212388965
  Hartree-Fock Exchange energy:                                -0.67518159792324

  Total energy:                                               -11.76293419159883

  outer SCF iter =    6 RMS gradient =   0.71E-04 energy =        -11.7629341916

  ----------------------------------- OT ---------------------------------------
  Minimizer      : DIIS                : direct inversion
                                         in the iterative subspace
                                         using   7 DIIS vectors
                                         safer DIIS on
  Preconditioner : FULL_ALL            : diagonalization, state selective
  Precond_solver : DEFAULT
  stepsize       :    0.15000000                  energy_gap     :    0.08000000
  eps_taylor     :   0.10000E-15                  max_taylor     :             4
  ----------------------------------- OT ---------------------------------------

  Step     Update method      Time    Convergence         Total energy    Change
  ------------------------------------------------------------------------------
     1 OT DIIS     0.15E+00    2.5     0.00005108       -11.7629335930  5.99E-07
     2 OT SD       0.15E+00    1.2     0.00006689       -11.7629309838  2.61E-06
     3 OT SD       0.15E+00    1.2     0.00006959       -11.7629282694  2.71E-06
     4 OT SD       0.15E+00    1.2     0.00007168       -11.7629258279  2.44E-06
     5 OT SD       0.15E+00    1.2     0.00007405       -11.7629236927  2.14E-06
     6 OT SD       0.15E+00    1.2     0.00008679       -11.7629218701  1.82E-06
     7 OT SD       0.15E+00    1.2     0.00011949       -11.7629202859  1.58E-06
     8 OT SD       0.15E+00    1.2     0.00022151       -11.7629186540  1.63E-06
     9 OT DIIS     0.15E+00    1.2     0.00044556       -11.7629154312  3.22E-06
    10 OT DIIS     0.15E+00    1.3     0.00006964       -11.7629834588 -6.80E-05

  Leaving inner SCF loop after reaching    10 steps.


  Electronic density on regular grids:         -8.0000663788       -0.0000663788
  Core density on regular grids:                8.0000000000        0.0000000000
  Total charge density on r-space grids:       -0.0000663788
  Total charge density g-space grids:          -0.0000663788

  Overlap energy of the core charge distribution:               0.00000000148359
  Self energy of the core charge distribution:                -30.32914360351929
  Core Hamiltonian energy:                                      7.88722694254256
  Hartree energy:                                              13.69753249155544
  Exchange-correlation energy:                                 -2.34345921027464
  Hartree-Fock Exchange energy:                                -0.67514008058170

  Total energy:                                               -11.76298345879404

  outer SCF iter =    7 RMS gradient =   0.70E-04 energy =        -11.7629834588

  ----------------------------------- OT ---------------------------------------
  Minimizer      : DIIS                : direct inversion
                                         in the iterative subspace
                                         using   7 DIIS vectors
                                         safer DIIS on
  Preconditioner : FULL_ALL            : diagonalization, state selective
  Precond_solver : DEFAULT
  stepsize       :    0.15000000                  energy_gap     :    0.08000000
  eps_taylor     :   0.10000E-15                  max_taylor     :             4
  ----------------------------------- OT ---------------------------------------

  Step     Update method      Time    Convergence         Total energy    Change
  ------------------------------------------------------------------------------
     1 OT DIIS     0.15E+00    2.5     0.00017691       -11.7629576069  2.59E-05
     2 OT SD       0.15E+00    1.2     0.00022655       -11.7629288406  2.88E-05
     3 OT SD       0.15E+00    1.2     0.00023542       -11.7628997559  2.91E-05
     4 OT SD       0.15E+00    1.2     0.00023910       -11.7628738239  2.59E-05
     5 OT SD       0.15E+00    1.2     0.00024387       -11.7628514347  2.24E-05
     6 OT SD       0.15E+00    1.2     0.00024752       -11.7628327217  1.87E-05
     7 OT SD       0.15E+00    1.2     0.00025921       -11.7628177952  1.49E-05
     8 OT SD       0.15E+00    1.3     0.00027452       -11.7628066453  1.11E-05
     9 OT SD       0.15E+00    1.2     0.00035594       -11.7627989998  7.65E-06
    10 OT SD       0.15E+00    1.2     0.00054962       -11.7627930829  5.92E-06

  Leaving inner SCF loop after reaching    10 steps.


  Electronic density on regular grids:         -7.9993617603        0.0006382397
  Core density on regular grids:                8.0000000000        0.0000000000
  Total charge density on r-space grids:        0.0006382397
  Total charge density g-space grids:           0.0006382397

  Overlap energy of the core charge distribution:               0.00000000148359
  Self energy of the core charge distribution:                -30.32914360351929
  Core Hamiltonian energy:                                      7.89613262518019
  Hartree energy:                                              13.69109130869382
  Exchange-correlation energy:                                 -2.34501405575716
  Hartree-Fock Exchange energy:                                -0.67585935897315

  Total energy:                                               -11.76279308289201

  outer SCF iter =    8 RMS gradient =   0.55E-03 energy =        -11.7627930829

  ----------------------------------- OT ---------------------------------------
  Minimizer      : DIIS                : direct inversion
                                         in the iterative subspace
                                         using   7 DIIS vectors
                                         safer DIIS on
  Preconditioner : FULL_ALL            : diagonalization, state selective
  Precond_solver : DEFAULT
  stepsize       :    0.15000000                  energy_gap     :    0.08000000
  eps_taylor     :   0.10000E-15                  max_taylor     :             4
  ----------------------------------- OT ---------------------------------------

  Step     Update method      Time    Convergence         Total energy    Change
  ------------------------------------------------------------------------------
     1 OT DIIS     0.15E+00    2.5     0.00300723       -11.7627805020  1.26E-05
     2 OT DIIS     0.15E+00    1.2     0.00372954       -11.7548843474  7.90E-03
     3 OT SD       0.15E+00    1.2     0.00371285       -11.7531197600  1.76E-03
     4 OT SD       0.15E+00    1.2     0.00425059       -11.7449900528  8.13E-03
     5 OT SD       0.15E+00    1.3     0.00430736       -11.7379647152  7.03E-03
     6 OT SD       0.15E+00    1.2     0.00672037       -11.7316883944  6.28E-03
     7 OT SD       0.15E+00    1.2     0.01020778       -11.7266348317  5.05E-03
     8 OT SD       0.15E+00    1.2     0.02170544       -11.7169124801  9.72E-03
     9 OT DIIS     0.15E+00    1.2     0.04209213       -11.6964183934  2.05E-02
    10 OT DIIS     0.15E+00    1.2     0.00434926       -11.7585036364 -6.21E-02

  Leaving inner SCF loop after reaching    10 steps.


  Electronic density on regular grids:         -7.9933416835        0.0066583165
  Core density on regular grids:                8.0000000000        0.0000000000
  Total charge density on r-space grids:        0.0066583165
  Total charge density g-space grids:           0.0066583165

  Overlap energy of the core charge distribution:               0.00000000148359
  Self energy of the core charge distribution:                -30.32914360351929
  Core Hamiltonian energy:                                      7.86561710700938
  Hartree energy:                                              13.71603560583381
  Exchange-correlation energy:                                 -2.33781350761702
  Hartree-Fock Exchange energy:                                -0.67319923954698

  Total energy:                                               -11.75850363635652

  outer SCF iter =    9 RMS gradient =   0.43E-02 energy =        -11.7585036364

  ----------------------------------- OT ---------------------------------------
  Minimizer      : DIIS                : direct inversion
                                         in the iterative subspace
                                         using   7 DIIS vectors
                                         safer DIIS on
  Preconditioner : FULL_ALL            : diagonalization, state selective
  Precond_solver : DEFAULT
  stepsize       :    0.15000000                  energy_gap     :    0.08000000
  eps_taylor     :   0.10000E-15                  max_taylor     :             4
  ----------------------------------- OT ---------------------------------------

  Step     Update method      Time    Convergence         Total energy    Change
  ------------------------------------------------------------------------------
     1 OT DIIS     0.15E+00    2.5     0.01079112       -11.7190009477  3.95E-02
     2 OT DIIS     0.15E+00    1.3     0.00956123       -11.6840126375  3.50E-02
     3 OT SD       0.15E+00    1.2     0.01220520       -11.6618049036  2.22E-02
     4 OT SD       0.15E+00    1.2     0.01312351       -11.6345401329  2.73E-02
     5 OT SD       0.15E+00    1.2     0.02720332       -11.6076119246  2.69E-02
     6 OT DIIS     0.15E+00    1.2     0.04786316       -11.5874444056  2.02E-02
     7 OT DIIS     0.15E+00    1.2     0.01630284       -11.6006739730 -1.32E-02
     8 OT DIIS     0.15E+00    1.2     0.01051140       -11.6096406698 -8.97E-03
     9 OT DIIS     0.15E+00    1.2     0.01607876       -11.8434498727 -2.34E-01
    10 OT SD       0.15E+00    1.2     0.00789946       -11.7319859353  1.11E-01

  Leaving inner SCF loop after reaching    10 steps.


  Electronic density on regular grids:         -7.5559673230        0.4440326770
  Core density on regular grids:                8.0000000000        0.0000000000
  Total charge density on r-space grids:        0.4440326770
  Total charge density g-space grids:           0.4440326770

  Overlap energy of the core charge distribution:               0.00000000148359
  Self energy of the core charge distribution:                -30.32914360351929
  Core Hamiltonian energy:                                      7.68125577484115
  Hartree energy:                                              14.01671282606256
  Exchange-correlation energy:                                 -2.31104880583750
  Hartree-Fock Exchange energy:                                -0.78976212829227

  Total energy:                                               -11.73198593526176

  outer SCF iter =   10 RMS gradient =   0.79E-02 energy =        -11.7319859353

  ----------------------------------- OT ---------------------------------------
  Minimizer      : DIIS                : direct inversion
                                         in the iterative subspace
                                         using   7 DIIS vectors
                                         safer DIIS on
  Preconditioner : FULL_ALL            : diagonalization, state selective
  Precond_solver : DEFAULT
  stepsize       :    0.15000000                  energy_gap     :    0.08000000
  eps_taylor     :   0.10000E-15                  max_taylor     :             4
  ----------------------------------- OT ---------------------------------------

  Step     Update method      Time    Convergence         Total energy    Change
  ------------------------------------------------------------------------------
     1 OT DIIS     0.15E+00    2.5     0.01996298       -11.7750647898 -4.31E-02
     2 OT DIIS     0.15E+00    1.2     0.02945596       -11.5397526821  2.35E-01
     3 OT DIIS     0.15E+00    1.2     0.02659900       -11.5059866559  3.38E-02
     4 OT SD       0.15E+00    1.2     0.02840503       -11.4793472999  2.66E-02
     5 OT SD       0.15E+00    1.2     0.03815931       -11.2771229754  2.02E-01
     6 OT SD       0.15E+00    1.2     0.05278189       -11.1797226669  9.74E-02
     7 OT SD       0.15E+00    1.2     0.03602026       -11.1627764769  1.69E-02
     8 OT SD       0.15E+00    1.2     0.04177593       -11.0602404926  1.03E-01
     9 OT SD       0.15E+00    1.2     0.03157427       -11.0052708775  5.50E-02
    10 OT SD       0.15E+00    1.3     0.03086105       -10.9354909568  6.98E-02

  Leaving inner SCF loop after reaching    10 steps.


  Electronic density on regular grids:         -7.4664209609        0.5335790391
  Core density on regular grids:                8.0000000000        0.0000000000
  Total charge density on r-space grids:        0.5335790391
  Total charge density g-space grids:           0.5335790391

  Overlap energy of the core charge distribution:               0.00000000148359
  Self energy of the core charge distribution:                -30.32914360351929
  Core Hamiltonian energy:                                      7.90144318958848
  Hartree energy:                                              14.24614035441074
  Exchange-correlation energy:                                 -2.15331368187085
  Hartree-Fock Exchange energy:                                -0.60061721689337

  Total energy:                                               -10.93549095680070

  outer SCF iter =   11 RMS gradient =   0.31E-01 energy =        -10.9354909568
  outer SCF loop FAILED to converge after   11 iterations or  110 steps


 *** WARNING in qs_scf.F:576 :: SCF run NOT converged ***


 ENERGY| Total FORCE_EVAL ( QS ) energy [a.u.]:              -10.935490956800695

 -------------------------------------------------------------------------------
 -                                                                             -
 -                                DBCSR STATISTICS                             -
 -                                                                             -
 -------------------------------------------------------------------------------
 COUNTER                                    TOTAL       BLAS       SMM       ACC
 flops     4 x     4 x     4                78976       0.0%    100.0%      0.0%
 flops     4 x     4 x    52               750464       0.0%    100.0%      0.0%
 flops    52 x     4 x     4               933504       0.0%    100.0%      0.0%
 flops     4 x     4 x   116              1674112       0.0%    100.0%      0.0%
 flops   116 x     4 x     4              2082432       0.0%    100.0%      0.0%
 flops    52 x    52 x     4              2401152       0.0%    100.0%      0.0%
 flops   116 x    52 x     4              5356416       0.0%    100.0%      0.0%
 flops    52 x     4 x    52             11464960       0.0%    100.0%      0.0%
 flops   116 x   116 x     4             11948928       0.0%    100.0%      0.0%
 flops   116 x     4 x    52             25575680       0.0%    100.0%      0.0%
 flops    52 x     4 x   116             25575680       0.0%    100.0%      0.0%
 flops   116 x     4 x   116             57053440       0.0%    100.0%      0.0%
 flops inhomo. stacks                           0       0.0%      0.0%      0.0%
 flops total                       144.895744E+06       0.0%    100.0%      0.0%
 flops max/rank                     99.164032E+06       0.0%    100.0%      0.0%
 matmuls inhomo. stacks                         0       0.0%      0.0%      0.0%
 matmuls total                               5094       0.0%    100.0%      0.0%
 number of processed stacks                  5094       0.0%    100.0%      0.0%
 average stack size                                     0.0       1.0       0.0
 marketing flops                   150.309280E+06
 -------------------------------------------------------------------------------
 # multiplications                           2281
 max memory usage/rank               1.315062E+09
 # max total images/rank                        1
 # max 3D layers                                1
 # MPI messages exchanged                  821160
 MPI messages size (bytes):
  total size                       659.036800E+06
  min size                           0.000000E+00
  max size                         107.648000E+03
  average size                     802.568054E+00
 MPI breakdown and total messages size (bytes):
             size <=      128              788410                  1148800
       128 < size <=     8192               22150                 59539200
      8192 < size <=    32768                2650                 57324800
     32768 < size <=   131072                7950                541024000
    131072 < size <=  4194304                   0                        0
   4194304 < size <= 16777216                   0                        0
  16777216 < size                               0                        0
 -------------------------------------------------------------------------------
 -                                                                             -
 -                      DBCSR MESSAGE PASSING PERFORMANCE                      -
 -                                                                             -
 -------------------------------------------------------------------------------
 ROUTINE             CALLS      AVE VOLUME [Bytes]
 MP_Bcast               13                     12.
 MP_Allreduce        12171                      8.
 MP_Alltoall          8665                   3544.
 MP_ISend            54700                   1765.
 MP_IRecv            54700                    567.
 -------------------------------------------------------------------------------

 -------------------------------------------------------------------------------
 -                                                                             -
 -                                GRID STATISTICS                              -
 -                                                                             -
 -------------------------------------------------------------------------------
 LP    KERNEL    OPERATION                                     COUNT     PERCENT
 0     general   collocate                                        72       0.08%
 2     ortho     integrate                                     21120      22.10%
 2     ortho     collocate                                     21312      22.31%
 3     ortho     integrate                                     10560      11.05%
 3     ortho     collocate                                     10656      11.15%
 4     ortho     integrate                                      1760       1.84%
 4     ortho     collocate                                      1776       1.86%
 5     ortho     integrate                                     10560      11.05%
 5     ortho     collocate                                     10656      11.15%
 6     ortho     integrate                                      1760       1.84%
 6     ortho     collocate                                      1776       1.86%
 8     ortho     integrate                                      1760       1.84%
 8     ortho     collocate                                      1776       1.86%
 -------------------------------------------------------------------------------

 MEMORY| Estimated peak process memory [MiB]                                1255

 -------------------------------------------------------------------------------
 -                                                                             -
 -                         MESSAGE PASSING PERFORMANCE                         -
 -                                                                             -
 -------------------------------------------------------------------------------

 ROUTINE             CALLS      AVE VOLUME [Bytes]
 MP_Group                5
 MP_Bcast              814                 225351.
 MP_Allreduce         2227                    637.
 MP_Sync               613
 MP_Alltoall          2110                6498986.
 MP_ISendRecv        30975                 113640.
 MP_Wait             41853
 MP_comm_split          56
 MP_ISend             9768                 289178.
 MP_IRecv             9768                 289178.
 MP_Recv                18                   1344.
 -------------------------------------------------------------------------------


 -------------------------------------------------------------------------------
 -                                                                             -
 -                           R E F E R E N C E S                               -
 -                                                                             -
 -------------------------------------------------------------------------------
 
 CP2K version 8.0 (Development Version), the CP2K developers group (2020).
 CP2K is freely available from https://www.cp2k.org/ .

 Kuehne,Thomas D.; Iannuzzi,Marcella; Del Ben,Mauro;
 Rybkin,Vladimir V.; Seewald,Patrick; Stein,Frederick; Laino,Teodoro;
 Khaliullin,Rustam Z.; Schuett,Ole; Schiffmann,Florian; Golze,Dorothea;
 Wilhelm,Jan; Chulkov,Sergey; Bani-Hashemian,Mohammad Hossein;
 Weber,Valery; Borstnik,Urban; Taillefumier,Mathieu;
 Jakobovits,Alice Shoshana; Lazzaro,Alfio; Pabst,Hans; Mueller,Tiziano;
 Schade,Robert; Guidon,Manuel; Andermatt,Samuel; Holmberg,Nico;
 Schenter,Gregory K.; Hehn,Anna; Bussy,Augustin; Belleflamme,Fabian;
 Tabacchi,Gloria; Gloess,Andreas; Lass,Michael; Bethune,Iain;
 Mundy,Christopher J.; Plessl,Christian; Watkins,Matt;
 VandeVondele,Joost; Krack,Matthias; Hutter,Juerg. 
 The Journal of Chemical Physics, 152 (19), (2020). 
 CP2K: An electronic structure and molecular dynamics software package -
 Quickstep: Efficient and accurate electronic structure calculations.
 https://doi.org/10.1063/5.0007045

 Schuett, Ole; Messmer, Peter; Hutter, Juerg; VandeVondele, Joost. 
 Electronic Structure Calculations on Graphics Processing Units, John
 Wiley & Sons, Ltd, 173-190 (2016). 
 GPU-Accelerated Sparse Matrix-Matrix Multiplication for
 Linear Scaling Density Functional Theory.
 https://doi.org/10.1002/9781118670712.ch8

 Borstnik, U; VandeVondele, J; Weber, V; Hutter, J. 
 PARALLEL COMPUTING, 40 (5-6), 47-58 (2014). 
 Sparse matrix multiplication: The distributed block-compressed sparse
 row library.
 https://doi.org/10.1016/j.parco.2014.03.012

 Hutter, J; Iannuzzi, M; Schiffmann, F; VandeVondele, J. 
 WIREs Comput Mol Sci., 4 (1), 15-25 (2014). 
 CP2K: atomistic simulations of condensed matter systems.
 https://doi.org/10.1002/wcms.1159

 Marek, A; Blum, V; Johanni, R; Havu, V; Lang, B; Auckenthaler, T;
 Heinecke, A; Bungartz, H; Lederer, H. 
 Journal of Physics: Condensed Matter, 26 (21), (2014). 
 The ELPA library: scalable parallel eigenvalue solutions for
 electronic structure
 theory and computational science.
 https://doi.org/10.1088/0953-8984/26/21/213201

 Guidon, M; Hutter, J; VandeVondele, J. 
 JOURNAL OF CHEMICAL THEORY AND COMPUTATION, 5 (11), 3010-3021 (2009). 
 Robust Periodic Hartree-Fock Exchange for Large-Scale Simulations Using
 Gaussian Basis Sets.
 https://doi.org/10.1021/ct900494g

 Guidon, M; Schiffmann, F; Hutter, J; VandeVondele, J. 
 JOURNAL OF CHEMICAL PHYSICS, 128 (21), 214104 (2008). 
 Ab initio molecular dynamics using hybrid density functionals.
 https://doi.org/10.1063/1.2931945

 Krack, M. 
 THEORETICAL CHEMISTRY ACCOUNTS, 114 (1-3), 145-152 (2005). 
 Pseudopotentials for H to Kr optimized for gradient-corrected
 exchange-correlation functionals.
 https://doi.org/10.1007/s00214-005-0655-y

 VandeVondele, J; Krack, M; Mohamed, F; Parrinello, M; Chassaing, T;
 Hutter, J. COMPUTER PHYSICS COMMUNICATIONS, 167 (2), 103-128 (2005). 
 QUICKSTEP: Fast and accurate density functional calculations using a
 mixed Gaussian and plane waves approach.
 https://doi.org/10.1016/j.cpc.2004.12.014

 Frigo, M; Johnson, SG. 
 PROCEEDINGS OF THE IEEE, 93 (2), 216-231 (2005). 
 The design and implementation of FFTW3.
 https://doi.org/10.1109/JPROC.2004.840301

 VandeVondele, J; Hutter, J. 
 JOURNAL OF CHEMICAL PHYSICS, 118 (10), 4365-4369 (2003). 
 An efficient orbital transformation method for electronic structure
 calculations.
 https://doi.org/10.1063/1.1543154

 Martyna, GJ; Tuckerman, ME. 
 JOURNAL OF CHEMICAL PHYSICS, 110 (6), 2810-2821 (1999). 
 A reciprocal space based method for treating long range interactions in
 ab initio and force-field-based calculations in clusters.
 https://doi.org/10.1063/1.477923

 Hartwigsen, C; Goedecker, S; Hutter, J. 
 PHYSICAL REVIEW B, 58 (7), 3641-3662 (1998). 
 Relativistic separable dual-space Gaussian pseudopotentials from H to Rn.
 https://doi.org/10.1103/PhysRevB.58.3641

 Lippert, G; Hutter, J; Parrinello, M. 
 MOLECULAR PHYSICS, 92 (3), 477-487 (1997). 
 A hybrid Gaussian and plane wave density functional scheme.
 https://doi.org/10.1080/002689797170220

 Perdew, JP; Burke, K; Ernzerhof, M. 
 PHYSICAL REVIEW LETTERS, 77 (18), 3865-3868 (1996). 
 Generalized gradient approximation made simple.
 https://doi.org/10.1103/PhysRevLett.77.3865

 Goedecker, S; Teter, M; Hutter, J. 
 PHYSICAL REVIEW B, 54 (3), 1703-1710 (1996). 
 Separable dual-space Gaussian pseudopotentials.
 https://doi.org/10.1103/PhysRevB.54.1703


 -------------------------------------------------------------------------------
 -                                                                             -
 -                                T I M I N G                                  -
 -                                                                             -
 -------------------------------------------------------------------------------
 SUBROUTINE                       CALLS  ASD         SELF TIME        TOTAL TIME
                                MAXIMUM       AVERAGE  MAXIMUM  AVERAGE  MAXIMUM
 CP2K                                 1  1.0    0.012    0.057  162.796  162.798
 qs_energies                          1  2.0    0.000    0.000  162.503  162.506
 scf_env_do_scf                       1  3.0    0.000    0.001  162.286  162.288
 qs_ks_update_qs_env                121  5.0    0.002    0.002  146.617  146.631
 rebuild_ks_matrix                  110  6.0    0.000    0.000  146.603  146.617
 qs_ks_build_kohn_sham_matrix       110  7.0    0.017    0.020  146.603  146.617
 scf_env_do_scf_inner_loop          110  4.0    0.004    0.011  123.137  123.139
 hfx_ks_matrix                      110  8.0    0.004    0.005  108.277  108.337
 integrate_four_center              110  9.0    0.190    0.279  108.270  108.331
 mp_sync                            613 10.8   86.077   91.561   86.077   91.561
 integrate_four_center_main         110 10.0    0.014    0.018    5.442   91.427
 integrate_four_center_bin        14080 11.0    5.428   91.416    5.428   91.416
 init_scf_loop                       11  4.0    0.000    0.000   39.148   39.148
 pw_transfer                       2097  9.6    0.184    0.231   25.914   29.989
 fft_wrap_pw1pw2                   1877 10.7    0.024    0.030   25.519   29.622
 fft_wrap_pw1pw2_300               1213 11.8    1.297    1.560   24.441   28.499
 qs_vxc_create                      110  8.0    0.002    0.003   25.176   25.242
 xc_vxc_pw_create                   110  9.0    0.192    0.205   25.174   25.240
 fft3d_ps                          1877 12.7    9.206    9.744   20.469   25.111
 xc_rho_set_and_dset_create         110 10.0    0.103    0.120   14.206   15.906
 mp_alltoall_z22v                  1877 14.7    9.107   14.247    9.107   14.247
 calc_screening_functions             1 10.0   12.898   13.168   13.601   13.882
 qs_rho_update_rho                  111  5.0    0.001    0.001   13.642   13.642
 calculate_rho_elec                 111  6.0    0.081    0.082   13.641   13.642
 rs_pw_transfer                     885  9.5    0.017    0.024   11.267   12.018
 density_rs2pw                      111  7.0    0.006    0.007    9.825   10.535
 yz_to_x                            886 13.1    0.844    0.984    6.102   10.532
 sum_up_and_integrate               110  8.0    0.048    0.071    9.761    9.891
 integrate_v_rspace_low             110  9.0    0.235    0.818    9.712    9.869
 potential_pw2rs                    110 10.0    0.009    0.010    8.803    8.933
 xc_functional_eval                 110 11.0    0.001    0.002    6.819    8.521
 pbe_lda_eval                       110 12.0    6.818    8.519    6.818    8.519
 x_to_yz                            991 14.2    1.269    1.426    5.118    5.820
 mp_waitall_1                    178069 13.7    4.028    5.359    4.028    5.359
 rs_pw_transfer_RS2PW_300           112  9.0    1.873    2.315    3.482    4.228
 rs_pw_transfer_PW2RS_300           110 12.0    1.957    2.489    3.593    3.824
 mp_waitany                        9768 11.5    2.411    3.811    2.411    3.811
 -------------------------------------------------------------------------------

 The number of warnings for this run is : 1
 
 -------------------------------------------------------------------------------
  **** **** ******  **  PROGRAM ENDED AT                 2020-11-30 17:20:42.981
 ***** ** ***  *** **   PROGRAM RAN ON                                   tcopt10
 **    ****   ******    PROGRAM RAN BY                                    hutter
 ***** **    ** ** **   PROGRAM PROCESS ID                                 40458
  **** **  *******  **  PROGRAM STOPPED IN /data/hutter/GITHUB/BASIS/MOLOPT/PBE0
                                           /alsipscl
