 DBCSR| CPU Multiplication driver                                           XSMM
 DBCSR| Multrec recursion limit                                              512
 DBCSR| Multiplication stack size                                           1000
 DBCSR| Maximum elements for images                                    UNLIMITED
 DBCSR| Multiplicative factor virtual images                                   1
 DBCSR| Use multiplication densification                                       T
 DBCSR| Multiplication size stacks                                             3
 DBCSR| Use memory pool for CPU allocation                                     F
 DBCSR| Number of 3D layers                                               SINGLE
 DBCSR| Use MPI memory allocation                                              F
 DBCSR| Use RMA algorithm                                                      F
 DBCSR| Use Communication thread                                               T
 DBCSR| Communication thread load                                             87
 DBCSR| Split modifier for TAS multiplication algorithm                  1.0E+00


  **** **** ******  **  PROGRAM STARTED AT               2020-11-30 16:50:59.289
 ***** ** ***  *** **   PROGRAM STARTED ON                               tcopt10
 **    ****   ******    PROGRAM STARTED BY                                hutter
 ***** **    ** ** **   PROGRAM PROCESS ID                                 34048
  **** **  *******  **  PROGRAM STARTED IN /data/hutter/GITHUB/BASIS/MOLOPT/PBE0
                                           /alsipscl

 CP2K| version string:                    CP2K version 8.0 (Development Version)
 CP2K| source code revision number:                                  git:afc71fa
 CP2K| cp2kflags: omp libint fftw3 libxc elpa parallel mpi3 scalapack xsmm spgli
 CP2K|            b sirius
 CP2K| is freely available from                            https://www.cp2k.org/
 CP2K| Program compiled at                          Tue Nov 17 10:27:14 CET 2020
 CP2K| Program compiled on                                               tcopt10
 CP2K| Program compiled for                                                local
 CP2K| Data directory path                 /data/hutter/GITHUB/CURRENT/cp2k/data
 CP2K| Input file name                                               Cl2-ref.inp

 GLOBAL| Force Environment number                                              1
 GLOBAL| Basis set file name                                  ../PBE0_UCSEGBASIS
 GLOBAL| Potential file name                                        ../POTENTIAL
 GLOBAL| MM Potential file name                                     MM_POTENTIAL
 GLOBAL| Coordinate file name                                      __STD_INPUT__
 GLOBAL| Method name                                                        CP2K
 GLOBAL| Project name                                                     refCl2
 GLOBAL| Preferred FFT library                                             FFTW3
 GLOBAL| Preferred diagonalization lib.                                     ELPA
 GLOBAL| Run type                                                         ENERGY
 GLOBAL| All-to-all communication in single precision                          F
 GLOBAL| FFTs using library dependent lengths                                  F
 GLOBAL| Global print level                                                  LOW
 GLOBAL| MPI I/O enabled                                                       T
 GLOBAL| Total number of message passing processes                            36
 GLOBAL| Number of threads for this process                                    1
 GLOBAL| This output is from process                                           0
 GLOBAL| CPU model name                          AMD EPYC 7401 24-Core Processor
 GLOBAL| CPUID                                                              1002

 MEMORY| system memory details [Kb]
 MEMORY|                        rank 0           min           max       average
 MEMORY| MemTotal            263987256     263987256     263987256     263987256
 MEMORY| MemFree             258367660     258367660     258367660     258367660
 MEMORY| Buffers                    32            32            32            32
 MEMORY| Cached                1942912       1942912       1942912       1942912
 MEMORY| Slab                   771652        771652        771652        771652
 MEMORY| SReclaimable           280196        280196        280196        280196
 MEMORY| MemLikelyFree       260590800     260590800     260590800     260590800


 GENERATE|  Preliminary Number of Bonds generated:                             1
 GENERATE|  Achieved consistency in connectivity generation.
 GENERATE|  Number of Bonds generated:                                         1
 GENERATE|  Preliminary Number of Bends generated:                             0
 GENERATE|  Preliminary Number of Torsions generated:                          0

 *******************************************************************************
 *   ___                                                                       *
 *  /   \                                                                      *
 * [ABORT]                                                                     *
 *  \___/    The requested atomic potential <GTH-PBE-q7> for element <Cl> was  *
 *    |               not found in the potential file <../POTENTIAL>           *
 *  O/|                                                                        *
 * /| |                                                                        *
 * / \                                  subsys/external_potential_types.F:2325 *
 *******************************************************************************


 ===== Routine Calling Stack ===== 

            3 read_qs_kind
            2 create_qs_kind_set
            1 CP2K
 DBCSR| CPU Multiplication driver                                           XSMM
 DBCSR| Multrec recursion limit                                              512
 DBCSR| Multiplication stack size                                           1000
 DBCSR| Maximum elements for images                                    UNLIMITED
 DBCSR| Multiplicative factor virtual images                                   1
 DBCSR| Use multiplication densification                                       T
 DBCSR| Multiplication size stacks                                             3
 DBCSR| Use memory pool for CPU allocation                                     F
 DBCSR| Number of 3D layers                                               SINGLE
 DBCSR| Use MPI memory allocation                                              F
 DBCSR| Use RMA algorithm                                                      F
 DBCSR| Use Communication thread                                               T
 DBCSR| Communication thread load                                             87
 DBCSR| Split modifier for TAS multiplication algorithm                  1.0E+00


  **** **** ******  **  PROGRAM STARTED AT               2020-11-30 17:20:43.221
 ***** ** ***  *** **   PROGRAM STARTED ON                               tcopt10
 **    ****   ******    PROGRAM STARTED BY                                hutter
 ***** **    ** ** **   PROGRAM PROCESS ID                                 40814
  **** **  *******  **  PROGRAM STARTED IN /data/hutter/GITHUB/BASIS/MOLOPT/PBE0
                                           /alsipscl

 CP2K| version string:                    CP2K version 8.0 (Development Version)
 CP2K| source code revision number:                                  git:afc71fa
 CP2K| cp2kflags: omp libint fftw3 libxc elpa parallel mpi3 scalapack xsmm spgli
 CP2K|            b sirius
 CP2K| is freely available from                            https://www.cp2k.org/
 CP2K| Program compiled at                          Tue Nov 17 10:27:14 CET 2020
 CP2K| Program compiled on                                               tcopt10
 CP2K| Program compiled for                                                local
 CP2K| Data directory path                 /data/hutter/GITHUB/CURRENT/cp2k/data
 CP2K| Input file name                                               Cl2-ref.inp

 GLOBAL| Force Environment number                                              1
 GLOBAL| Basis set file name                                  ../PBE0_UCSEGBASIS
 GLOBAL| Potential file name                                        ../POTENTIAL
 GLOBAL| MM Potential file name                                     MM_POTENTIAL
 GLOBAL| Coordinate file name                                      __STD_INPUT__
 GLOBAL| Method name                                                        CP2K
 GLOBAL| Project name                                                     refCl2
 GLOBAL| Preferred FFT library                                             FFTW3
 GLOBAL| Preferred diagonalization lib.                                     ELPA
 GLOBAL| Run type                                                         ENERGY
 GLOBAL| All-to-all communication in single precision                          F
 GLOBAL| FFTs using library dependent lengths                                  F
 GLOBAL| Global print level                                                  LOW
 GLOBAL| MPI I/O enabled                                                       T
 GLOBAL| Total number of message passing processes                            36
 GLOBAL| Number of threads for this process                                    1
 GLOBAL| This output is from process                                           0
 GLOBAL| CPU model name                          AMD EPYC 7401 24-Core Processor
 GLOBAL| CPUID                                                              1002

 MEMORY| system memory details [Kb]
 MEMORY|                        rank 0           min           max       average
 MEMORY| MemTotal            263987256     263987256     263987256     263987256
 MEMORY| MemFree             258468996     258468996     258468996     258468996
 MEMORY| Buffers                    32            32            32            32
 MEMORY| Cached                1957196       1957196       1957196       1957196
 MEMORY| Slab                   771612        771612        771612        771612
 MEMORY| SReclaimable           279140        279140        279140        279140
 MEMORY| MemLikelyFree       260705364     260705364     260705364     260705364


 GENERATE|  Preliminary Number of Bonds generated:                             1
 GENERATE|  Achieved consistency in connectivity generation.
 GENERATE|  Number of Bonds generated:                                         1
 GENERATE|  Preliminary Number of Bends generated:                             0
 GENERATE|  Preliminary Number of Torsions generated:                          0

 *******************************************************************************
 *******************************************************************************
 **                                                                           **
 **     #####                         ##              ##                      **
 **    ##   ##            ##          ##              ##                      **
 **   ##     ##                       ##            ######                    **
 **   ##     ##  ##   ##  ##   #####  ##  ##   ####   ##    #####    #####    **
 **   ##     ##  ##   ##  ##  ##      ## ##   ##      ##   ##   ##  ##   ##   **
 **   ##  ## ##  ##   ##  ##  ##      ####     ###    ##   ######   ######    **
 **    ##  ###   ##   ##  ##  ##      ## ##      ##   ##   ##       ##        **
 **     #######   #####   ##   #####  ##  ##  ####    ##    #####   ##        **
 **           ##                                                    ##        **
 **                                                                           **
 **                                                ... make the atoms dance   **
 **                                                                           **
 **            Copyright (C) by CP2K developers group (2000 - 2020)           **
 **                      J. Chem. Phys. 152, 194103 (2020)                    **
 **                                                                           **
 *******************************************************************************


 TOTAL NUMBERS AND MAXIMUM NUMBERS

  Total number of            - Atomic kinds:                                   1
                             - Atoms:                                          2
                             - Shell sets:                                    24
                             - Shells:                                        56
                             - Primitive Cartesian functions:                 24
                             - Cartesian basis functions:                    312
                             - Spherical basis functions:                    232

  Maximum angular momentum of- Orbital basis functions:                        4
                             - Local part of the GTH pseudopotential:          0
                             - Non-local part of the GTH pseudopotential:      2


 SCF PARAMETERS         Density guess:                                    ATOMIC
                        --------------------------------------------------------
                        max_scf:                                              10
                        max_scf_history:                                       0
                        max_diis:                                              4
                        --------------------------------------------------------
                        eps_scf:                                        1.00E-07
                        eps_scf_history:                                0.00E+00
                        eps_diis:                                       1.00E-01
                        eps_eigval:                                     1.00E-05
                        --------------------------------------------------------
                        level_shift [a.u.]:                                 0.00
                        --------------------------------------------------------
                        Outer loop SCF in use 
                        No variables optimised in outer loop
                        eps_scf                                         1.00E-07
                        max_scf                                               10
                        No outer loop optimization
                        step_size                                       5.00E-01

 Number of electrons:                                                         14
 Number of occupied orbitals:                                                  7
 Number of molecular orbitals:                                                 7

 Number of orbital functions:                                                232
 Number of independent orbital functions:                                    232

 Extrapolation method: initial_guess


 SCF WAVEFUNCTION OPTIMIZATION

  ----------------------------------- OT ---------------------------------------
  Minimizer      : DIIS                : direct inversion
                                         in the iterative subspace
                                         using   7 DIIS vectors
                                         safer DIIS on
  Preconditioner : FULL_ALL            : diagonalization, state selective
  Precond_solver : DEFAULT
  stepsize       :    0.15000000                  energy_gap     :    0.08000000
  eps_taylor     :   0.10000E-15                  max_taylor     :             4
  ----------------------------------- OT ---------------------------------------

  Step     Update method      Time    Convergence         Total energy    Change
  ------------------------------------------------------------------------------
     1 OT DIIS     0.15E+00   25.6     0.08197160       -29.4187328083 -2.94E+01
     2 OT DIIS     0.15E+00    1.3     0.08672564       -29.4483934696 -2.97E-02
     3 OT DIIS     0.15E+00    1.2     0.05685110       -29.8387032296 -3.90E-01
     4 OT DIIS     0.15E+00    1.3     0.02480137       -29.9303923745 -9.17E-02
     5 OT DIIS     0.15E+00    1.2     0.01085369       -29.9539433038 -2.36E-02
     6 OT DIIS     0.15E+00    1.2     0.00250969       -29.9601840189 -6.24E-03
     7 OT DIIS     0.15E+00    1.2     0.00100749       -29.9606199579 -4.36E-04
     8 OT DIIS     0.15E+00    1.2     0.00026301       -29.9607044572 -8.45E-05
     9 OT DIIS     0.15E+00    1.2     0.00015205       -29.9607152779 -1.08E-05
    10 OT DIIS     0.15E+00    1.2     0.00006749       -29.9607170216 -1.74E-06

  Leaving inner SCF loop after reaching    10 steps.


  Electronic density on regular grids:        -14.0000000000       -0.0000000000
  Core density on regular grids:               14.0000000000        0.0000000000
  Total charge density on r-space grids:       -0.0000000000
  Total charge density g-space grids:          -0.0000000000

  Overlap energy of the core charge distribution:               0.00000000033898
  Self energy of the core charge distribution:                -66.93968413859793
  Core Hamiltonian energy:                                     15.29057472162397
  Hartree energy:                                              27.44821175467623
  Exchange-correlation energy:                                 -4.43939278460155
  Hartree-Fock Exchange energy:                                -1.32042657502796

  Total energy:                                               -29.96071702158826

  outer SCF iter =    1 RMS gradient =   0.67E-04 energy =        -29.9607170216

  ----------------------------------- OT ---------------------------------------
  Minimizer      : DIIS                : direct inversion
                                         in the iterative subspace
                                         using   7 DIIS vectors
                                         safer DIIS on
  Preconditioner : FULL_ALL            : diagonalization, state selective
  Precond_solver : DEFAULT
  stepsize       :    0.15000000                  energy_gap     :    0.08000000
  eps_taylor     :   0.10000E-15                  max_taylor     :             4
  ----------------------------------- OT ---------------------------------------

  Step     Update method      Time    Convergence         Total energy    Change
  ------------------------------------------------------------------------------
     1 OT DIIS     0.15E+00    2.5     0.00001461       -29.9607172919 -2.70E-07
     2 OT DIIS     0.15E+00    1.2     0.00000660       -29.9607173274 -3.55E-08
     3 OT DIIS     0.15E+00    1.2     0.00000247       -29.9607173363 -8.88E-09
     4 OT DIIS     0.15E+00    1.2     0.00000066       -29.9607173375 -1.19E-09
     5 OT DIIS     0.15E+00    1.2     0.00000033       -29.9607173376 -7.06E-11
     6 OT DIIS     0.15E+00    1.2     0.00000007       -29.9607173376 -2.84E-11

  *** SCF run converged in     6 steps ***


  Electronic density on regular grids:        -14.0000000000       -0.0000000000
  Core density on regular grids:               14.0000000000        0.0000000000
  Total charge density on r-space grids:       -0.0000000000
  Total charge density g-space grids:          -0.0000000000

  Overlap energy of the core charge distribution:               0.00000000033898
  Self energy of the core charge distribution:                -66.93968413859793
  Core Hamiltonian energy:                                     15.29099245447734
  Hartree energy:                                              27.44784498143096
  Exchange-correlation energy:                                 -4.43943434405486
  Hartree-Fock Exchange energy:                                -1.32043629120408

  Total energy:                                               -29.96071733760958

  outer SCF iter =    2 RMS gradient =   0.70E-07 energy =        -29.9607173376
  outer SCF loop converged in   2 iterations or   16 steps


 ENERGY| Total FORCE_EVAL ( QS ) energy [a.u.]:              -29.960717337609584

 -------------------------------------------------------------------------------
 -                                                                             -
 -                                DBCSR STATISTICS                             -
 -                                                                             -
 -------------------------------------------------------------------------------
 COUNTER                                    TOTAL       BLAS       SMM       ACC
 flops     7 x     7 x     7                61740       0.0%    100.0%      0.0%
 flops     7 x     7 x   116              1500576       0.0%    100.0%      0.0%
 flops   116 x     7 x     7              1864352       0.0%    100.0%      0.0%
 flops   116 x   116 x     7              9607584       0.0%    100.0%      0.0%
 flops   116 x     7 x   116             61789952       0.0%    100.0%      0.0%
 flops inhomo. stacks                           0       0.0%      0.0%      0.0%
 flops total                        74.824204E+06       0.0%    100.0%      0.0%
 flops max/rank                     36.591996E+06       0.0%    100.0%      0.0%
 matmuls inhomo. stacks                         0       0.0%      0.0%      0.0%
 matmuls total                                765       0.0%    100.0%      0.0%
 number of processed stacks                   765       0.0%    100.0%      0.0%
 average stack size                                     0.0       1.0       0.0
 marketing flops                    78.071936E+06
 -------------------------------------------------------------------------------
 # multiplications                            339
 max memory usage/rank               1.277137E+09
 # max total images/rank                        1
 # max 3D layers                                1
 # MPI messages exchanged                  122040
 MPI messages size (bytes):
  total size                       198.493040E+06
  min size                           0.000000E+00
  max size                         107.648000E+03
  average size                       1.626459E+03
 MPI breakdown and total messages size (bytes):
             size <=      128              115790                        0
       128 < size <=     8192                4610                 21950320
      8192 < size <=    32768                   0                        0
     32768 < size <=   131072                1640                176542720
    131072 < size <=  4194304                   0                        0
   4194304 < size <= 16777216                   0                        0
  16777216 < size                               0                        0
 -------------------------------------------------------------------------------
 -                                                                             -
 -                      DBCSR MESSAGE PASSING PERFORMANCE                      -
 -                                                                             -
 -------------------------------------------------------------------------------
 ROUTINE             CALLS      AVE VOLUME [Bytes]
 MP_Bcast                6                     12.
 MP_Allreduce         1813                      8.
 MP_Alltoall          1474                   4301.
 MP_ISend             8128                   2676.
 MP_IRecv             8128                   1313.
 -------------------------------------------------------------------------------

 -------------------------------------------------------------------------------
 -                                                                             -
 -                                GRID STATISTICS                              -
 -                                                                             -
 -------------------------------------------------------------------------------
 LP    KERNEL    OPERATION                                     COUNT     PERCENT
 0     general   collocate                                        72       0.51%
 2     ortho     integrate                                      3008      21.44%
 2     ortho     collocate                                      3196      22.78%
 5     ortho     integrate                                      3008      21.44%
 5     ortho     collocate                                      3196      22.78%
 8     ortho     integrate                                       752       5.36%
 8     ortho     collocate                                       799       5.69%
 -------------------------------------------------------------------------------

 MEMORY| Estimated peak process memory [MiB]                                1220

 -------------------------------------------------------------------------------
 -                                                                             -
 -                         MESSAGE PASSING PERFORMANCE                         -
 -                                                                             -
 -------------------------------------------------------------------------------

 ROUTINE             CALLS      AVE VOLUME [Bytes]
 MP_Group                5
 MP_Bcast              180                 507547.
 MP_Allreduce          596                   2338.
 MP_Sync               101
 MP_Alltoall           324                6219790.
 MP_ISendRecv         4655                 112238.
 MP_Wait              6117
 MP_comm_split          14
 MP_ISend             1360                 278784.
 MP_IRecv             1360                 278784.
 MP_Recv                 3                   3712.
 -------------------------------------------------------------------------------


 -------------------------------------------------------------------------------
 -                                                                             -
 -                           R E F E R E N C E S                               -
 -                                                                             -
 -------------------------------------------------------------------------------
 
 CP2K version 8.0 (Development Version), the CP2K developers group (2020).
 CP2K is freely available from https://www.cp2k.org/ .

 Kuehne,Thomas D.; Iannuzzi,Marcella; Del Ben,Mauro;
 Rybkin,Vladimir V.; Seewald,Patrick; Stein,Frederick; Laino,Teodoro;
 Khaliullin,Rustam Z.; Schuett,Ole; Schiffmann,Florian; Golze,Dorothea;
 Wilhelm,Jan; Chulkov,Sergey; Bani-Hashemian,Mohammad Hossein;
 Weber,Valery; Borstnik,Urban; Taillefumier,Mathieu;
 Jakobovits,Alice Shoshana; Lazzaro,Alfio; Pabst,Hans; Mueller,Tiziano;
 Schade,Robert; Guidon,Manuel; Andermatt,Samuel; Holmberg,Nico;
 Schenter,Gregory K.; Hehn,Anna; Bussy,Augustin; Belleflamme,Fabian;
 Tabacchi,Gloria; Gloess,Andreas; Lass,Michael; Bethune,Iain;
 Mundy,Christopher J.; Plessl,Christian; Watkins,Matt;
 VandeVondele,Joost; Krack,Matthias; Hutter,Juerg. 
 The Journal of Chemical Physics, 152 (19), (2020). 
 CP2K: An electronic structure and molecular dynamics software package -
 Quickstep: Efficient and accurate electronic structure calculations.
 https://doi.org/10.1063/5.0007045

 Schuett, Ole; Messmer, Peter; Hutter, Juerg; VandeVondele, Joost. 
 Electronic Structure Calculations on Graphics Processing Units, John
 Wiley & Sons, Ltd, 173-190 (2016). 
 GPU-Accelerated Sparse Matrix-Matrix Multiplication for
 Linear Scaling Density Functional Theory.
 https://doi.org/10.1002/9781118670712.ch8

 Borstnik, U; VandeVondele, J; Weber, V; Hutter, J. 
 PARALLEL COMPUTING, 40 (5-6), 47-58 (2014). 
 Sparse matrix multiplication: The distributed block-compressed sparse
 row library.
 https://doi.org/10.1016/j.parco.2014.03.012

 Hutter, J; Iannuzzi, M; Schiffmann, F; VandeVondele, J. 
 WIREs Comput Mol Sci., 4 (1), 15-25 (2014). 
 CP2K: atomistic simulations of condensed matter systems.
 https://doi.org/10.1002/wcms.1159

 Marek, A; Blum, V; Johanni, R; Havu, V; Lang, B; Auckenthaler, T;
 Heinecke, A; Bungartz, H; Lederer, H. 
 Journal of Physics: Condensed Matter, 26 (21), (2014). 
 The ELPA library: scalable parallel eigenvalue solutions for
 electronic structure
 theory and computational science.
 https://doi.org/10.1088/0953-8984/26/21/213201

 Guidon, M; Hutter, J; VandeVondele, J. 
 JOURNAL OF CHEMICAL THEORY AND COMPUTATION, 5 (11), 3010-3021 (2009). 
 Robust Periodic Hartree-Fock Exchange for Large-Scale Simulations Using
 Gaussian Basis Sets.
 https://doi.org/10.1021/ct900494g

 Guidon, M; Schiffmann, F; Hutter, J; VandeVondele, J. 
 JOURNAL OF CHEMICAL PHYSICS, 128 (21), 214104 (2008). 
 Ab initio molecular dynamics using hybrid density functionals.
 https://doi.org/10.1063/1.2931945

 Krack, M. 
 THEORETICAL CHEMISTRY ACCOUNTS, 114 (1-3), 145-152 (2005). 
 Pseudopotentials for H to Kr optimized for gradient-corrected
 exchange-correlation functionals.
 https://doi.org/10.1007/s00214-005-0655-y

 VandeVondele, J; Krack, M; Mohamed, F; Parrinello, M; Chassaing, T;
 Hutter, J. COMPUTER PHYSICS COMMUNICATIONS, 167 (2), 103-128 (2005). 
 QUICKSTEP: Fast and accurate density functional calculations using a
 mixed Gaussian and plane waves approach.
 https://doi.org/10.1016/j.cpc.2004.12.014

 Frigo, M; Johnson, SG. 
 PROCEEDINGS OF THE IEEE, 93 (2), 216-231 (2005). 
 The design and implementation of FFTW3.
 https://doi.org/10.1109/JPROC.2004.840301

 VandeVondele, J; Hutter, J. 
 JOURNAL OF CHEMICAL PHYSICS, 118 (10), 4365-4369 (2003). 
 An efficient orbital transformation method for electronic structure
 calculations.
 https://doi.org/10.1063/1.1543154

 Martyna, GJ; Tuckerman, ME. 
 JOURNAL OF CHEMICAL PHYSICS, 110 (6), 2810-2821 (1999). 
 A reciprocal space based method for treating long range interactions in
 ab initio and force-field-based calculations in clusters.
 https://doi.org/10.1063/1.477923

 Hartwigsen, C; Goedecker, S; Hutter, J. 
 PHYSICAL REVIEW B, 58 (7), 3641-3662 (1998). 
 Relativistic separable dual-space Gaussian pseudopotentials from H to Rn.
 https://doi.org/10.1103/PhysRevB.58.3641

 Lippert, G; Hutter, J; Parrinello, M. 
 MOLECULAR PHYSICS, 92 (3), 477-487 (1997). 
 A hybrid Gaussian and plane wave density functional scheme.
 https://doi.org/10.1080/002689797170220

 Perdew, JP; Burke, K; Ernzerhof, M. 
 PHYSICAL REVIEW LETTERS, 77 (18), 3865-3868 (1996). 
 Generalized gradient approximation made simple.
 https://doi.org/10.1103/PhysRevLett.77.3865

 Goedecker, S; Teter, M; Hutter, J. 
 PHYSICAL REVIEW B, 54 (3), 1703-1710 (1996). 
 Separable dual-space Gaussian pseudopotentials.
 https://doi.org/10.1103/PhysRevB.54.1703


 -------------------------------------------------------------------------------
 -                                                                             -
 -                                T I M I N G                                  -
 -                                                                             -
 -------------------------------------------------------------------------------
 SUBROUTINE                       CALLS  ASD         SELF TIME        TOTAL TIME
                                MAXIMUM       AVERAGE  MAXIMUM  AVERAGE  MAXIMUM
 CP2K                                 1  1.0    0.017    0.072   44.760   44.764
 qs_energies                          1  2.0    0.000    0.000   44.454   44.458
 scf_env_do_scf                       1  3.0    0.000    0.000   44.250   44.254
 qs_ks_update_qs_env                 18  5.0    0.000    0.000   42.002   42.007
 rebuild_ks_matrix                   16  6.0    0.000    0.000   42.000   42.005
 qs_ks_build_kohn_sham_matrix        16  7.0    0.003    0.003   42.000   42.005
 hfx_ks_matrix                       16  8.0    0.001    0.001   36.390   36.398
 integrate_four_center               16  9.0    0.027    0.038   36.389   36.397
 init_scf_loop                        2  4.0    0.000    0.000   26.745   26.747
 mp_sync                            101 10.8   20.102   24.006   20.102   24.006
 integrate_four_center_main          16 10.0    0.002    0.003    3.899   23.850
 integrate_four_center_bin         2048 11.0    3.897   23.848    3.897   23.848
 scf_env_do_scf_inner_loop           16  4.0    0.001    0.002   17.504   17.506
 calc_screening_functions             1 10.0   10.902   11.493   11.085   11.678
 pw_transfer                        311  9.6    0.027    0.035    4.003    4.742
 fft_wrap_pw1pw2                    279 10.7    0.004    0.005    3.945    4.690
 fft_wrap_pw1pw2_300                179 11.8    0.195    0.233    3.695    4.420
 fft3d_ps                           279 12.7    1.388    1.478    3.188    4.014
 qs_vxc_create                       16  8.0    0.000    0.001    3.573    3.582
 xc_vxc_pw_create                    16  9.0    0.028    0.029    3.572    3.582
 mp_alltoall_z22v                   279 14.7    1.470    2.372    1.470    2.372
 xc_rho_set_and_dset_create          16 10.0    0.015    0.019    1.902    2.241
 qs_rho_update_rho                   17  5.0    0.000    0.000    2.009    2.009
 calculate_rho_elec                  17  6.0    0.012    0.013    2.009    2.009
 yz_to_x                            134 13.1    0.135    0.161    1.016    1.815
 rs_pw_transfer                     133  9.4    0.003    0.004    1.572    1.671
 density_rs2pw                       17  7.0    0.001    0.001    1.468    1.560
 sum_up_and_integrate                16  8.0    0.007    0.011    1.439    1.452
 integrate_v_rspace_low              16  9.0    0.036    0.197    1.432    1.449
 potential_pw2rs                     16 10.0    0.001    0.001    1.220    1.237
 xc_functional_eval                  16 11.0    0.000    0.000    0.827    1.164
 pbe_lda_eval                        16 12.0    0.827    1.164    0.827    1.164
 mp_sum_l                          1715 10.5    0.634    0.951    0.634    0.951
 integrate_four_center_load          16 10.0    0.000    0.000    0.602    0.912
 hfx_load_balance                     1 11.0    0.000    0.000    0.602    0.912
 hfx_load_balance_range               1 12.0    0.000    0.004    0.594    0.904
 -------------------------------------------------------------------------------

 The number of warnings for this run is : 0
 
 -------------------------------------------------------------------------------
  **** **** ******  **  PROGRAM ENDED AT                 2020-11-30 17:21:28.717
 ***** ** ***  *** **   PROGRAM RAN ON                                   tcopt10
 **    ****   ******    PROGRAM RAN BY                                    hutter
 ***** **    ** ** **   PROGRAM PROCESS ID                                 40814
  **** **  *******  **  PROGRAM STOPPED IN /data/hutter/GITHUB/BASIS/MOLOPT/PBE0
                                           /alsipscl
