 DBCSR| CPU Multiplication driver                                           XSMM
 DBCSR| Multrec recursion limit                                              512
 DBCSR| Multiplication stack size                                           1000
 DBCSR| Maximum elements for images                                    UNLIMITED
 DBCSR| Multiplicative factor virtual images                                   1
 DBCSR| Use multiplication densification                                       T
 DBCSR| Multiplication size stacks                                             3
 DBCSR| Use memory pool for CPU allocation                                     F
 DBCSR| Number of 3D layers                                               SINGLE
 DBCSR| Use MPI memory allocation                                              F
 DBCSR| Use RMA algorithm                                                      F
 DBCSR| Use Communication thread                                               T
 DBCSR| Communication thread load                                             87
 DBCSR| Split modifier for TAS multiplication algorithm                  1.0E+00


  **** **** ******  **  PROGRAM STARTED AT               2020-11-30 16:51:00.958
 ***** ** ***  *** **   PROGRAM STARTED ON                               tcopt10
 **    ****   ******    PROGRAM STARTED BY                                hutter
 ***** **    ** ** **   PROGRAM PROCESS ID                                 34350
  **** **  *******  **  PROGRAM STARTED IN /data/hutter/GITHUB/BASIS/MOLOPT/PBE0
                                           /alsipscl

 CP2K| version string:                    CP2K version 8.0 (Development Version)
 CP2K| source code revision number:                                  git:afc71fa
 CP2K| cp2kflags: omp libint fftw3 libxc elpa parallel mpi3 scalapack xsmm spgli
 CP2K|            b sirius
 CP2K| is freely available from                            https://www.cp2k.org/
 CP2K| Program compiled at                          Tue Nov 17 10:27:14 CET 2020
 CP2K| Program compiled on                                               tcopt10
 CP2K| Program compiled for                                                local
 CP2K| Data directory path                 /data/hutter/GITHUB/CURRENT/cp2k/data
 CP2K| Input file name                                               ClF-ref.inp

 GLOBAL| Force Environment number                                              1
 GLOBAL| Basis set file name                                  ../PBE0_UCSEGBASIS
 GLOBAL| Potential file name                                        ../POTENTIAL
 GLOBAL| MM Potential file name                                     MM_POTENTIAL
 GLOBAL| Coordinate file name                                      __STD_INPUT__
 GLOBAL| Method name                                                        CP2K
 GLOBAL| Project name                                                     refClF
 GLOBAL| Preferred FFT library                                             FFTW3
 GLOBAL| Preferred diagonalization lib.                                     ELPA
 GLOBAL| Run type                                                         ENERGY
 GLOBAL| All-to-all communication in single precision                          F
 GLOBAL| FFTs using library dependent lengths                                  F
 GLOBAL| Global print level                                                  LOW
 GLOBAL| MPI I/O enabled                                                       T
 GLOBAL| Total number of message passing processes                            36
 GLOBAL| Number of threads for this process                                    1
 GLOBAL| This output is from process                                           0
 GLOBAL| CPU model name                          AMD EPYC 7401 24-Core Processor
 GLOBAL| CPUID                                                              1002

 MEMORY| system memory details [Kb]
 MEMORY|                        rank 0           min           max       average
 MEMORY| MemTotal            263987256     263987256     263987256     263987256
 MEMORY| MemFree             258345544     258345544     258345544     258345544
 MEMORY| Buffers                    32            32            32            32
 MEMORY| Cached                1943684       1943684       1943684       1943684
 MEMORY| Slab                   770940        770940        770940        770940
 MEMORY| SReclaimable           279620        279620        279620        279620
 MEMORY| MemLikelyFree       260568880     260568880     260568880     260568880


 GENERATE|  Preliminary Number of Bonds generated:                             0
 GENERATE|  Achieved consistency in connectivity generation.

 *******************************************************************************
 *   ___                                                                       *
 *  /   \                                                                      *
 * [ABORT]                                                                     *
 *  \___/    The requested atomic potential <GTH-PBE-q7> for element <Cl> was  *
 *    |               not found in the potential file <../POTENTIAL>           *
 *  O/|                                                                        *
 * /| |                                                                        *
 * / \                                  subsys/external_potential_types.F:2325 *
 *******************************************************************************


 ===== Routine Calling Stack ===== 

            3 read_qs_kind
            2 create_qs_kind_set
            1 CP2K
 DBCSR| CPU Multiplication driver                                           XSMM
 DBCSR| Multrec recursion limit                                              512
 DBCSR| Multiplication stack size                                           1000
 DBCSR| Maximum elements for images                                    UNLIMITED
 DBCSR| Multiplicative factor virtual images                                   1
 DBCSR| Use multiplication densification                                       T
 DBCSR| Multiplication size stacks                                             3
 DBCSR| Use memory pool for CPU allocation                                     F
 DBCSR| Number of 3D layers                                               SINGLE
 DBCSR| Use MPI memory allocation                                              F
 DBCSR| Use RMA algorithm                                                      F
 DBCSR| Use Communication thread                                               T
 DBCSR| Communication thread load                                             87
 DBCSR| Split modifier for TAS multiplication algorithm                  1.0E+00


  **** **** ******  **  PROGRAM STARTED AT               2020-11-30 17:22:22.121
 ***** ** ***  *** **   PROGRAM STARTED ON                               tcopt10
 **    ****   ******    PROGRAM STARTED BY                                hutter
 ***** **    ** ** **   PROGRAM PROCESS ID                                 41227
  **** **  *******  **  PROGRAM STARTED IN /data/hutter/GITHUB/BASIS/MOLOPT/PBE0
                                           /alsipscl

 CP2K| version string:                    CP2K version 8.0 (Development Version)
 CP2K| source code revision number:                                  git:afc71fa
 CP2K| cp2kflags: omp libint fftw3 libxc elpa parallel mpi3 scalapack xsmm spgli
 CP2K|            b sirius
 CP2K| is freely available from                            https://www.cp2k.org/
 CP2K| Program compiled at                          Tue Nov 17 10:27:14 CET 2020
 CP2K| Program compiled on                                               tcopt10
 CP2K| Program compiled for                                                local
 CP2K| Data directory path                 /data/hutter/GITHUB/CURRENT/cp2k/data
 CP2K| Input file name                                               ClF-ref.inp

 GLOBAL| Force Environment number                                              1
 GLOBAL| Basis set file name                                  ../PBE0_UCSEGBASIS
 GLOBAL| Potential file name                                        ../POTENTIAL
 GLOBAL| MM Potential file name                                     MM_POTENTIAL
 GLOBAL| Coordinate file name                                      __STD_INPUT__
 GLOBAL| Method name                                                        CP2K
 GLOBAL| Project name                                                     refClF
 GLOBAL| Preferred FFT library                                             FFTW3
 GLOBAL| Preferred diagonalization lib.                                     ELPA
 GLOBAL| Run type                                                         ENERGY
 GLOBAL| All-to-all communication in single precision                          F
 GLOBAL| FFTs using library dependent lengths                                  F
 GLOBAL| Global print level                                                  LOW
 GLOBAL| MPI I/O enabled                                                       T
 GLOBAL| Total number of message passing processes                            36
 GLOBAL| Number of threads for this process                                    1
 GLOBAL| This output is from process                                           0
 GLOBAL| CPU model name                          AMD EPYC 7401 24-Core Processor
 GLOBAL| CPUID                                                              1002

 MEMORY| system memory details [Kb]
 MEMORY|                        rank 0           min           max       average
 MEMORY| MemTotal            263987256     263987256     263987256     263987256
 MEMORY| MemFree             258473808     258473808     258473808     258473808
 MEMORY| Buffers                    32            32            32            32
 MEMORY| Cached                1957872       1957872       1957872       1957872
 MEMORY| Slab                   770204        770204        770204        770204
 MEMORY| SReclaimable           278684        278684        278684        278684
 MEMORY| MemLikelyFree       260710396     260710396     260710396     260710396


 GENERATE|  Preliminary Number of Bonds generated:                             0
 GENERATE|  Achieved consistency in connectivity generation.

 *******************************************************************************
 *******************************************************************************
 **                                                                           **
 **     #####                         ##              ##                      **
 **    ##   ##            ##          ##              ##                      **
 **   ##     ##                       ##            ######                    **
 **   ##     ##  ##   ##  ##   #####  ##  ##   ####   ##    #####    #####    **
 **   ##     ##  ##   ##  ##  ##      ## ##   ##      ##   ##   ##  ##   ##   **
 **   ##  ## ##  ##   ##  ##  ##      ####     ###    ##   ######   ######    **
 **    ##  ###   ##   ##  ##  ##      ## ##      ##   ##   ##       ##        **
 **     #######   #####   ##   #####  ##  ##  ####    ##    #####   ##        **
 **           ##                                                    ##        **
 **                                                                           **
 **                                                ... make the atoms dance   **
 **                                                                           **
 **            Copyright (C) by CP2K developers group (2000 - 2020)           **
 **                      J. Chem. Phys. 152, 194103 (2020)                    **
 **                                                                           **
 *******************************************************************************


 TOTAL NUMBERS AND MAXIMUM NUMBERS

  Total number of            - Atomic kinds:                                   2
                             - Atoms:                                          2
                             - Shell sets:                                    24
                             - Shells:                                        48
                             - Primitive Cartesian functions:                 24
                             - Cartesian basis functions:                    212
                             - Spherical basis functions:                    168

  Maximum angular momentum of- Orbital basis functions:                        4
                             - Local part of the GTH pseudopotential:          2
                             - Non-local part of the GTH pseudopotential:      2


 SCF PARAMETERS         Density guess:                                    ATOMIC
                        --------------------------------------------------------
                        max_scf:                                              10
                        max_scf_history:                                       0
                        max_diis:                                              4
                        --------------------------------------------------------
                        eps_scf:                                        1.00E-07
                        eps_scf_history:                                0.00E+00
                        eps_diis:                                       1.00E-01
                        eps_eigval:                                     1.00E-05
                        --------------------------------------------------------
                        level_shift [a.u.]:                                 0.00
                        --------------------------------------------------------
                        Outer loop SCF in use 
                        No variables optimised in outer loop
                        eps_scf                                         1.00E-07
                        max_scf                                               10
                        No outer loop optimization
                        step_size                                       5.00E-01

 *** WARNING in hfx_types.F:1958 :: Periodic Hartree Fock calculation     ***
 *** requested without use of a truncated or shortrange potential. This   ***
 *** may lead to unphysical total energies. Use a truncated  potential to ***
 *** avoid possible problems.                                             ***


 Number of electrons:                                                         14
 Number of occupied orbitals:                                                  7
 Number of molecular orbitals:                                                 7

 Number of orbital functions:                                                168
 Number of independent orbital functions:                                    168

 Extrapolation method: initial_guess


 SCF WAVEFUNCTION OPTIMIZATION

  ----------------------------------- OT ---------------------------------------
  Minimizer      : DIIS                : direct inversion
                                         in the iterative subspace
                                         using   7 DIIS vectors
                                         safer DIIS on
  Preconditioner : FULL_ALL            : diagonalization, state selective
  Precond_solver : DEFAULT
  stepsize       :    0.15000000                  energy_gap     :    0.08000000
  eps_taylor     :   0.10000E-15                  max_taylor     :             4
  ----------------------------------- OT ---------------------------------------

  Step     Update method      Time    Convergence         Total energy    Change
  ------------------------------------------------------------------------------
     1 OT DIIS     0.15E+00   28.0     0.09591442       -38.4000795910 -3.84E+01
     2 OT DIIS     0.15E+00    1.4     0.13523256       -38.7496245068 -3.50E-01
     3 OT DIIS     0.15E+00    1.2     0.09533796       -38.7587002120 -9.08E-03
     4 OT DIIS     0.15E+00    1.2     0.06587088       -38.9885241902 -2.30E-01
     5 OT DIIS     0.15E+00    1.2     0.02520414       -39.0958737931 -1.07E-01
     6 OT DIIS     0.15E+00    1.2     0.01170940       -39.1181482537 -2.23E-02
     7 OT DIIS     0.15E+00    1.2     0.00390750       -39.1272107950 -9.06E-03
     8 OT DIIS     0.15E+00    1.2     0.00372467       -39.1285230001 -1.31E-03
     9 OT DIIS     0.15E+00    1.2     0.00178779       -39.1287228425 -2.00E-04
    10 OT DIIS     0.15E+00    1.2     0.00056111       -39.1288079301 -8.51E-05

  Leaving inner SCF loop after reaching    10 steps.


  Electronic density on regular grids:        -14.0000000285       -0.0000000285
  Core density on regular grids:               14.0000000000        0.0000000000
  Total charge density on r-space grids:       -0.0000000285
  Total charge density g-space grids:          -0.0000000285

  Overlap energy of the core charge distribution:               0.00000000012450
  Self energy of the core charge distribution:                -99.06463821460703
  Core Hamiltonian energy:                                     25.71094435764346
  Hartree energy:                                              41.70240272271748
  Exchange-correlation energy:                                 -5.74505524158592
  Hartree-Fock Exchange energy:                                -1.73246155437752

  Total energy:                                               -39.12880793008502

  outer SCF iter =    1 RMS gradient =   0.56E-03 energy =        -39.1288079301

  ----------------------------------- OT ---------------------------------------
  Minimizer      : DIIS                : direct inversion
                                         in the iterative subspace
                                         using   7 DIIS vectors
                                         safer DIIS on
  Preconditioner : FULL_ALL            : diagonalization, state selective
  Precond_solver : DEFAULT
  stepsize       :    0.15000000                  energy_gap     :    0.08000000
  eps_taylor     :   0.10000E-15                  max_taylor     :             4
  ----------------------------------- OT ---------------------------------------

  Step     Update method      Time    Convergence         Total energy    Change
  ------------------------------------------------------------------------------
     1 OT DIIS     0.15E+00    2.5     0.00009455       -39.1288174645 -9.53E-06
     2 OT DIIS     0.15E+00    1.2     0.00004432       -39.1288184527 -9.88E-07
     3 OT DIIS     0.15E+00    1.2     0.00002694       -39.1288186478 -1.95E-07
     4 OT DIIS     0.15E+00    1.2     0.00000559       -39.1288187163 -6.86E-08
     5 OT DIIS     0.15E+00    1.2     0.00000143       -39.1288187206 -4.28E-09
     6 OT DIIS     0.15E+00    1.2     0.00000037       -39.1288187210 -3.41E-10
     7 OT DIIS     0.15E+00    1.2     0.00000007       -39.1288187210 -2.34E-11

  *** SCF run converged in     7 steps ***


  Electronic density on regular grids:        -14.0000000286       -0.0000000286
  Core density on regular grids:               14.0000000000        0.0000000000
  Total charge density on r-space grids:       -0.0000000286
  Total charge density g-space grids:          -0.0000000286

  Overlap energy of the core charge distribution:               0.00000000012450
  Self energy of the core charge distribution:                -99.06463821460703
  Core Hamiltonian energy:                                     25.70827046123846
  Hartree energy:                                              41.70449594009362
  Exchange-correlation energy:                                 -5.74464871527455
  Hartree-Fock Exchange energy:                                -1.73229819256461

  Total energy:                                               -39.12881872098961

  outer SCF iter =    2 RMS gradient =   0.65E-07 energy =        -39.1288187210
  outer SCF loop converged in   2 iterations or   17 steps


 ENERGY| Total FORCE_EVAL ( QS ) energy [a.u.]:              -39.128818720989614

 -------------------------------------------------------------------------------
 -                                                                             -
 -                                DBCSR STATISTICS                             -
 -                                                                             -
 -------------------------------------------------------------------------------
 COUNTER                                    TOTAL       BLAS       SMM       ACC
 flops     7 x     7 x     7                73402       0.0%    100.0%      0.0%
 flops     7 x     7 x    52               356720       0.0%    100.0%      0.0%
 flops    52 x     7 x     7               443352       0.0%    100.0%      0.0%
 flops    52 x    52 x     7               681408       0.0%    100.0%      0.0%
 flops     7 x     7 x   116               795760       0.0%    100.0%      0.0%
 flops   116 x     7 x     7               989016       0.0%    100.0%      0.0%
 flops    52 x   116 x     7              1520064       0.0%    100.0%      0.0%
 flops    52 x     7 x    52              3255616       0.0%    100.0%      0.0%
 flops   116 x   116 x     7              3390912       0.0%    100.0%      0.0%
 flops   116 x     7 x    52              7262528       0.0%    100.0%      0.0%
 flops    52 x     7 x   116              7262528       0.0%    100.0%      0.0%
 flops   116 x     7 x   116             16201024       0.0%    100.0%      0.0%
 flops inhomo. stacks                           0       0.0%      0.0%      0.0%
 flops total                        42.232330E+06       0.0%    100.0%      0.0%
 flops max/rank                     29.069362E+06       0.0%    100.0%      0.0%
 matmuls inhomo. stacks                         0       0.0%      0.0%      0.0%
 matmuls total                                819       0.0%    100.0%      0.0%
 number of processed stacks                   819       0.0%    100.0%      0.0%
 average stack size                                     0.0       1.0       0.0
 marketing flops                    43.785312E+06
 -------------------------------------------------------------------------------
 # multiplications                            370
 max memory usage/rank               1.279807E+09
 # max total images/rank                        1
 # max 3D layers                                1
 # MPI messages exchanged                  133200
 MPI messages size (bytes):
  total size                       114.097480E+06
  min size                           0.000000E+00
  max size                         107.648000E+03
  average size                     856.587708E+00
 MPI breakdown and total messages size (bytes):
             size <=      128              126485                        0
       128 < size <=     8192                4995                 17006920
      8192 < size <=    32768                 430                  9301760
     32768 < size <=   131072                1290                 87788800
    131072 < size <=  4194304                   0                        0
   4194304 < size <= 16777216                   0                        0
  16777216 < size                               0                        0
 -------------------------------------------------------------------------------
 -                                                                             -
 -                      DBCSR MESSAGE PASSING PERFORMANCE                      -
 -                                                                             -
 -------------------------------------------------------------------------------
 ROUTINE             CALLS      AVE VOLUME [Bytes]
 MP_Bcast               13                     12.
 MP_Allreduce         1992                      8.
 MP_Alltoall          1550                   4011.
 MP_ISend             8872                   1911.
 MP_IRecv             8872                    597.
 -------------------------------------------------------------------------------

 -------------------------------------------------------------------------------
 -                                                                             -
 -                                GRID STATISTICS                              -
 -                                                                             -
 -------------------------------------------------------------------------------
 LP    KERNEL    OPERATION                                     COUNT     PERCENT
 0     general   collocate                                        72       0.31%
 2     ortho     integrate                                      4114      17.94%
 2     ortho     collocate                                      4356      19.00%
 3     ortho     integrate                                      1768       7.71%
 3     ortho     collocate                                      1872       8.17%
 4     ortho     integrate                                       272       1.19%
 4     ortho     collocate                                       288       1.26%
 5     ortho     integrate                                      3468      15.13%
 5     ortho     collocate                                      3672      16.02%
 6     ortho     integrate                                       493       2.15%
 6     ortho     collocate                                       522       2.28%
 8     ortho     integrate                                       986       4.30%
 8     ortho     collocate                                      1044       4.55%
 -------------------------------------------------------------------------------

 MEMORY| Estimated peak process memory [MiB]                                1221

 -------------------------------------------------------------------------------
 -                                                                             -
 -                         MESSAGE PASSING PERFORMANCE                         -
 -                                                                             -
 -------------------------------------------------------------------------------

 ROUTINE             CALLS      AVE VOLUME [Bytes]
 MP_Group                5
 MP_Bcast              206                 886254.
 MP_Allreduce          626                   2228.
 MP_Sync               106
 MP_Alltoall           343                6362560.
 MP_ISendRecv         4935                 112331.
 MP_Wait              6483
 MP_comm_split          14
 MP_ISend             1440                 278784.
 MP_IRecv             1440                 278784.
 MP_Recv                 3                   2688.
 -------------------------------------------------------------------------------


 -------------------------------------------------------------------------------
 -                                                                             -
 -                           R E F E R E N C E S                               -
 -                                                                             -
 -------------------------------------------------------------------------------
 
 CP2K version 8.0 (Development Version), the CP2K developers group (2020).
 CP2K is freely available from https://www.cp2k.org/ .

 Kuehne,Thomas D.; Iannuzzi,Marcella; Del Ben,Mauro;
 Rybkin,Vladimir V.; Seewald,Patrick; Stein,Frederick; Laino,Teodoro;
 Khaliullin,Rustam Z.; Schuett,Ole; Schiffmann,Florian; Golze,Dorothea;
 Wilhelm,Jan; Chulkov,Sergey; Bani-Hashemian,Mohammad Hossein;
 Weber,Valery; Borstnik,Urban; Taillefumier,Mathieu;
 Jakobovits,Alice Shoshana; Lazzaro,Alfio; Pabst,Hans; Mueller,Tiziano;
 Schade,Robert; Guidon,Manuel; Andermatt,Samuel; Holmberg,Nico;
 Schenter,Gregory K.; Hehn,Anna; Bussy,Augustin; Belleflamme,Fabian;
 Tabacchi,Gloria; Gloess,Andreas; Lass,Michael; Bethune,Iain;
 Mundy,Christopher J.; Plessl,Christian; Watkins,Matt;
 VandeVondele,Joost; Krack,Matthias; Hutter,Juerg. 
 The Journal of Chemical Physics, 152 (19), (2020). 
 CP2K: An electronic structure and molecular dynamics software package -
 Quickstep: Efficient and accurate electronic structure calculations.
 https://doi.org/10.1063/5.0007045

 Schuett, Ole; Messmer, Peter; Hutter, Juerg; VandeVondele, Joost. 
 Electronic Structure Calculations on Graphics Processing Units, John
 Wiley & Sons, Ltd, 173-190 (2016). 
 GPU-Accelerated Sparse Matrix-Matrix Multiplication for
 Linear Scaling Density Functional Theory.
 https://doi.org/10.1002/9781118670712.ch8

 Borstnik, U; VandeVondele, J; Weber, V; Hutter, J. 
 PARALLEL COMPUTING, 40 (5-6), 47-58 (2014). 
 Sparse matrix multiplication: The distributed block-compressed sparse
 row library.
 https://doi.org/10.1016/j.parco.2014.03.012

 Hutter, J; Iannuzzi, M; Schiffmann, F; VandeVondele, J. 
 WIREs Comput Mol Sci., 4 (1), 15-25 (2014). 
 CP2K: atomistic simulations of condensed matter systems.
 https://doi.org/10.1002/wcms.1159

 Marek, A; Blum, V; Johanni, R; Havu, V; Lang, B; Auckenthaler, T;
 Heinecke, A; Bungartz, H; Lederer, H. 
 Journal of Physics: Condensed Matter, 26 (21), (2014). 
 The ELPA library: scalable parallel eigenvalue solutions for
 electronic structure
 theory and computational science.
 https://doi.org/10.1088/0953-8984/26/21/213201

 Guidon, M; Hutter, J; VandeVondele, J. 
 JOURNAL OF CHEMICAL THEORY AND COMPUTATION, 5 (11), 3010-3021 (2009). 
 Robust Periodic Hartree-Fock Exchange for Large-Scale Simulations Using
 Gaussian Basis Sets.
 https://doi.org/10.1021/ct900494g

 Guidon, M; Schiffmann, F; Hutter, J; VandeVondele, J. 
 JOURNAL OF CHEMICAL PHYSICS, 128 (21), 214104 (2008). 
 Ab initio molecular dynamics using hybrid density functionals.
 https://doi.org/10.1063/1.2931945

 Krack, M. 
 THEORETICAL CHEMISTRY ACCOUNTS, 114 (1-3), 145-152 (2005). 
 Pseudopotentials for H to Kr optimized for gradient-corrected
 exchange-correlation functionals.
 https://doi.org/10.1007/s00214-005-0655-y

 VandeVondele, J; Krack, M; Mohamed, F; Parrinello, M; Chassaing, T;
 Hutter, J. COMPUTER PHYSICS COMMUNICATIONS, 167 (2), 103-128 (2005). 
 QUICKSTEP: Fast and accurate density functional calculations using a
 mixed Gaussian and plane waves approach.
 https://doi.org/10.1016/j.cpc.2004.12.014

 Frigo, M; Johnson, SG. 
 PROCEEDINGS OF THE IEEE, 93 (2), 216-231 (2005). 
 The design and implementation of FFTW3.
 https://doi.org/10.1109/JPROC.2004.840301

 VandeVondele, J; Hutter, J. 
 JOURNAL OF CHEMICAL PHYSICS, 118 (10), 4365-4369 (2003). 
 An efficient orbital transformation method for electronic structure
 calculations.
 https://doi.org/10.1063/1.1543154

 Martyna, GJ; Tuckerman, ME. 
 JOURNAL OF CHEMICAL PHYSICS, 110 (6), 2810-2821 (1999). 
 A reciprocal space based method for treating long range interactions in
 ab initio and force-field-based calculations in clusters.
 https://doi.org/10.1063/1.477923

 Hartwigsen, C; Goedecker, S; Hutter, J. 
 PHYSICAL REVIEW B, 58 (7), 3641-3662 (1998). 
 Relativistic separable dual-space Gaussian pseudopotentials from H to Rn.
 https://doi.org/10.1103/PhysRevB.58.3641

 Lippert, G; Hutter, J; Parrinello, M. 
 MOLECULAR PHYSICS, 92 (3), 477-487 (1997). 
 A hybrid Gaussian and plane wave density functional scheme.
 https://doi.org/10.1080/002689797170220

 Perdew, JP; Burke, K; Ernzerhof, M. 
 PHYSICAL REVIEW LETTERS, 77 (18), 3865-3868 (1996). 
 Generalized gradient approximation made simple.
 https://doi.org/10.1103/PhysRevLett.77.3865

 Goedecker, S; Teter, M; Hutter, J. 
 PHYSICAL REVIEW B, 54 (3), 1703-1710 (1996). 
 Separable dual-space Gaussian pseudopotentials.
 https://doi.org/10.1103/PhysRevB.54.1703


 -------------------------------------------------------------------------------
 -                                                                             -
 -                                T I M I N G                                  -
 -                                                                             -
 -------------------------------------------------------------------------------
 SUBROUTINE                       CALLS  ASD         SELF TIME        TOTAL TIME
                                MAXIMUM       AVERAGE  MAXIMUM  AVERAGE  MAXIMUM
 CP2K                                 1  1.0    0.010    0.055   48.125   48.131
 qs_energies                          1  2.0    0.000    0.000   47.847   47.853
 scf_env_do_scf                       1  3.0    0.000    0.000   47.586   47.592
 qs_ks_update_qs_env                 19  5.0    0.000    0.000   45.234   45.241
 rebuild_ks_matrix                   17  6.0    0.000    0.000   45.231   45.238
 qs_ks_build_kohn_sham_matrix        17  7.0    0.003    0.003   45.231   45.238
 hfx_ks_matrix                       17  8.0    0.001    0.001   39.420   39.429
 integrate_four_center               17  9.0    0.029    0.039   39.418   39.428
 init_scf_loop                        2  4.0    0.000    0.000   29.039   29.043
 mp_sync                            106 10.8   22.617   23.911   22.617   23.911
 integrate_four_center_main          17 10.0    0.002    0.003    1.290   23.893
 integrate_four_center_bin         2176 11.0    1.288   23.891    1.288   23.891
 scf_env_do_scf_inner_loop           17  4.0    0.001    0.002   18.546   18.549
 calc_screening_functions             1 10.0   12.893   13.254   13.632   13.993
 pw_transfer                        330  9.6    0.029    0.037    4.223    4.933
 fft_wrap_pw1pw2                    296 10.7    0.004    0.005    4.161    4.875
 fft_wrap_pw1pw2_300                190 11.8    0.206    0.245    3.910    4.618
 fft3d_ps                           296 12.7    1.476    1.617    3.359    4.154
 qs_vxc_create                       17  8.0    0.000    0.001    3.656    3.665
 xc_vxc_pw_create                    17  9.0    0.030    0.032    3.655    3.665
 mp_alltoall_z22v                   296 14.7    1.536    2.412    1.536    2.412
 xc_rho_set_and_dset_create          17 10.0    0.016    0.020    1.892    2.248
 qs_rho_update_rho                   18  5.0    0.000    0.000    2.113    2.113
 calculate_rho_elec                  18  6.0    0.013    0.013    2.113    2.113
 yz_to_x                            142 13.1    0.140    0.172    1.061    1.834
 rs_pw_transfer                     141  9.4    0.003    0.004    1.708    1.802
 density_rs2pw                       18  7.0    0.001    0.001    1.536    1.620
 sum_up_and_integrate                17  8.0    0.008    0.012    1.531    1.550
 integrate_v_rspace_low              17  9.0    0.042    0.204    1.523    1.546
 potential_pw2rs                     17 10.0    0.001    0.001    1.304    1.321
 calc_pair_dist_radii                 1 10.0    1.070    1.079    1.266    1.277
 xc_functional_eval                  17 11.0    0.000    0.000    0.755    1.110
 pbe_lda_eval                        17 12.0    0.754    1.110    0.754    1.110
 -------------------------------------------------------------------------------

 The number of warnings for this run is : 1
 
 -------------------------------------------------------------------------------
  **** **** ******  **  PROGRAM ENDED AT                 2020-11-30 17:23:10.970
 ***** ** ***  *** **   PROGRAM RAN ON                                   tcopt10
 **    ****   ******    PROGRAM RAN BY                                    hutter
 ***** **    ** ** **   PROGRAM PROCESS ID                                 41227
  **** **  *******  **  PROGRAM STOPPED IN /data/hutter/GITHUB/BASIS/MOLOPT/PBE0
                                           /alsipscl
