 DBCSR| CPU Multiplication driver                                           XSMM
 DBCSR| Multrec recursion limit                                              512
 DBCSR| Multiplication stack size                                           1000
 DBCSR| Maximum elements for images                                    UNLIMITED
 DBCSR| Multiplicative factor virtual images                                   1
 DBCSR| Use multiplication densification                                       T
 DBCSR| Multiplication size stacks                                             3
 DBCSR| Use memory pool for CPU allocation                                     F
 DBCSR| Number of 3D layers                                               SINGLE
 DBCSR| Use MPI memory allocation                                              F
 DBCSR| Use RMA algorithm                                                      F
 DBCSR| Use Communication thread                                               T
 DBCSR| Communication thread load                                             87
 DBCSR| Split modifier for TAS multiplication algorithm                  1.0E+00


  **** **** ******  **  PROGRAM STARTED AT               2020-11-30 16:51:00.129
 ***** ** ***  *** **   PROGRAM STARTED ON                               tcopt10
 **    ****   ******    PROGRAM STARTED BY                                hutter
 ***** **    ** ** **   PROGRAM PROCESS ID                                 34201
  **** **  *******  **  PROGRAM STARTED IN /data/hutter/GITHUB/BASIS/MOLOPT/PBE0
                                           /alsipscl

 CP2K| version string:                    CP2K version 8.0 (Development Version)
 CP2K| source code revision number:                                  git:afc71fa
 CP2K| cp2kflags: omp libint fftw3 libxc elpa parallel mpi3 scalapack xsmm spgli
 CP2K|            b sirius
 CP2K| is freely available from                            https://www.cp2k.org/
 CP2K| Program compiled at                          Tue Nov 17 10:27:14 CET 2020
 CP2K| Program compiled on                                               tcopt10
 CP2K| Program compiled for                                                local
 CP2K| Data directory path                 /data/hutter/GITHUB/CURRENT/cp2k/data
 CP2K| Input file name                                              ClF3-ref.inp

 GLOBAL| Force Environment number                                              1
 GLOBAL| Basis set file name                                  ../PBE0_UCSEGBASIS
 GLOBAL| Potential file name                                        ../POTENTIAL
 GLOBAL| MM Potential file name                                     MM_POTENTIAL
 GLOBAL| Coordinate file name                                      __STD_INPUT__
 GLOBAL| Method name                                                        CP2K
 GLOBAL| Project name                                                    refClF3
 GLOBAL| Preferred FFT library                                             FFTW3
 GLOBAL| Preferred diagonalization lib.                                     ELPA
 GLOBAL| Run type                                                         ENERGY
 GLOBAL| All-to-all communication in single precision                          F
 GLOBAL| FFTs using library dependent lengths                                  F
 GLOBAL| Global print level                                                  LOW
 GLOBAL| MPI I/O enabled                                                       T
 GLOBAL| Total number of message passing processes                            36
 GLOBAL| Number of threads for this process                                    1
 GLOBAL| This output is from process                                           0
 GLOBAL| CPU model name                          AMD EPYC 7401 24-Core Processor
 GLOBAL| CPUID                                                              1002

 MEMORY| system memory details [Kb]
 MEMORY|                        rank 0           min           max       average
 MEMORY| MemTotal            263987256     263987256     263987256     263987256
 MEMORY| MemFree             258367600     258367600     258367600     258367600
 MEMORY| Buffers                    32            32            32            32
 MEMORY| Cached                1943352       1943352       1943352       1943352
 MEMORY| Slab                   771216        771216        771216        771216
 MEMORY| SReclaimable           279716        279716        279716        279716
 MEMORY| MemLikelyFree       260590700     260590700     260590700     260590700


 GENERATE|  Preliminary Number of Bonds generated:                             0
 GENERATE|  Achieved consistency in connectivity generation.

 *******************************************************************************
 *   ___                                                                       *
 *  /   \                                                                      *
 * [ABORT]                                                                     *
 *  \___/    The requested atomic potential <GTH-PBE-q7> for element <Cl> was  *
 *    |               not found in the potential file <../POTENTIAL>           *
 *  O/|                                                                        *
 * /| |                                                                        *
 * / \                                  subsys/external_potential_types.F:2325 *
 *******************************************************************************


 ===== Routine Calling Stack ===== 

            3 read_qs_kind
            2 create_qs_kind_set
            1 CP2K
 DBCSR| CPU Multiplication driver                                           XSMM
 DBCSR| Multrec recursion limit                                              512
 DBCSR| Multiplication stack size                                           1000
 DBCSR| Maximum elements for images                                    UNLIMITED
 DBCSR| Multiplicative factor virtual images                                   1
 DBCSR| Use multiplication densification                                       T
 DBCSR| Multiplication size stacks                                             3
 DBCSR| Use memory pool for CPU allocation                                     F
 DBCSR| Number of 3D layers                                               SINGLE
 DBCSR| Use MPI memory allocation                                              F
 DBCSR| Use RMA algorithm                                                      F
 DBCSR| Use Communication thread                                               T
 DBCSR| Communication thread load                                             87
 DBCSR| Split modifier for TAS multiplication algorithm                  1.0E+00


  **** **** ******  **  PROGRAM STARTED AT               2020-11-30 17:21:28.953
 ***** ** ***  *** **   PROGRAM STARTED ON                               tcopt10
 **    ****   ******    PROGRAM STARTED BY                                hutter
 ***** **    ** ** **   PROGRAM PROCESS ID                                 41014
  **** **  *******  **  PROGRAM STARTED IN /data/hutter/GITHUB/BASIS/MOLOPT/PBE0
                                           /alsipscl

 CP2K| version string:                    CP2K version 8.0 (Development Version)
 CP2K| source code revision number:                                  git:afc71fa
 CP2K| cp2kflags: omp libint fftw3 libxc elpa parallel mpi3 scalapack xsmm spgli
 CP2K|            b sirius
 CP2K| is freely available from                            https://www.cp2k.org/
 CP2K| Program compiled at                          Tue Nov 17 10:27:14 CET 2020
 CP2K| Program compiled on                                               tcopt10
 CP2K| Program compiled for                                                local
 CP2K| Data directory path                 /data/hutter/GITHUB/CURRENT/cp2k/data
 CP2K| Input file name                                              ClF3-ref.inp

 GLOBAL| Force Environment number                                              1
 GLOBAL| Basis set file name                                  ../PBE0_UCSEGBASIS
 GLOBAL| Potential file name                                        ../POTENTIAL
 GLOBAL| MM Potential file name                                     MM_POTENTIAL
 GLOBAL| Coordinate file name                                      __STD_INPUT__
 GLOBAL| Method name                                                        CP2K
 GLOBAL| Project name                                                    refClF3
 GLOBAL| Preferred FFT library                                             FFTW3
 GLOBAL| Preferred diagonalization lib.                                     ELPA
 GLOBAL| Run type                                                         ENERGY
 GLOBAL| All-to-all communication in single precision                          F
 GLOBAL| FFTs using library dependent lengths                                  F
 GLOBAL| Global print level                                                  LOW
 GLOBAL| MPI I/O enabled                                                       T
 GLOBAL| Total number of message passing processes                            36
 GLOBAL| Number of threads for this process                                    1
 GLOBAL| This output is from process                                           0
 GLOBAL| CPU model name                          AMD EPYC 7401 24-Core Processor
 GLOBAL| CPUID                                                              1002

 MEMORY| system memory details [Kb]
 MEMORY|                        rank 0           min           max       average
 MEMORY| MemTotal            263987256     263987256     263987256     263987256
 MEMORY| MemFree             258458100     258458100     258458100     258458100
 MEMORY| Buffers                    32            32            32            32
 MEMORY| Cached                1957596       1957596       1957596       1957596
 MEMORY| Slab                   770732        770732        770732        770732
 MEMORY| SReclaimable           278876        278876        278876        278876
 MEMORY| MemLikelyFree       260694604     260694604     260694604     260694604


 GENERATE|  Preliminary Number of Bonds generated:                             0
 GENERATE|  Achieved consistency in connectivity generation.

 *******************************************************************************
 *******************************************************************************
 **                                                                           **
 **     #####                         ##              ##                      **
 **    ##   ##            ##          ##              ##                      **
 **   ##     ##                       ##            ######                    **
 **   ##     ##  ##   ##  ##   #####  ##  ##   ####   ##    #####    #####    **
 **   ##     ##  ##   ##  ##  ##      ## ##   ##      ##   ##   ##  ##   ##   **
 **   ##  ## ##  ##   ##  ##  ##      ####     ###    ##   ######   ######    **
 **    ##  ###   ##   ##  ##  ##      ## ##      ##   ##   ##       ##        **
 **     #######   #####   ##   #####  ##  ##  ####    ##    #####   ##        **
 **           ##                                                    ##        **
 **                                                                           **
 **                                                ... make the atoms dance   **
 **                                                                           **
 **            Copyright (C) by CP2K developers group (2000 - 2020)           **
 **                      J. Chem. Phys. 152, 194103 (2020)                    **
 **                                                                           **
 *******************************************************************************


 TOTAL NUMBERS AND MAXIMUM NUMBERS

  Total number of            - Atomic kinds:                                   2
                             - Atoms:                                          4
                             - Shell sets:                                    48
                             - Shells:                                        88
                             - Primitive Cartesian functions:                 48
                             - Cartesian basis functions:                    324
                             - Spherical basis functions:                    272

  Maximum angular momentum of- Orbital basis functions:                        4
                             - Local part of the GTH pseudopotential:          2
                             - Non-local part of the GTH pseudopotential:      2


 SCF PARAMETERS         Density guess:                                    ATOMIC
                        --------------------------------------------------------
                        max_scf:                                              10
                        max_scf_history:                                       0
                        max_diis:                                              4
                        --------------------------------------------------------
                        eps_scf:                                        1.00E-07
                        eps_scf_history:                                0.00E+00
                        eps_diis:                                       1.00E-01
                        eps_eigval:                                     1.00E-05
                        --------------------------------------------------------
                        level_shift [a.u.]:                                 0.00
                        --------------------------------------------------------
                        Outer loop SCF in use 
                        No variables optimised in outer loop
                        eps_scf                                         1.00E-07
                        max_scf                                               10
                        No outer loop optimization
                        step_size                                       5.00E-01

 Number of electrons:                                                         28
 Number of occupied orbitals:                                                 14
 Number of molecular orbitals:                                                14

 Number of orbital functions:                                                272
 Number of independent orbital functions:                                    272

 Extrapolation method: initial_guess


 SCF WAVEFUNCTION OPTIMIZATION

  ----------------------------------- OT ---------------------------------------
  Minimizer      : DIIS                : direct inversion
                                         in the iterative subspace
                                         using   7 DIIS vectors
                                         safer DIIS on
  Preconditioner : FULL_ALL            : diagonalization, state selective
  Precond_solver : DEFAULT
  stepsize       :    0.15000000                  energy_gap     :    0.08000000
  eps_taylor     :   0.10000E-15                  max_taylor     :             4
  ----------------------------------- OT ---------------------------------------

  Step     Update method      Time    Convergence         Total energy    Change
  ------------------------------------------------------------------------------
     1 OT DIIS     0.15E+00   28.1     0.07622779       -85.8719088335 -8.59E+01
     2 OT DIIS     0.15E+00    1.4     0.16162156       -85.0715663005  8.00E-01
     3 OT DIIS     0.15E+00    1.2     0.05960125       -87.0039673766 -1.93E+00
     4 OT DIIS     0.15E+00    1.2     0.04248453       -87.2450574098 -2.41E-01
     5 OT DIIS     0.15E+00    1.2     0.00920726       -87.4083067890 -1.63E-01
     6 OT DIIS     0.15E+00    1.2     0.00936729       -87.4242079543 -1.59E-02
     7 OT DIIS     0.15E+00    1.2     0.01252033       -87.4249211267 -7.13E-04
     8 OT DIIS     0.15E+00    1.2     0.00448362       -87.4325922620 -7.67E-03
     9 OT DIIS     0.15E+00    1.2     0.00144837       -87.4343641641 -1.77E-03
    10 OT DIIS     0.15E+00    1.2     0.00109939       -87.4346028598 -2.39E-04

  Leaving inner SCF loop after reaching    10 steps.


  Electronic density on regular grids:        -28.0000000731       -0.0000000731
  Core density on regular grids:               28.0000000000        0.0000000000
  Total charge density on r-space grids:       -0.0000000731
  Total charge density g-space grids:          -0.0000000731

  Overlap energy of the core charge distribution:               0.00000000011284
  Self energy of the core charge distribution:               -230.25423050522318
  Core Hamiltonian energy:                                     61.82982998921875
  Hartree energy:                                              97.68400407204825
  Exchange-correlation energy:                                -12.82966052215390
  Hartree-Fock Exchange energy:                                -3.86454589384166

  Total energy:                                               -87.43460285983890

  outer SCF iter =    1 RMS gradient =   0.11E-02 energy =        -87.4346028598

  ----------------------------------- OT ---------------------------------------
  Minimizer      : DIIS                : direct inversion
                                         in the iterative subspace
                                         using   7 DIIS vectors
                                         safer DIIS on
  Preconditioner : FULL_ALL            : diagonalization, state selective
  Precond_solver : DEFAULT
  stepsize       :    0.15000000                  energy_gap     :    0.08000000
  eps_taylor     :   0.10000E-15                  max_taylor     :             4
  ----------------------------------- OT ---------------------------------------

  Step     Update method      Time    Convergence         Total energy    Change
  ------------------------------------------------------------------------------
     1 OT DIIS     0.15E+00    2.5     0.00030672       -87.4347321335 -1.29E-04
     2 OT DIIS     0.15E+00    1.2     0.00018698       -87.4347604810 -2.83E-05
     3 OT DIIS     0.15E+00    1.2     0.00009642       -87.4347683194 -7.84E-06
     4 OT DIIS     0.15E+00    1.2     0.00003159       -87.4347723113 -3.99E-06
     5 OT DIIS     0.15E+00    1.2     0.00001620       -87.4347725547 -2.43E-07
     6 OT DIIS     0.15E+00    1.2     0.00000544       -87.4347726434 -8.87E-08
     7 OT DIIS     0.15E+00    1.2     0.00000243       -87.4347726590 -1.56E-08
     8 OT DIIS     0.15E+00    1.2     0.00000055       -87.4347726603 -1.39E-09
     9 OT DIIS     0.15E+00    1.3     0.00000018       -87.4347726605 -1.59E-10
    10 OT DIIS     0.15E+00    1.2     0.00000005       -87.4347726605 -2.03E-11

  *** SCF run converged in    10 steps ***


  Electronic density on regular grids:        -28.0000000729       -0.0000000729
  Core density on regular grids:               28.0000000000        0.0000000000
  Total charge density on r-space grids:       -0.0000000729
  Total charge density g-space grids:          -0.0000000729

  Overlap energy of the core charge distribution:               0.00000000011284
  Self energy of the core charge distribution:               -230.25423050522318
  Core Hamiltonian energy:                                     61.83383426668364
  Hartree energy:                                              97.68056586447452
  Exchange-correlation energy:                                -12.83011485874232
  Hartree-Fock Exchange energy:                                -3.86482742782771

  Total energy:                                               -87.43477266052220

  outer SCF iter =    2 RMS gradient =   0.45E-07 energy =        -87.4347726605
  outer SCF loop converged in   2 iterations or   20 steps


 ENERGY| Total FORCE_EVAL ( QS ) energy [a.u.]:              -87.434772660522199

 -------------------------------------------------------------------------------
 -                                                                             -
 -                                DBCSR STATISTICS                             -
 -                                                                             -
 -------------------------------------------------------------------------------
 COUNTER                                    TOTAL       BLAS       SMM       ACC
 flops    14 x    14 x    14               768320       0.0%    100.0%      0.0%
 flops   116 x    52 x    14              3546816       0.0%    100.0%      0.0%
 flops    14 x    14 x   116              3728704       0.0%    100.0%      0.0%
 flops   116 x    14 x    14              4638144       0.0%    100.0%      0.0%
 flops    14 x    14 x    52              5014464       0.0%    100.0%      0.0%
 flops    52 x    14 x    14              6237504       0.0%    100.0%      0.0%
 flops    52 x   116 x    14              7093632       0.0%    100.0%      0.0%
 flops   116 x   116 x    14              7912128       0.0%    100.0%      0.0%
 flops    52 x    52 x    14              9539712       0.0%    100.0%      0.0%
 flops   116 x    14 x   116             36923264       0.0%    100.0%      0.0%
 flops   116 x    14 x    52             49655424       0.0%    100.0%      0.0%
 flops    52 x    14 x   116             49655424       0.0%    100.0%      0.0%
 flops    52 x    14 x    52             66777984       0.0%    100.0%      0.0%
 flops inhomo. stacks                           0       0.0%      0.0%      0.0%
 flops total                       251.491520E+06       0.0%    100.0%      0.0%
 flops max/rank                    108.640448E+06       0.0%    100.0%      0.0%
 matmuls inhomo. stacks                         0       0.0%      0.0%      0.0%
 matmuls total                               2654       0.0%    100.0%      0.0%
 number of processed stacks                  2654       0.0%    100.0%      0.0%
 average stack size                                     0.0       1.0       0.0
 marketing flops                   267.115616E+06
 -------------------------------------------------------------------------------
 # multiplications                            445
 max memory usage/rank               1.277080E+09
 # max total images/rank                        1
 # max 3D layers                                1
 # MPI messages exchanged                  160200
 MPI messages size (bytes):
  total size                       354.854080E+06
  min size                           0.000000E+00
  max size                         107.648000E+03
  average size                       2.215069E+03
 MPI breakdown and total messages size (bytes):
             size <=      128              142330                        0
       128 < size <=     8192                8000                 38463040
      8192 < size <=    32768                6440                121770880
     32768 < size <=   131072                3430                194620160
    131072 < size <=  4194304                   0                        0
   4194304 < size <= 16777216                   0                        0
  16777216 < size                               0                        0
 -------------------------------------------------------------------------------
 -                                                                             -
 -                      DBCSR MESSAGE PASSING PERFORMANCE                      -
 -                                                                             -
 -------------------------------------------------------------------------------
 ROUTINE             CALLS      AVE VOLUME [Bytes]
 MP_Bcast               14                     12.
 MP_Allreduce         2399                      8.
 MP_Alltoall          1742                   4291.
 MP_ISend            10672                   3354.
 MP_IRecv            10672                   1815.
 -------------------------------------------------------------------------------

 -------------------------------------------------------------------------------
 -                                                                             -
 -                                GRID STATISTICS                              -
 -                                                                             -
 -------------------------------------------------------------------------------
 LP    KERNEL    OPERATION                                     COUNT     PERCENT
 0     general   collocate                                       144       0.26%
 2     ortho     integrate                                     11380      20.78%
 2     ortho     collocate                                     11949      21.82%
 3     ortho     integrate                                      9000      16.44%
 3     ortho     collocate                                      9450      17.26%
 4     ortho     integrate                                      1900       3.47%
 4     ortho     collocate                                      1995       3.64%
 5     ortho     integrate                                      3080       5.62%
 5     ortho     collocate                                      3234       5.91%
 6     ortho     integrate                                       960       1.75%
 6     ortho     collocate                                      1008       1.84%
 8     ortho     integrate                                       320       0.58%
 8     ortho     collocate                                       336       0.61%
 -------------------------------------------------------------------------------

 MEMORY| Estimated peak process memory [MiB]                                1219

 -------------------------------------------------------------------------------
 -                                                                             -
 -                         MESSAGE PASSING PERFORMANCE                         -
 -                                                                             -
 -------------------------------------------------------------------------------

 ROUTINE             CALLS      AVE VOLUME [Bytes]
 MP_Group                5
 MP_Bcast              344                 530829.
 MP_Allreduce          971                   1468.
 MP_Sync               121
 MP_Alltoall           400                6235084.
 MP_ISendRecv         5775                 112558.
 MP_Wait              7581
 MP_comm_split          14
 MP_ISend             1680                 278784.
 MP_IRecv             1680                 278784.
 MP_Recv                 4                   6528.
 -------------------------------------------------------------------------------


 -------------------------------------------------------------------------------
 -                                                                             -
 -                           R E F E R E N C E S                               -
 -                                                                             -
 -------------------------------------------------------------------------------
 
 CP2K version 8.0 (Development Version), the CP2K developers group (2020).
 CP2K is freely available from https://www.cp2k.org/ .

 Kuehne,Thomas D.; Iannuzzi,Marcella; Del Ben,Mauro;
 Rybkin,Vladimir V.; Seewald,Patrick; Stein,Frederick; Laino,Teodoro;
 Khaliullin,Rustam Z.; Schuett,Ole; Schiffmann,Florian; Golze,Dorothea;
 Wilhelm,Jan; Chulkov,Sergey; Bani-Hashemian,Mohammad Hossein;
 Weber,Valery; Borstnik,Urban; Taillefumier,Mathieu;
 Jakobovits,Alice Shoshana; Lazzaro,Alfio; Pabst,Hans; Mueller,Tiziano;
 Schade,Robert; Guidon,Manuel; Andermatt,Samuel; Holmberg,Nico;
 Schenter,Gregory K.; Hehn,Anna; Bussy,Augustin; Belleflamme,Fabian;
 Tabacchi,Gloria; Gloess,Andreas; Lass,Michael; Bethune,Iain;
 Mundy,Christopher J.; Plessl,Christian; Watkins,Matt;
 VandeVondele,Joost; Krack,Matthias; Hutter,Juerg. 
 The Journal of Chemical Physics, 152 (19), (2020). 
 CP2K: An electronic structure and molecular dynamics software package -
 Quickstep: Efficient and accurate electronic structure calculations.
 https://doi.org/10.1063/5.0007045

 Schuett, Ole; Messmer, Peter; Hutter, Juerg; VandeVondele, Joost. 
 Electronic Structure Calculations on Graphics Processing Units, John
 Wiley & Sons, Ltd, 173-190 (2016). 
 GPU-Accelerated Sparse Matrix-Matrix Multiplication for
 Linear Scaling Density Functional Theory.
 https://doi.org/10.1002/9781118670712.ch8

 Borstnik, U; VandeVondele, J; Weber, V; Hutter, J. 
 PARALLEL COMPUTING, 40 (5-6), 47-58 (2014). 
 Sparse matrix multiplication: The distributed block-compressed sparse
 row library.
 https://doi.org/10.1016/j.parco.2014.03.012

 Hutter, J; Iannuzzi, M; Schiffmann, F; VandeVondele, J. 
 WIREs Comput Mol Sci., 4 (1), 15-25 (2014). 
 CP2K: atomistic simulations of condensed matter systems.
 https://doi.org/10.1002/wcms.1159

 Marek, A; Blum, V; Johanni, R; Havu, V; Lang, B; Auckenthaler, T;
 Heinecke, A; Bungartz, H; Lederer, H. 
 Journal of Physics: Condensed Matter, 26 (21), (2014). 
 The ELPA library: scalable parallel eigenvalue solutions for
 electronic structure
 theory and computational science.
 https://doi.org/10.1088/0953-8984/26/21/213201

 Guidon, M; Hutter, J; VandeVondele, J. 
 JOURNAL OF CHEMICAL THEORY AND COMPUTATION, 5 (11), 3010-3021 (2009). 
 Robust Periodic Hartree-Fock Exchange for Large-Scale Simulations Using
 Gaussian Basis Sets.
 https://doi.org/10.1021/ct900494g

 Guidon, M; Schiffmann, F; Hutter, J; VandeVondele, J. 
 JOURNAL OF CHEMICAL PHYSICS, 128 (21), 214104 (2008). 
 Ab initio molecular dynamics using hybrid density functionals.
 https://doi.org/10.1063/1.2931945

 Krack, M. 
 THEORETICAL CHEMISTRY ACCOUNTS, 114 (1-3), 145-152 (2005). 
 Pseudopotentials for H to Kr optimized for gradient-corrected
 exchange-correlation functionals.
 https://doi.org/10.1007/s00214-005-0655-y

 VandeVondele, J; Krack, M; Mohamed, F; Parrinello, M; Chassaing, T;
 Hutter, J. COMPUTER PHYSICS COMMUNICATIONS, 167 (2), 103-128 (2005). 
 QUICKSTEP: Fast and accurate density functional calculations using a
 mixed Gaussian and plane waves approach.
 https://doi.org/10.1016/j.cpc.2004.12.014

 Frigo, M; Johnson, SG. 
 PROCEEDINGS OF THE IEEE, 93 (2), 216-231 (2005). 
 The design and implementation of FFTW3.
 https://doi.org/10.1109/JPROC.2004.840301

 VandeVondele, J; Hutter, J. 
 JOURNAL OF CHEMICAL PHYSICS, 118 (10), 4365-4369 (2003). 
 An efficient orbital transformation method for electronic structure
 calculations.
 https://doi.org/10.1063/1.1543154

 Martyna, GJ; Tuckerman, ME. 
 JOURNAL OF CHEMICAL PHYSICS, 110 (6), 2810-2821 (1999). 
 A reciprocal space based method for treating long range interactions in
 ab initio and force-field-based calculations in clusters.
 https://doi.org/10.1063/1.477923

 Hartwigsen, C; Goedecker, S; Hutter, J. 
 PHYSICAL REVIEW B, 58 (7), 3641-3662 (1998). 
 Relativistic separable dual-space Gaussian pseudopotentials from H to Rn.
 https://doi.org/10.1103/PhysRevB.58.3641

 Lippert, G; Hutter, J; Parrinello, M. 
 MOLECULAR PHYSICS, 92 (3), 477-487 (1997). 
 A hybrid Gaussian and plane wave density functional scheme.
 https://doi.org/10.1080/002689797170220

 Perdew, JP; Burke, K; Ernzerhof, M. 
 PHYSICAL REVIEW LETTERS, 77 (18), 3865-3868 (1996). 
 Generalized gradient approximation made simple.
 https://doi.org/10.1103/PhysRevLett.77.3865

 Goedecker, S; Teter, M; Hutter, J. 
 PHYSICAL REVIEW B, 54 (3), 1703-1710 (1996). 
 Separable dual-space Gaussian pseudopotentials.
 https://doi.org/10.1103/PhysRevB.54.1703


 -------------------------------------------------------------------------------
 -                                                                             -
 -                                T I M I N G                                  -
 -                                                                             -
 -------------------------------------------------------------------------------
 SUBROUTINE                       CALLS  ASD         SELF TIME        TOTAL TIME
                                MAXIMUM       AVERAGE  MAXIMUM  AVERAGE  MAXIMUM
 CP2K                                 1  1.0    0.020    0.057   52.214   52.215
 qs_energies                          1  2.0    0.000    0.000   51.933   51.934
 scf_env_do_scf                       1  3.0    0.000    0.000   51.721   51.722
 qs_ks_update_qs_env                 22  5.0    0.000    0.000   48.824   48.827
 rebuild_ks_matrix                   20  6.0    0.000    0.000   48.821   48.825
 qs_ks_build_kohn_sham_matrix        20  7.0    0.003    0.004   48.821   48.824
 hfx_ks_matrix                       20  8.0    0.001    0.001   41.685   41.686
 integrate_four_center               20  9.0    0.016    0.018   41.684   41.684
 init_scf_loop                        2  4.0    0.000    0.000   29.162   29.162
 integrate_four_center_main          20 10.0    0.003    0.004    5.008   26.033
 integrate_four_center_bin         2540 11.0    5.005   26.031    5.005   26.031
 mp_sync                            121 10.8   21.038   23.581   21.038   23.581
 scf_env_do_scf_inner_loop           20  4.0    0.001    0.002   22.558   22.559
 calc_screening_functions             1 10.0   12.897   13.338   13.635   14.079
 pw_transfer                        387  9.6    0.034    0.043    4.836    5.447
 fft_wrap_pw1pw2                    347 10.7    0.004    0.005    4.764    5.378
 fft_wrap_pw1pw2_300                223 11.8    0.245    0.289    4.493    5.081
 fft3d_ps                           347 12.7    1.720    1.815    3.820    4.561
 qs_vxc_create                       20  8.0    0.000    0.001    4.311    4.323
 xc_vxc_pw_create                    20  9.0    0.035    0.057    4.310    4.323
 xc_rho_set_and_dset_create          20 10.0    0.019    0.023    2.331    2.672
 qs_rho_update_rho                   21  5.0    0.000    0.000    2.546    2.546
 calculate_rho_elec                  21  6.0    0.015    0.015    2.546    2.546
 mp_alltoall_z22v                   347 14.7    1.689    2.533    1.689    2.533
 rs_pw_transfer                     165  9.4    0.003    0.004    2.002    2.174
 sum_up_and_integrate                20  8.0    0.008    0.010    2.109    2.111
 integrate_v_rspace_low              20  9.0    0.076    0.576    2.101    2.104
 density_rs2pw                       21  7.0    0.001    0.001    1.868    2.031
 yz_to_x                            166 13.1    0.169    0.220    1.135    1.832
 potential_pw2rs                     20 10.0    0.002    0.002    1.511    1.513
 xc_functional_eval                  20 11.0    0.000    0.000    0.987    1.328
 pbe_lda_eval                        20 12.0    0.987    1.328    0.987    1.328
 calc_pair_dist_radii                 1 10.0    1.070    1.075    1.267    1.277
 x_to_yz                            181 14.2    0.232    0.262    0.956    1.087
 -------------------------------------------------------------------------------

 The number of warnings for this run is : 0
 
 -------------------------------------------------------------------------------
  **** **** ******  **  PROGRAM ENDED AT                 2020-11-30 17:22:21.882
 ***** ** ***  *** **   PROGRAM RAN ON                                   tcopt10
 **    ****   ******    PROGRAM RAN BY                                    hutter
 ***** **    ** ** **   PROGRAM PROCESS ID                                 41014
  **** **  *******  **  PROGRAM STOPPED IN /data/hutter/GITHUB/BASIS/MOLOPT/PBE0
                                           /alsipscl
