 DBCSR| CPU Multiplication driver                                           XSMM
 DBCSR| Multrec recursion limit                                              512
 DBCSR| Multiplication stack size                                           1000
 DBCSR| Maximum elements for images                                    UNLIMITED
 DBCSR| Multiplicative factor virtual images                                   1
 DBCSR| Use multiplication densification                                       T
 DBCSR| Multiplication size stacks                                             3
 DBCSR| Use memory pool for CPU allocation                                     F
 DBCSR| Number of 3D layers                                               SINGLE
 DBCSR| Use MPI memory allocation                                              F
 DBCSR| Use RMA algorithm                                                      F
 DBCSR| Use Communication thread                                               T
 DBCSR| Communication thread load                                             87
 DBCSR| Split modifier for TAS multiplication algorithm                  1.0E+00


  **** **** ******  **  PROGRAM STARTED AT               2020-11-30 16:51:01.789
 ***** ** ***  *** **   PROGRAM STARTED ON                               tcopt10
 **    ****   ******    PROGRAM STARTED BY                                hutter
 ***** **    ** ** **   PROGRAM PROCESS ID                                 34502
  **** **  *******  **  PROGRAM STARTED IN /data/hutter/GITHUB/BASIS/MOLOPT/PBE0
                                           /alsipscl

 CP2K| version string:                    CP2K version 8.0 (Development Version)
 CP2K| source code revision number:                                  git:afc71fa
 CP2K| cp2kflags: omp libint fftw3 libxc elpa parallel mpi3 scalapack xsmm spgli
 CP2K|            b sirius
 CP2K| is freely available from                            https://www.cp2k.org/
 CP2K| Program compiled at                          Tue Nov 17 10:27:14 CET 2020
 CP2K| Program compiled on                                               tcopt10
 CP2K| Program compiled for                                                local
 CP2K| Data directory path                 /data/hutter/GITHUB/CURRENT/cp2k/data
 CP2K| Input file name                                               CS2-ref.inp

 GLOBAL| Force Environment number                                              1
 GLOBAL| Basis set file name                                  ../PBE0_UCSEGBASIS
 GLOBAL| Potential file name                                        ../POTENTIAL
 GLOBAL| MM Potential file name                                     MM_POTENTIAL
 GLOBAL| Coordinate file name                                      __STD_INPUT__
 GLOBAL| Method name                                                        CP2K
 GLOBAL| Project name                                                     refCS2
 GLOBAL| Preferred FFT library                                             FFTW3
 GLOBAL| Preferred diagonalization lib.                                     ELPA
 GLOBAL| Run type                                                         ENERGY
 GLOBAL| All-to-all communication in single precision                          F
 GLOBAL| FFTs using library dependent lengths                                  F
 GLOBAL| Global print level                                                  LOW
 GLOBAL| MPI I/O enabled                                                       T
 GLOBAL| Total number of message passing processes                            36
 GLOBAL| Number of threads for this process                                    1
 GLOBAL| This output is from process                                           0
 GLOBAL| CPU model name                          AMD EPYC 7401 24-Core Processor
 GLOBAL| CPUID                                                              1002

 MEMORY| system memory details [Kb]
 MEMORY|                        rank 0           min           max       average
 MEMORY| MemTotal            263987256     263987256     263987256     263987256
 MEMORY| MemFree             258340548     258340296     258340548     258340499
 MEMORY| Buffers                    32            32            32            32
 MEMORY| Cached                1943584       1943564       1943584       1943579
 MEMORY| Slab                   771864        771864        771864        771864
 MEMORY| SReclaimable           279268        279268        279268        279268
 MEMORY| MemLikelyFree       260563432     260563160     260563432     260563378


 GENERATE|  Preliminary Number of Bonds generated:                             0
 GENERATE|  Achieved consistency in connectivity generation.

 *******************************************************************************
 *   ___                                                                       *
 *  /   \                                                                      *
 * [ABORT]                                                                     *
 *  \___/  The requested atomic potential <GTH-PBE-q4> for element <C> was not *
 *    |                 found in the potential file <../POTENTIAL>             *
 *  O/|                                                                        *
 * /| |                                                                        *
 * / \                                  subsys/external_potential_types.F:2325 *
 *******************************************************************************


 ===== Routine Calling Stack ===== 

            3 read_qs_kind
            2 create_qs_kind_set
            1 CP2K
 DBCSR| CPU Multiplication driver                                           XSMM
 DBCSR| Multrec recursion limit                                              512
 DBCSR| Multiplication stack size                                           1000
 DBCSR| Maximum elements for images                                    UNLIMITED
 DBCSR| Multiplicative factor virtual images                                   1
 DBCSR| Use multiplication densification                                       T
 DBCSR| Multiplication size stacks                                             3
 DBCSR| Use memory pool for CPU allocation                                     F
 DBCSR| Number of 3D layers                                               SINGLE
 DBCSR| Use MPI memory allocation                                              F
 DBCSR| Use RMA algorithm                                                      F
 DBCSR| Use Communication thread                                               T
 DBCSR| Communication thread load                                             87
 DBCSR| Split modifier for TAS multiplication algorithm                  1.0E+00


  **** **** ******  **  PROGRAM STARTED AT               2020-11-30 17:23:11.206
 ***** ** ***  *** **   PROGRAM STARTED ON                               tcopt10
 **    ****   ******    PROGRAM STARTED BY                                hutter
 ***** **    ** ** **   PROGRAM PROCESS ID                                 41459
  **** **  *******  **  PROGRAM STARTED IN /data/hutter/GITHUB/BASIS/MOLOPT/PBE0
                                           /alsipscl

 CP2K| version string:                    CP2K version 8.0 (Development Version)
 CP2K| source code revision number:                                  git:afc71fa
 CP2K| cp2kflags: omp libint fftw3 libxc elpa parallel mpi3 scalapack xsmm spgli
 CP2K|            b sirius
 CP2K| is freely available from                            https://www.cp2k.org/
 CP2K| Program compiled at                          Tue Nov 17 10:27:14 CET 2020
 CP2K| Program compiled on                                               tcopt10
 CP2K| Program compiled for                                                local
 CP2K| Data directory path                 /data/hutter/GITHUB/CURRENT/cp2k/data
 CP2K| Input file name                                               CS2-ref.inp

 GLOBAL| Force Environment number                                              1
 GLOBAL| Basis set file name                                  ../PBE0_UCSEGBASIS
 GLOBAL| Potential file name                                        ../POTENTIAL
 GLOBAL| MM Potential file name                                     MM_POTENTIAL
 GLOBAL| Coordinate file name                                      __STD_INPUT__
 GLOBAL| Method name                                                        CP2K
 GLOBAL| Project name                                                     refCS2
 GLOBAL| Preferred FFT library                                             FFTW3
 GLOBAL| Preferred diagonalization lib.                                     ELPA
 GLOBAL| Run type                                                         ENERGY
 GLOBAL| All-to-all communication in single precision                          F
 GLOBAL| FFTs using library dependent lengths                                  F
 GLOBAL| Global print level                                                  LOW
 GLOBAL| MPI I/O enabled                                                       T
 GLOBAL| Total number of message passing processes                            36
 GLOBAL| Number of threads for this process                                    1
 GLOBAL| This output is from process                                           0
 GLOBAL| CPU model name                          AMD EPYC 7401 24-Core Processor
 GLOBAL| CPUID                                                              1002

 MEMORY| system memory details [Kb]
 MEMORY|                        rank 0           min           max       average
 MEMORY| MemTotal            263987256     263987256     263987256     263987256
 MEMORY| MemFree             258475128     258475128     258475128     258475128
 MEMORY| Buffers                    32            32            32            32
 MEMORY| Cached                1957764       1957764       1957764       1957764
 MEMORY| Slab                   768748        768748        768748        768748
 MEMORY| SReclaimable           278012        278012        278012        278012
 MEMORY| MemLikelyFree       260710936     260710936     260710936     260710936


 GENERATE|  Preliminary Number of Bonds generated:                             0
 GENERATE|  Achieved consistency in connectivity generation.

 *******************************************************************************
 *******************************************************************************
 **                                                                           **
 **     #####                         ##              ##                      **
 **    ##   ##            ##          ##              ##                      **
 **   ##     ##                       ##            ######                    **
 **   ##     ##  ##   ##  ##   #####  ##  ##   ####   ##    #####    #####    **
 **   ##     ##  ##   ##  ##  ##      ## ##   ##      ##   ##   ##  ##   ##   **
 **   ##  ## ##  ##   ##  ##  ##      ####     ###    ##   ######   ######    **
 **    ##  ###   ##   ##  ##  ##      ## ##      ##   ##   ##       ##        **
 **     #######   #####   ##   #####  ##  ##  ####    ##    #####   ##        **
 **           ##                                                    ##        **
 **                                                                           **
 **                                                ... make the atoms dance   **
 **                                                                           **
 **            Copyright (C) by CP2K developers group (2000 - 2020)           **
 **                      J. Chem. Phys. 152, 194103 (2020)                    **
 **                                                                           **
 *******************************************************************************


 TOTAL NUMBERS AND MAXIMUM NUMBERS

  Total number of            - Atomic kinds:                                   2
                             - Atoms:                                          3
                             - Shell sets:                                    36
                             - Shells:                                        84
                             - Primitive Cartesian functions:                 36
                             - Cartesian basis functions:                    468
                             - Spherical basis functions:                    348

  Maximum angular momentum of- Orbital basis functions:                        4
                             - Local part of the GTH pseudopotential:          2
                             - Non-local part of the GTH pseudopotential:      2


 SCF PARAMETERS         Density guess:                                    ATOMIC
                        --------------------------------------------------------
                        max_scf:                                              10
                        max_scf_history:                                       0
                        max_diis:                                              4
                        --------------------------------------------------------
                        eps_scf:                                        1.00E-07
                        eps_scf_history:                                0.00E+00
                        eps_diis:                                       1.00E-01
                        eps_eigval:                                     1.00E-05
                        --------------------------------------------------------
                        level_shift [a.u.]:                                 0.00
                        --------------------------------------------------------
                        Outer loop SCF in use 
                        No variables optimised in outer loop
                        eps_scf                                         1.00E-07
                        max_scf                                               10
                        No outer loop optimization
                        step_size                                       5.00E-01

 Number of electrons:                                                         16
 Number of occupied orbitals:                                                  8
 Number of molecular orbitals:                                                 8

 Number of orbital functions:                                                348
 Number of independent orbital functions:                                    348

 Extrapolation method: initial_guess


 SCF WAVEFUNCTION OPTIMIZATION

  ----------------------------------- OT ---------------------------------------
  Minimizer      : DIIS                : direct inversion
                                         in the iterative subspace
                                         using   7 DIIS vectors
                                         safer DIIS on
  Preconditioner : FULL_ALL            : diagonalization, state selective
  Precond_solver : DEFAULT
  stepsize       :    0.15000000                  energy_gap     :    0.08000000
  eps_taylor     :   0.10000E-15                  max_taylor     :             4
  ----------------------------------- OT ---------------------------------------

  Step     Update method      Time    Convergence         Total energy    Change
  ------------------------------------------------------------------------------
     1 OT DIIS     0.15E+00   61.4     0.07650476       -24.9734256511 -2.50E+01
     2 OT DIIS     0.15E+00    1.3     0.13177190       -24.9440224977  2.94E-02
     3 OT DIIS     0.15E+00    1.2     0.04579215       -25.9021823094 -9.58E-01
     4 OT DIIS     0.15E+00    1.2     0.03198038       -26.0211894684 -1.19E-01
     5 OT DIIS     0.15E+00    1.2     0.01221490       -26.0911746732 -7.00E-02
     6 OT DIIS     0.15E+00    1.2     0.00741204       -26.1041832581 -1.30E-02
     7 OT DIIS     0.15E+00    1.2     0.00344706       -26.1104732206 -6.29E-03
     8 OT DIIS     0.15E+00    1.2     0.00302119       -26.1115951319 -1.12E-03
     9 OT DIIS     0.15E+00    1.2     0.00109255       -26.1123228705 -7.28E-04
    10 OT DIIS     0.15E+00    1.2     0.00046132       -26.1124794966 -1.57E-04

  Leaving inner SCF loop after reaching    10 steps.


  Electronic density on regular grids:        -16.0000000000       -0.0000000000
  Core density on regular grids:               16.0000000000        0.0000000000
  Total charge density on r-space grids:        0.0000000000
  Total charge density g-space grids:           0.0000000000

  Overlap energy of the core charge distribution:               0.00000076430125
  Self energy of the core charge distribution:                -61.14729016716463
  Core Hamiltonian energy:                                     14.57106262996766
  Hartree energy:                                              26.54683640248134
  Exchange-correlation energy:                                 -4.71208500723620
  Hartree-Fock Exchange energy:                                -1.37100411899304

  Total energy:                                               -26.11247949664362

  outer SCF iter =    1 RMS gradient =   0.46E-03 energy =        -26.1124794966

  ----------------------------------- OT ---------------------------------------
  Minimizer      : DIIS                : direct inversion
                                         in the iterative subspace
                                         using   7 DIIS vectors
                                         safer DIIS on
  Preconditioner : FULL_ALL            : diagonalization, state selective
  Precond_solver : DEFAULT
  stepsize       :    0.15000000                  energy_gap     :    0.08000000
  eps_taylor     :   0.10000E-15                  max_taylor     :             4
  ----------------------------------- OT ---------------------------------------

  Step     Update method      Time    Convergence         Total energy    Change
  ------------------------------------------------------------------------------
     1 OT DIIS     0.15E+00    2.6     0.00033247       -26.1124998196 -2.03E-05
     2 OT DIIS     0.15E+00    1.2     0.00029457       -26.1125114161 -1.16E-05
     3 OT DIIS     0.15E+00    1.2     0.00007570       -26.1125209243 -9.51E-06
     4 OT DIIS     0.15E+00    1.2     0.00002067       -26.1125229214 -2.00E-06
     5 OT DIIS     0.15E+00    1.2     0.00000874       -26.1125229876 -6.63E-08
     6 OT DIIS     0.15E+00    1.2     0.00000282       -26.1125230078 -2.02E-08
     7 OT DIIS     0.15E+00    1.2     0.00000058       -26.1125230113 -3.52E-09
     8 OT DIIS     0.15E+00    1.2     0.00000016       -26.1125230115 -1.37E-10
     9 OT DIIS     0.15E+00    1.2     0.00000004       -26.1125230115 -1.05E-11

  *** SCF run converged in     9 steps ***


  Electronic density on regular grids:        -16.0000000000       -0.0000000000
  Core density on regular grids:               16.0000000000        0.0000000000
  Total charge density on r-space grids:        0.0000000000
  Total charge density g-space grids:           0.0000000000

  Overlap energy of the core charge distribution:               0.00000076430125
  Self energy of the core charge distribution:                -61.14729016716463
  Core Hamiltonian energy:                                     14.56889576817118
  Hartree energy:                                              26.54855746207116
  Exchange-correlation energy:                                 -4.71173818269139
  Hartree-Fock Exchange energy:                                -1.37094865614897

  Total energy:                                               -26.11252301146141

  outer SCF iter =    2 RMS gradient =   0.44E-07 energy =        -26.1125230115
  outer SCF loop converged in   2 iterations or   19 steps


 ENERGY| Total FORCE_EVAL ( QS ) energy [a.u.]:              -26.112523011461406

 -------------------------------------------------------------------------------
 -                                                                             -
 -                                DBCSR STATISTICS                             -
 -                                                                             -
 -------------------------------------------------------------------------------
 COUNTER                                    TOTAL       BLAS       SMM       ACC
 flops     8 x     8 x     8               137216       0.0%    100.0%      0.0%
 flops     8 x     8 x   116              3474432       0.0%    100.0%      0.0%
 flops   116 x     8 x     8              4320768       0.0%    100.0%      0.0%
 flops   116 x   116 x     8             25835520       0.0%    100.0%      0.0%
 flops   116 x     8 x   116            182140416       0.0%    100.0%      0.0%
 flops inhomo. stacks                           0       0.0%      0.0%      0.0%
 flops total                       215.908352E+06       0.0%    100.0%      0.0%
 flops max/rank                     70.071296E+06       0.0%    100.0%      0.0%
 matmuls inhomo. stacks                         0       0.0%      0.0%      0.0%
 matmuls total                               1625       0.0%    100.0%      0.0%
 number of processed stacks                  1625       0.0%    100.0%      0.0%
 average stack size                                     0.0       1.0       0.0
 marketing flops                   228.915712E+06
 -------------------------------------------------------------------------------
 # multiplications                            425
 max memory usage/rank               1.307742E+09
 # max total images/rank                        1
 # max 3D layers                                1
 # MPI messages exchanged                  153000
 MPI messages size (bytes):
  total size                       499.381760E+06
  min size                           0.000000E+00
  max size                         107.648000E+03
  average size                       3.263933E+03
 MPI breakdown and total messages size (bytes):
             size <=      128              141140                        0
       128 < size <=     8192                7630                 44030720
      8192 < size <=    32768                   0                        0
     32768 < size <=   131072                4230                455351040
    131072 < size <=  4194304                   0                        0
   4194304 < size <= 16777216                   0                        0
  16777216 < size                               0                        0
 -------------------------------------------------------------------------------
 -                                                                             -
 -                      DBCSR MESSAGE PASSING PERFORMANCE                      -
 -                                                                             -
 -------------------------------------------------------------------------------
 ROUTINE             CALLS      AVE VOLUME [Bytes]
 MP_Bcast                6                     12.
 MP_Allreduce         2273                      8.
 MP_Alltoall          1688                   3875.
 MP_ISend            10192                   3700.
 MP_IRecv            10192                   2406.
 -------------------------------------------------------------------------------

 -------------------------------------------------------------------------------
 -                                                                             -
 -                                GRID STATISTICS                              -
 -                                                                             -
 -------------------------------------------------------------------------------
 LP    KERNEL    OPERATION                                     COUNT     PERCENT
 0     general   collocate                                       108       0.32%
 2     ortho     integrate                                      7182      21.52%
 2     ortho     collocate                                      7560      22.65%
 5     ortho     integrate                                      7220      21.63%
 5     ortho     collocate                                      7600      22.77%
 8     ortho     integrate                                      1805       5.41%
 8     ortho     collocate                                      1900       5.69%
 -------------------------------------------------------------------------------

 MEMORY| Estimated peak process memory [MiB]                                1248

 -------------------------------------------------------------------------------
 -                                                                             -
 -                         MESSAGE PASSING PERFORMANCE                         -
 -                                                                             -
 -------------------------------------------------------------------------------

 ROUTINE             CALLS      AVE VOLUME [Bytes]
 MP_Group                5
 MP_Bcast              268                 681297.
 MP_Allreduce          781                   1795.
 MP_Sync               116
 MP_Alltoall           381                6227172.
 MP_ISendRecv         5495                 112490.
 MP_Wait              7215
 MP_comm_split          14
 MP_ISend             1600                 291600.
 MP_IRecv             1600                 291600.
 MP_Recv                 3                   5568.
 -------------------------------------------------------------------------------


 -------------------------------------------------------------------------------
 -                                                                             -
 -                           R E F E R E N C E S                               -
 -                                                                             -
 -------------------------------------------------------------------------------
 
 CP2K version 8.0 (Development Version), the CP2K developers group (2020).
 CP2K is freely available from https://www.cp2k.org/ .

 Kuehne,Thomas D.; Iannuzzi,Marcella; Del Ben,Mauro;
 Rybkin,Vladimir V.; Seewald,Patrick; Stein,Frederick; Laino,Teodoro;
 Khaliullin,Rustam Z.; Schuett,Ole; Schiffmann,Florian; Golze,Dorothea;
 Wilhelm,Jan; Chulkov,Sergey; Bani-Hashemian,Mohammad Hossein;
 Weber,Valery; Borstnik,Urban; Taillefumier,Mathieu;
 Jakobovits,Alice Shoshana; Lazzaro,Alfio; Pabst,Hans; Mueller,Tiziano;
 Schade,Robert; Guidon,Manuel; Andermatt,Samuel; Holmberg,Nico;
 Schenter,Gregory K.; Hehn,Anna; Bussy,Augustin; Belleflamme,Fabian;
 Tabacchi,Gloria; Gloess,Andreas; Lass,Michael; Bethune,Iain;
 Mundy,Christopher J.; Plessl,Christian; Watkins,Matt;
 VandeVondele,Joost; Krack,Matthias; Hutter,Juerg. 
 The Journal of Chemical Physics, 152 (19), (2020). 
 CP2K: An electronic structure and molecular dynamics software package -
 Quickstep: Efficient and accurate electronic structure calculations.
 https://doi.org/10.1063/5.0007045

 Schuett, Ole; Messmer, Peter; Hutter, Juerg; VandeVondele, Joost. 
 Electronic Structure Calculations on Graphics Processing Units, John
 Wiley & Sons, Ltd, 173-190 (2016). 
 GPU-Accelerated Sparse Matrix-Matrix Multiplication for
 Linear Scaling Density Functional Theory.
 https://doi.org/10.1002/9781118670712.ch8

 Borstnik, U; VandeVondele, J; Weber, V; Hutter, J. 
 PARALLEL COMPUTING, 40 (5-6), 47-58 (2014). 
 Sparse matrix multiplication: The distributed block-compressed sparse
 row library.
 https://doi.org/10.1016/j.parco.2014.03.012

 Hutter, J; Iannuzzi, M; Schiffmann, F; VandeVondele, J. 
 WIREs Comput Mol Sci., 4 (1), 15-25 (2014). 
 CP2K: atomistic simulations of condensed matter systems.
 https://doi.org/10.1002/wcms.1159

 Marek, A; Blum, V; Johanni, R; Havu, V; Lang, B; Auckenthaler, T;
 Heinecke, A; Bungartz, H; Lederer, H. 
 Journal of Physics: Condensed Matter, 26 (21), (2014). 
 The ELPA library: scalable parallel eigenvalue solutions for
 electronic structure
 theory and computational science.
 https://doi.org/10.1088/0953-8984/26/21/213201

 Guidon, M; Hutter, J; VandeVondele, J. 
 JOURNAL OF CHEMICAL THEORY AND COMPUTATION, 5 (11), 3010-3021 (2009). 
 Robust Periodic Hartree-Fock Exchange for Large-Scale Simulations Using
 Gaussian Basis Sets.
 https://doi.org/10.1021/ct900494g

 Guidon, M; Schiffmann, F; Hutter, J; VandeVondele, J. 
 JOURNAL OF CHEMICAL PHYSICS, 128 (21), 214104 (2008). 
 Ab initio molecular dynamics using hybrid density functionals.
 https://doi.org/10.1063/1.2931945

 Krack, M. 
 THEORETICAL CHEMISTRY ACCOUNTS, 114 (1-3), 145-152 (2005). 
 Pseudopotentials for H to Kr optimized for gradient-corrected
 exchange-correlation functionals.
 https://doi.org/10.1007/s00214-005-0655-y

 VandeVondele, J; Krack, M; Mohamed, F; Parrinello, M; Chassaing, T;
 Hutter, J. COMPUTER PHYSICS COMMUNICATIONS, 167 (2), 103-128 (2005). 
 QUICKSTEP: Fast and accurate density functional calculations using a
 mixed Gaussian and plane waves approach.
 https://doi.org/10.1016/j.cpc.2004.12.014

 Frigo, M; Johnson, SG. 
 PROCEEDINGS OF THE IEEE, 93 (2), 216-231 (2005). 
 The design and implementation of FFTW3.
 https://doi.org/10.1109/JPROC.2004.840301

 VandeVondele, J; Hutter, J. 
 JOURNAL OF CHEMICAL PHYSICS, 118 (10), 4365-4369 (2003). 
 An efficient orbital transformation method for electronic structure
 calculations.
 https://doi.org/10.1063/1.1543154

 Martyna, GJ; Tuckerman, ME. 
 JOURNAL OF CHEMICAL PHYSICS, 110 (6), 2810-2821 (1999). 
 A reciprocal space based method for treating long range interactions in
 ab initio and force-field-based calculations in clusters.
 https://doi.org/10.1063/1.477923

 Hartwigsen, C; Goedecker, S; Hutter, J. 
 PHYSICAL REVIEW B, 58 (7), 3641-3662 (1998). 
 Relativistic separable dual-space Gaussian pseudopotentials from H to Rn.
 https://doi.org/10.1103/PhysRevB.58.3641

 Lippert, G; Hutter, J; Parrinello, M. 
 MOLECULAR PHYSICS, 92 (3), 477-487 (1997). 
 A hybrid Gaussian and plane wave density functional scheme.
 https://doi.org/10.1080/002689797170220

 Perdew, JP; Burke, K; Ernzerhof, M. 
 PHYSICAL REVIEW LETTERS, 77 (18), 3865-3868 (1996). 
 Generalized gradient approximation made simple.
 https://doi.org/10.1103/PhysRevLett.77.3865

 Goedecker, S; Teter, M; Hutter, J. 
 PHYSICAL REVIEW B, 54 (3), 1703-1710 (1996). 
 Separable dual-space Gaussian pseudopotentials.
 https://doi.org/10.1103/PhysRevB.54.1703


 -------------------------------------------------------------------------------
 -                                                                             -
 -                                T I M I N G                                  -
 -                                                                             -
 -------------------------------------------------------------------------------
 SUBROUTINE                       CALLS  ASD         SELF TIME        TOTAL TIME
                                MAXIMUM       AVERAGE  MAXIMUM  AVERAGE  MAXIMUM
 CP2K                                 1  1.0    0.047    0.084   84.271   84.272
 qs_energies                          1  2.0    0.000    0.000   83.964   83.965
 scf_env_do_scf                       1  3.0    0.000    0.000   83.752   83.752
 qs_ks_update_qs_env                 21  5.0    0.000    0.000   80.984   80.987
 rebuild_ks_matrix                   19  6.0    0.000    0.000   80.982   80.985
 qs_ks_build_kohn_sham_matrix        19  7.0    0.003    0.004   80.982   80.985
 hfx_ks_matrix                       19  8.0    0.001    0.001   74.206   74.217
 integrate_four_center               19  9.0    0.023    0.039   74.205   74.215
 init_scf_loop                        2  4.0    0.000    0.000   62.538   62.538
 calc_screening_functions             1 10.0   43.394   44.937   44.128   45.678
 mp_sync                            116 10.8   11.309   26.327   11.309   26.327
 integrate_four_center_main          19 10.0    0.003    0.004   15.015   26.260
 integrate_four_center_bin         2413 11.0   15.012   26.258   15.012   26.258
 scf_env_do_scf_inner_loop           19  4.0    0.001    0.002   21.213   21.213
 pw_transfer                        368  9.6    0.033    0.040    4.589    5.311
 fft_wrap_pw1pw2                    330 10.7    0.004    0.005    4.520    5.247
 fft_wrap_pw1pw2_300                212 11.8    0.231    0.279    4.261    4.966
 fft3d_ps                           330 12.7    1.638    1.741    3.620    4.436
 qs_vxc_create                       19  8.0    0.000    0.001    4.395    4.406
 xc_vxc_pw_create                    19  9.0    0.033    0.035    4.395    4.405
 xc_rho_set_and_dset_create          19 10.0    0.018    0.021    2.523    2.782
 mp_sum_l                          2133 10.7    1.619    2.692    1.619    2.692
 integrate_four_center_load          19 10.0    0.000    0.000    1.581    2.651
 hfx_load_balance                     1 11.0    0.000    0.000    1.580    2.651
 hfx_load_balance_range               1 12.0    0.000    0.004    1.557    2.627
 mp_alltoall_z22v                   330 14.7    1.593    2.495    1.593    2.495
 qs_rho_update_rho                   20  5.0    0.000    0.000    2.414    2.414
 calculate_rho_elec                  20  6.0    0.015    0.015    2.414    2.414
 rs_pw_transfer                     157  9.4    0.003    0.005    1.887    1.998
 calc_pair_dist_radii                 1 10.0    1.742    1.754    1.916    1.943
 yz_to_x                            158 13.1    0.159    0.195    1.065    1.855
 density_rs2pw                       20  7.0    0.001    0.001    1.723    1.841
 sum_up_and_integrate                19  8.0    0.007    0.012    1.694    1.702
 integrate_v_rspace_low              19  9.0    0.090    0.191    1.687    1.697
 -------------------------------------------------------------------------------

 The number of warnings for this run is : 0
 
 -------------------------------------------------------------------------------
  **** **** ******  **  PROGRAM ENDED AT                 2020-11-30 17:24:36.205
 ***** ** ***  *** **   PROGRAM RAN ON                                   tcopt10
 **    ****   ******    PROGRAM RAN BY                                    hutter
 ***** **    ** ** **   PROGRAM PROCESS ID                                 41459
  **** **  *******  **  PROGRAM STOPPED IN /data/hutter/GITHUB/BASIS/MOLOPT/PBE0
                                           /alsipscl
