 DBCSR| CPU Multiplication driver                                           XSMM
 DBCSR| Multrec recursion limit                                              512
 DBCSR| Multiplication stack size                                           1000
 DBCSR| Maximum elements for images                                    UNLIMITED
 DBCSR| Multiplicative factor virtual images                                   1
 DBCSR| Use multiplication densification                                       T
 DBCSR| Multiplication size stacks                                             3
 DBCSR| Use memory pool for CPU allocation                                     F
 DBCSR| Number of 3D layers                                               SINGLE
 DBCSR| Use MPI memory allocation                                              F
 DBCSR| Use RMA algorithm                                                      F
 DBCSR| Use Communication thread                                               T
 DBCSR| Communication thread load                                             87
 DBCSR| Split modifier for TAS multiplication algorithm                  1.0E+00


  **** **** ******  **  PROGRAM STARTED AT               2020-11-30 16:51:02.617
 ***** ** ***  *** **   PROGRAM STARTED ON                               tcopt10
 **    ****   ******    PROGRAM STARTED BY                                hutter
 ***** **    ** ** **   PROGRAM PROCESS ID                                 34653
  **** **  *******  **  PROGRAM STARTED IN /data/hutter/GITHUB/BASIS/MOLOPT/PBE0
                                           /alsipscl

 CP2K| version string:                    CP2K version 8.0 (Development Version)
 CP2K| source code revision number:                                  git:afc71fa
 CP2K| cp2kflags: omp libint fftw3 libxc elpa parallel mpi3 scalapack xsmm spgli
 CP2K|            b sirius
 CP2K| is freely available from                            https://www.cp2k.org/
 CP2K| Program compiled at                          Tue Nov 17 10:27:14 CET 2020
 CP2K| Program compiled on                                               tcopt10
 CP2K| Program compiled for                                                local
 CP2K| Data directory path                 /data/hutter/GITHUB/CURRENT/cp2k/data
 CP2K| Input file name                                             H2SO4-ref.inp

 GLOBAL| Force Environment number                                              1
 GLOBAL| Basis set file name                                  ../PBE0_UCSEGBASIS
 GLOBAL| Potential file name                                        ../POTENTIAL
 GLOBAL| MM Potential file name                                     MM_POTENTIAL
 GLOBAL| Coordinate file name                                      __STD_INPUT__
 GLOBAL| Method name                                                        CP2K
 GLOBAL| Project name                                                   refH2SO4
 GLOBAL| Preferred FFT library                                             FFTW3
 GLOBAL| Preferred diagonalization lib.                                     ELPA
 GLOBAL| Run type                                                         ENERGY
 GLOBAL| All-to-all communication in single precision                          F
 GLOBAL| FFTs using library dependent lengths                                  F
 GLOBAL| Global print level                                                  LOW
 GLOBAL| MPI I/O enabled                                                       T
 GLOBAL| Total number of message passing processes                            36
 GLOBAL| Number of threads for this process                                    1
 GLOBAL| This output is from process                                           0
 GLOBAL| CPU model name                          AMD EPYC 7401 24-Core Processor
 GLOBAL| CPUID                                                              1002

 MEMORY| system memory details [Kb]
 MEMORY|                        rank 0           min           max       average
 MEMORY| MemTotal            263987256     263987256     263987256     263987256
 MEMORY| MemFree             258335264     258335264     258335264     258335264
 MEMORY| Buffers                    32            32            32            32
 MEMORY| Cached                1943888       1943888       1943888       1943888
 MEMORY| Slab                   770480        770480        770480        770480
 MEMORY| SReclaimable           278660        278660        278660        278660
 MEMORY| MemLikelyFree       260557844     260557844     260557844     260557844


 GENERATE|  Preliminary Number of Bonds generated:                             0
 GENERATE|  Achieved consistency in connectivity generation.

 *******************************************************************************
 *   ___                                                                       *
 *  /   \                                                                      *
 * [ABORT]                                                                     *
 *  \___/  The requested atomic potential <GTH-PBE-q6> for element <S> was not *
 *    |                 found in the potential file <../POTENTIAL>             *
 *  O/|                                                                        *
 * /| |                                                                        *
 * / \                                  subsys/external_potential_types.F:2325 *
 *******************************************************************************


 ===== Routine Calling Stack ===== 

            3 read_qs_kind
            2 create_qs_kind_set
            1 CP2K
 DBCSR| CPU Multiplication driver                                           XSMM
 DBCSR| Multrec recursion limit                                              512
 DBCSR| Multiplication stack size                                           1000
 DBCSR| Maximum elements for images                                    UNLIMITED
 DBCSR| Multiplicative factor virtual images                                   1
 DBCSR| Use multiplication densification                                       T
 DBCSR| Multiplication size stacks                                             3
 DBCSR| Use memory pool for CPU allocation                                     F
 DBCSR| Number of 3D layers                                               SINGLE
 DBCSR| Use MPI memory allocation                                              F
 DBCSR| Use RMA algorithm                                                      F
 DBCSR| Use Communication thread                                               T
 DBCSR| Communication thread load                                             87
 DBCSR| Split modifier for TAS multiplication algorithm                  1.0E+00


  **** **** ******  **  PROGRAM STARTED AT               2020-11-30 17:24:36.442
 ***** ** ***  *** **   PROGRAM STARTED ON                               tcopt10
 **    ****   ******    PROGRAM STARTED BY                                hutter
 ***** **    ** ** **   PROGRAM PROCESS ID                                 41729
  **** **  *******  **  PROGRAM STARTED IN /data/hutter/GITHUB/BASIS/MOLOPT/PBE0
                                           /alsipscl

 CP2K| version string:                    CP2K version 8.0 (Development Version)
 CP2K| source code revision number:                                  git:afc71fa
 CP2K| cp2kflags: omp libint fftw3 libxc elpa parallel mpi3 scalapack xsmm spgli
 CP2K|            b sirius
 CP2K| is freely available from                            https://www.cp2k.org/
 CP2K| Program compiled at                          Tue Nov 17 10:27:14 CET 2020
 CP2K| Program compiled on                                               tcopt10
 CP2K| Program compiled for                                                local
 CP2K| Data directory path                 /data/hutter/GITHUB/CURRENT/cp2k/data
 CP2K| Input file name                                             H2SO4-ref.inp

 GLOBAL| Force Environment number                                              1
 GLOBAL| Basis set file name                                  ../PBE0_UCSEGBASIS
 GLOBAL| Potential file name                                        ../POTENTIAL
 GLOBAL| MM Potential file name                                     MM_POTENTIAL
 GLOBAL| Coordinate file name                                      __STD_INPUT__
 GLOBAL| Method name                                                        CP2K
 GLOBAL| Project name                                                   refH2SO4
 GLOBAL| Preferred FFT library                                             FFTW3
 GLOBAL| Preferred diagonalization lib.                                     ELPA
 GLOBAL| Run type                                                         ENERGY
 GLOBAL| All-to-all communication in single precision                          F
 GLOBAL| FFTs using library dependent lengths                                  F
 GLOBAL| Global print level                                                  LOW
 GLOBAL| MPI I/O enabled                                                       T
 GLOBAL| Total number of message passing processes                            36
 GLOBAL| Number of threads for this process                                    1
 GLOBAL| This output is from process                                           0
 GLOBAL| CPU model name                          AMD EPYC 7401 24-Core Processor
 GLOBAL| CPUID                                                              1002

 MEMORY| system memory details [Kb]
 MEMORY|                        rank 0           min           max       average
 MEMORY| MemTotal            263987256     263987256     263987256     263987256
 MEMORY| MemFree             258464384     258464384     258464384     258464384
 MEMORY| Buffers                    32            32            32            32
 MEMORY| Cached                1959352       1959352       1959352       1959352
 MEMORY| Slab                   770232        770232        770232        770232
 MEMORY| SReclaimable           278396        278396        278396        278396
 MEMORY| MemLikelyFree       260702164     260702164     260702164     260702164


 GENERATE|  Preliminary Number of Bonds generated:                             0
 GENERATE|  Achieved consistency in connectivity generation.

 *******************************************************************************
 *******************************************************************************
 **                                                                           **
 **     #####                         ##              ##                      **
 **    ##   ##            ##          ##              ##                      **
 **   ##     ##                       ##            ######                    **
 **   ##     ##  ##   ##  ##   #####  ##  ##   ####   ##    #####    #####    **
 **   ##     ##  ##   ##  ##  ##      ## ##   ##      ##   ##   ##  ##   ##   **
 **   ##  ## ##  ##   ##  ##  ##      ####     ###    ##   ######   ######    **
 **    ##  ###   ##   ##  ##  ##      ## ##      ##   ##   ##       ##        **
 **     #######   #####   ##   #####  ##  ##  ####    ##    #####   ##        **
 **           ##                                                    ##        **
 **                                                                           **
 **                                                ... make the atoms dance   **
 **                                                                           **
 **            Copyright (C) by CP2K developers group (2000 - 2020)           **
 **                      J. Chem. Phys. 152, 194103 (2020)                    **
 **                                                                           **
 *******************************************************************************


 TOTAL NUMBERS AND MAXIMUM NUMBERS

  Total number of            - Atomic kinds:                                   3
                             - Atoms:                                          7
                             - Shell sets:                                    84
                             - Shells:                                       148
                             - Primitive Cartesian functions:                 84
                             - Cartesian basis functions:                    548
                             - Spherical basis functions:                    460

  Maximum angular momentum of- Orbital basis functions:                        4
                             - Local part of the GTH pseudopotential:          2
                             - Non-local part of the GTH pseudopotential:      2


 SCF PARAMETERS         Density guess:                                    ATOMIC
                        --------------------------------------------------------
                        max_scf:                                              10
                        max_scf_history:                                       0
                        max_diis:                                              4
                        --------------------------------------------------------
                        eps_scf:                                        1.00E-07
                        eps_scf_history:                                0.00E+00
                        eps_diis:                                       1.00E-01
                        eps_eigval:                                     1.00E-05
                        --------------------------------------------------------
                        level_shift [a.u.]:                                 0.00
                        --------------------------------------------------------
                        Outer loop SCF in use 
                        No variables optimised in outer loop
                        eps_scf                                         1.00E-07
                        max_scf                                               10
                        No outer loop optimization
                        step_size                                       5.00E-01

 Number of electrons:                                                         32
 Number of occupied orbitals:                                                 16
 Number of molecular orbitals:                                                16

 Number of orbital functions:                                                460
 Number of independent orbital functions:                                    460

 Extrapolation method: initial_guess


 SCF WAVEFUNCTION OPTIMIZATION

  ----------------------------------- OT ---------------------------------------
  Minimizer      : DIIS                : direct inversion
                                         in the iterative subspace
                                         using   7 DIIS vectors
                                         safer DIIS on
  Preconditioner : FULL_ALL            : diagonalization, state selective
  Precond_solver : DEFAULT
  stepsize       :    0.15000000                  energy_gap     :    0.08000000
  eps_taylor     :   0.10000E-15                  max_taylor     :             4
  ----------------------------------- OT ---------------------------------------

  Step     Update method      Time    Convergence         Total energy    Change
  ------------------------------------------------------------------------------
     1 OT DIIS     0.15E+00   41.9     0.08143550       -72.2278533760 -7.22E+01
     2 OT DIIS     0.15E+00    1.9     0.12691829       -72.7450881206 -5.17E-01
     3 OT DIIS     0.15E+00    1.8     0.05461102       -74.6249032318 -1.88E+00
     4 OT DIIS     0.15E+00    1.8     0.01941353       -75.3496447680 -7.25E-01
     5 OT DIIS     0.15E+00    1.8     0.01141808       -75.4507947466 -1.01E-01
     6 OT DIIS     0.15E+00    1.8     0.00913137       -75.4716326669 -2.08E-02
     7 OT DIIS     0.15E+00    1.8     0.00416745       -75.4861442116 -1.45E-02
     8 OT DIIS     0.15E+00    1.8     0.00189546       -75.4896677415 -3.52E-03
     9 OT DIIS     0.15E+00    1.8     0.00095529       -75.4905131868 -8.45E-04
    10 OT DIIS     0.15E+00    1.8     0.00052221       -75.4907335338 -2.20E-04

  Leaving inner SCF loop after reaching    10 steps.


  Electronic density on regular grids:        -31.9999999996        0.0000000004
  Core density on regular grids:               32.0000000000       -0.0000000000
  Total charge density on r-space grids:        0.0000000004
  Total charge density g-space grids:           0.0000000004

  Overlap energy of the core charge distribution:               0.00000046365554
  Self energy of the core charge distribution:               -191.40643020234157
  Core Hamiltonian energy:                                     53.55893300692991
  Hartree energy:                                              79.39403046888768
  Exchange-correlation energy:                                -13.11846860067486
  Hartree-Fock Exchange energy:                                -3.91879867021931

  Total energy:                                               -75.49073353376261

  outer SCF iter =    1 RMS gradient =   0.52E-03 energy =        -75.4907335338

  ----------------------------------- OT ---------------------------------------
  Minimizer      : DIIS                : direct inversion
                                         in the iterative subspace
                                         using   7 DIIS vectors
                                         safer DIIS on
  Preconditioner : FULL_ALL            : diagonalization, state selective
  Precond_solver : DEFAULT
  stepsize       :    0.15000000                  energy_gap     :    0.08000000
  eps_taylor     :   0.10000E-15                  max_taylor     :             4
  ----------------------------------- OT ---------------------------------------

  Step     Update method      Time    Convergence         Total energy    Change
  ------------------------------------------------------------------------------
     1 OT DIIS     0.15E+00    3.6     0.00024228       -75.4907968977 -6.34E-05
     2 OT DIIS     0.15E+00    1.7     0.00016939       -75.4908210123 -2.41E-05
     3 OT DIIS     0.15E+00    1.7     0.00005581       -75.4908306910 -9.68E-06
     4 OT DIIS     0.15E+00    1.8     0.00001277       -75.4908331859 -2.49E-06
     5 OT DIIS     0.15E+00    1.7     0.00000296       -75.4908332532 -6.73E-08
     6 OT DIIS     0.15E+00    1.7     0.00000134       -75.4908332592 -6.07E-09
     7 OT DIIS     0.15E+00    1.7     0.00000055       -75.4908332604 -1.19E-09
     8 OT DIIS     0.15E+00    1.7     0.00000010       -75.4908332606 -1.80E-10
     9 OT DIIS     0.15E+00    1.8     0.00000004       -75.4908332606 -8.61E-12

  *** SCF run converged in     9 steps ***


  Electronic density on regular grids:        -31.9999999996        0.0000000004
  Core density on regular grids:               32.0000000000       -0.0000000000
  Total charge density on r-space grids:        0.0000000004
  Total charge density g-space grids:           0.0000000004

  Overlap energy of the core charge distribution:               0.00000046365554
  Self energy of the core charge distribution:               -191.40643020234157
  Core Hamiltonian energy:                                     53.55935886080616
  Hartree energy:                                              79.39319060914610
  Exchange-correlation energy:                                -13.11818373869153
  Hartree-Fock Exchange energy:                                -3.91876925318830

  Total energy:                                               -75.49083326061360

  outer SCF iter =    2 RMS gradient =   0.40E-07 energy =        -75.4908332606
  outer SCF loop converged in   2 iterations or   19 steps


 ENERGY| Total FORCE_EVAL ( QS ) energy [a.u.]:              -75.490833260613599

 -------------------------------------------------------------------------------
 -                                                                             -
 -                                DBCSR STATISTICS                             -
 -                                                                             -
 -------------------------------------------------------------------------------
 COUNTER                                    TOTAL       BLAS       SMM       ACC
 flops    16 x    16 x    16              1097728       0.0%    100.0%      0.0%
 flops    16 x    16 x    52              4153344       0.0%    100.0%      0.0%
 flops    16 x    16 x   104              4153344       0.0%    100.0%      0.0%
 flops    68 x   116 x    16              5048320       0.0%    100.0%      0.0%
 flops   116 x    68 x    16              5048320       0.0%    100.0%      0.0%
 flops   104 x    16 x    16              5165056       0.0%    100.0%      0.0%
 flops    52 x    16 x    16              5165056       0.0%    100.0%      0.0%
 flops    16 x    16 x    68              5431296       0.0%    100.0%      0.0%
 flops   116 x    16 x    16              5761024       0.0%    100.0%      0.0%
 flops    68 x    16 x    16              6754304       0.0%    100.0%      0.0%
 flops    52 x   116 x    16              7720960       0.0%    100.0%      0.0%
 flops   116 x    52 x    16              7720960       0.0%    100.0%      0.0%
 flops   116 x   116 x    16              8611840       0.0%    100.0%      0.0%
 flops    68 x    68 x    16              8878080       0.0%    100.0%      0.0%
 flops    52 x    68 x    16              9052160       0.0%    100.0%      0.0%
 flops    68 x    52 x    16              9052160       0.0%    100.0%      0.0%
 flops   104 x    16 x   104             14536704       0.0%    100.0%      0.0%
 flops   104 x    16 x    52             14536704       0.0%    100.0%      0.0%
 flops    52 x    16 x   104             14536704       0.0%    100.0%      0.0%
 flops   116 x    16 x   104             16214016       0.0%    100.0%      0.0%
 flops    52 x    52 x    16             17305600       0.0%    100.0%      0.0%
 flops   104 x    16 x    68             19009536       0.0%    100.0%      0.0%
 flops    68 x    16 x   104             19009536       0.0%    100.0%      0.0%
 flops   116 x    16 x   116             22390784       0.0%    100.0%      0.0%
 flops    68 x    16 x   116             26251264       0.0%    100.0%      0.0%
 flops    52 x    16 x   116             40148992       0.0%    100.0%      0.0%
 flops   116 x    16 x    68             47454208       0.0%    100.0%      0.0%
 flops    68 x    16 x    68             55635968       0.0%    100.0%      0.0%
 flops   116 x    16 x    52             56363008       0.0%    100.0%      0.0%
 flops    52 x    16 x    68             66080768       0.0%    100.0%      0.0%
 flops    68 x    16 x    52             66080768       0.0%    100.0%      0.0%
 flops    52 x    16 x    52             86528000       0.0%    100.0%      0.0%
 flops inhomo. stacks                    76348416     100.0%      0.0%      0.0%
 flops total                       757.244928E+06      10.1%     89.9%      0.0%
 flops max/rank                    194.348032E+06      11.7%     88.3%      0.0%
 matmuls inhomo. stacks                       330     100.0%      0.0%      0.0%
 matmuls total                               5804       5.7%     94.3%      0.0%
 number of processed stacks                  5088       6.5%     93.5%      0.0%
 average stack size                                     1.0       1.2       0.0
 marketing flops                   814.700800E+06
 -------------------------------------------------------------------------------
 # multiplications                            425
 max memory usage/rank               1.659523E+09
 # max total images/rank                        1
 # max 3D layers                                1
 # MPI messages exchanged                  153000
 MPI messages size (bytes):
  total size                       913.286400E+06
  min size                           0.000000E+00
  max size                         107.648000E+03
  average size                       5.969192E+03
 MPI breakdown and total messages size (bytes):
             size <=      128              122645                        0
       128 < size <=     8192                5695                 29496320
      8192 < size <=    32768               13380                235205120
     32768 < size <=   131072               11280                648584960
    131072 < size <=  4194304                   0                        0
   4194304 < size <= 16777216                   0                        0
  16777216 < size                               0                        0
 -------------------------------------------------------------------------------
 -                                                                             -
 -                      DBCSR MESSAGE PASSING PERFORMANCE                      -
 -                                                                             -
 -------------------------------------------------------------------------------
 ROUTINE             CALLS      AVE VOLUME [Bytes]
 MP_Bcast               33                     12.
 MP_Allreduce         2327                      9.
 MP_Alltoall          1688                   4701.
 MP_ISend            10192                   4495.
 MP_IRecv            10192                   4081.
 -------------------------------------------------------------------------------

 -------------------------------------------------------------------------------
 -                                                                             -
 -                                GRID STATISTICS                              -
 -                                                                             -
 -------------------------------------------------------------------------------
 LP    KERNEL    OPERATION                                     COUNT     PERCENT
 0     general   collocate                                       252       0.17%
 0     ortho     integrate                                      3287       2.21%
 0     ortho     collocate                                      3460       2.33%
 1     ortho     integrate                                     10526       7.09%
 1     ortho     collocate                                     11080       7.47%
 2     ortho     integrate                                     21280      14.34%
 2     ortho     collocate                                     22400      15.09%
 3     ortho     integrate                                     17708      11.93%
 3     ortho     collocate                                     18640      12.56%
 4     ortho     integrate                                     10260       6.91%
 4     ortho     collocate                                     10800       7.28%
 5     ortho     integrate                                      6080       4.10%
 5     ortho     collocate                                      6400       4.31%
 6     ortho     integrate                                      2128       1.43%
 6     ortho     collocate                                      2240       1.51%
 7     ortho     integrate                                       608       0.41%
 7     ortho     collocate                                       640       0.43%
 8     ortho     integrate                                       304       0.20%
 8     ortho     collocate                                       320       0.22%
 -------------------------------------------------------------------------------

 MEMORY| Estimated peak process memory [MiB]                                1583

 -------------------------------------------------------------------------------
 -                                                                             -
 -                         MESSAGE PASSING PERFORMANCE                         -
 -                                                                             -
 -------------------------------------------------------------------------------

 ROUTINE             CALLS      AVE VOLUME [Bytes]
 MP_Group                5
 MP_Bcast              434                 630885.
 MP_Allreduce         1154                   1257.
 MP_Sync               102
 MP_Alltoall           381                6205136.
 MP_ISendRecv         5495                 112490.
 MP_Wait              7215
 MP_ISend             1600                 291600.
 MP_IRecv             1600                 291600.
 MP_Recv                 5                  11040.
 -------------------------------------------------------------------------------


 -------------------------------------------------------------------------------
 -                                                                             -
 -                           R E F E R E N C E S                               -
 -                                                                             -
 -------------------------------------------------------------------------------
 
 CP2K version 8.0 (Development Version), the CP2K developers group (2020).
 CP2K is freely available from https://www.cp2k.org/ .

 Kuehne,Thomas D.; Iannuzzi,Marcella; Del Ben,Mauro;
 Rybkin,Vladimir V.; Seewald,Patrick; Stein,Frederick; Laino,Teodoro;
 Khaliullin,Rustam Z.; Schuett,Ole; Schiffmann,Florian; Golze,Dorothea;
 Wilhelm,Jan; Chulkov,Sergey; Bani-Hashemian,Mohammad Hossein;
 Weber,Valery; Borstnik,Urban; Taillefumier,Mathieu;
 Jakobovits,Alice Shoshana; Lazzaro,Alfio; Pabst,Hans; Mueller,Tiziano;
 Schade,Robert; Guidon,Manuel; Andermatt,Samuel; Holmberg,Nico;
 Schenter,Gregory K.; Hehn,Anna; Bussy,Augustin; Belleflamme,Fabian;
 Tabacchi,Gloria; Gloess,Andreas; Lass,Michael; Bethune,Iain;
 Mundy,Christopher J.; Plessl,Christian; Watkins,Matt;
 VandeVondele,Joost; Krack,Matthias; Hutter,Juerg. 
 The Journal of Chemical Physics, 152 (19), (2020). 
 CP2K: An electronic structure and molecular dynamics software package -
 Quickstep: Efficient and accurate electronic structure calculations.
 https://doi.org/10.1063/5.0007045

 Schuett, Ole; Messmer, Peter; Hutter, Juerg; VandeVondele, Joost. 
 Electronic Structure Calculations on Graphics Processing Units, John
 Wiley & Sons, Ltd, 173-190 (2016). 
 GPU-Accelerated Sparse Matrix-Matrix Multiplication for
 Linear Scaling Density Functional Theory.
 https://doi.org/10.1002/9781118670712.ch8

 Borstnik, U; VandeVondele, J; Weber, V; Hutter, J. 
 PARALLEL COMPUTING, 40 (5-6), 47-58 (2014). 
 Sparse matrix multiplication: The distributed block-compressed sparse
 row library.
 https://doi.org/10.1016/j.parco.2014.03.012

 Hutter, J; Iannuzzi, M; Schiffmann, F; VandeVondele, J. 
 WIREs Comput Mol Sci., 4 (1), 15-25 (2014). 
 CP2K: atomistic simulations of condensed matter systems.
 https://doi.org/10.1002/wcms.1159

 Marek, A; Blum, V; Johanni, R; Havu, V; Lang, B; Auckenthaler, T;
 Heinecke, A; Bungartz, H; Lederer, H. 
 Journal of Physics: Condensed Matter, 26 (21), (2014). 
 The ELPA library: scalable parallel eigenvalue solutions for
 electronic structure
 theory and computational science.
 https://doi.org/10.1088/0953-8984/26/21/213201

 Guidon, M; Hutter, J; VandeVondele, J. 
 JOURNAL OF CHEMICAL THEORY AND COMPUTATION, 5 (11), 3010-3021 (2009). 
 Robust Periodic Hartree-Fock Exchange for Large-Scale Simulations Using
 Gaussian Basis Sets.
 https://doi.org/10.1021/ct900494g

 Guidon, M; Schiffmann, F; Hutter, J; VandeVondele, J. 
 JOURNAL OF CHEMICAL PHYSICS, 128 (21), 214104 (2008). 
 Ab initio molecular dynamics using hybrid density functionals.
 https://doi.org/10.1063/1.2931945

 Krack, M. 
 THEORETICAL CHEMISTRY ACCOUNTS, 114 (1-3), 145-152 (2005). 
 Pseudopotentials for H to Kr optimized for gradient-corrected
 exchange-correlation functionals.
 https://doi.org/10.1007/s00214-005-0655-y

 VandeVondele, J; Krack, M; Mohamed, F; Parrinello, M; Chassaing, T;
 Hutter, J. COMPUTER PHYSICS COMMUNICATIONS, 167 (2), 103-128 (2005). 
 QUICKSTEP: Fast and accurate density functional calculations using a
 mixed Gaussian and plane waves approach.
 https://doi.org/10.1016/j.cpc.2004.12.014

 Frigo, M; Johnson, SG. 
 PROCEEDINGS OF THE IEEE, 93 (2), 216-231 (2005). 
 The design and implementation of FFTW3.
 https://doi.org/10.1109/JPROC.2004.840301

 VandeVondele, J; Hutter, J. 
 JOURNAL OF CHEMICAL PHYSICS, 118 (10), 4365-4369 (2003). 
 An efficient orbital transformation method for electronic structure
 calculations.
 https://doi.org/10.1063/1.1543154

 Martyna, GJ; Tuckerman, ME. 
 JOURNAL OF CHEMICAL PHYSICS, 110 (6), 2810-2821 (1999). 
 A reciprocal space based method for treating long range interactions in
 ab initio and force-field-based calculations in clusters.
 https://doi.org/10.1063/1.477923

 Hartwigsen, C; Goedecker, S; Hutter, J. 
 PHYSICAL REVIEW B, 58 (7), 3641-3662 (1998). 
 Relativistic separable dual-space Gaussian pseudopotentials from H to Rn.
 https://doi.org/10.1103/PhysRevB.58.3641

 Lippert, G; Hutter, J; Parrinello, M. 
 MOLECULAR PHYSICS, 92 (3), 477-487 (1997). 
 A hybrid Gaussian and plane wave density functional scheme.
 https://doi.org/10.1080/002689797170220

 Perdew, JP; Burke, K; Ernzerhof, M. 
 PHYSICAL REVIEW LETTERS, 77 (18), 3865-3868 (1996). 
 Generalized gradient approximation made simple.
 https://doi.org/10.1103/PhysRevLett.77.3865

 Goedecker, S; Teter, M; Hutter, J. 
 PHYSICAL REVIEW B, 54 (3), 1703-1710 (1996). 
 Separable dual-space Gaussian pseudopotentials.
 https://doi.org/10.1103/PhysRevB.54.1703


 -------------------------------------------------------------------------------
 -                                                                             -
 -                                T I M I N G                                  -
 -                                                                             -
 -------------------------------------------------------------------------------
 SUBROUTINE                       CALLS  ASD         SELF TIME        TOTAL TIME
                                MAXIMUM       AVERAGE  MAXIMUM  AVERAGE  MAXIMUM
 CP2K                                 1  1.0    0.116    0.138   74.517   74.519
 qs_energies                          1  2.0    0.000    0.000   74.148   74.148
 scf_env_do_scf                       1  3.0    0.000    0.000   73.910   73.910
 qs_ks_update_qs_env                 21  5.0    0.000    0.000   70.804   70.808
 rebuild_ks_matrix                   19  6.0    0.000    0.000   70.802   70.806
 qs_ks_build_kohn_sham_matrix        19  7.0    0.003    0.004   70.802   70.806
 hfx_ks_matrix                       19  8.0    0.001    0.001   63.498   63.499
 integrate_four_center               19  9.0    0.020    0.023   63.496   63.496
 init_scf_loop                        2  4.0    0.000    0.000   43.595   43.595
 integrate_four_center_main          19 10.0    0.004    0.004   30.107   36.307
 integrate_four_center_bin         2223 11.0   30.103   36.303   30.103   36.303
 scf_env_do_scf_inner_loop           19  4.0    0.001    0.002   30.314   30.314
 calc_screening_functions             1 10.0   21.267   21.826   22.751   23.311
 mp_sync                            102 10.7    7.115   11.581    7.115   11.581
 pw_transfer                        368  9.6    0.033    0.040    4.642    5.358
 fft_wrap_pw1pw2                    330 10.7    0.004    0.005    4.573    5.294
 fft_wrap_pw1pw2_300                212 11.8    0.233    0.284    4.300    5.002
 fft3d_ps                           330 12.7    1.643    1.759    3.673    4.480
 qs_vxc_create                       19  8.0    0.000    0.001    4.403    4.414
 xc_vxc_pw_create                    19  9.0    0.034    0.037    4.402    4.414
 xc_rho_set_and_dset_create          19 10.0    0.018    0.021    2.487    2.787
 qs_rho_update_rho                   20  5.0    0.000    0.000    2.682    2.682
 calculate_rho_elec                  20  6.0    0.015    0.015    2.682    2.682
 calc_pair_dist_radii                 1 10.0    2.204    2.214    2.617    2.627
 mp_alltoall_z22v                   330 14.7    1.638    2.582    1.638    2.582
 sum_up_and_integrate                19  8.0    0.007    0.009    2.202    2.204
 integrate_v_rspace_low              19  9.0    0.201    0.714    2.194    2.196
 rs_pw_transfer                     157  9.4    0.003    0.004    2.070    2.191
 density_rs2pw                       20  7.0    0.001    0.001    1.905    2.018
 powell_optimize                 707081 11.0    1.898    1.934    1.898    1.934
 yz_to_x                            158 13.1    0.161    0.197    1.124    1.928
 xc_functional_eval                  19 11.0    0.000    0.000    1.211    1.512
 pbe_lda_eval                        19 12.0    1.211    1.512    1.211    1.512
 -------------------------------------------------------------------------------

 The number of warnings for this run is : 0
 
 -------------------------------------------------------------------------------
  **** **** ******  **  PROGRAM ENDED AT                 2020-11-30 17:25:51.697
 ***** ** ***  *** **   PROGRAM RAN ON                                   tcopt10
 **    ****   ******    PROGRAM RAN BY                                    hutter
 ***** **    ** ** **   PROGRAM PROCESS ID                                 41729
  **** **  *******  **  PROGRAM STOPPED IN /data/hutter/GITHUB/BASIS/MOLOPT/PBE0
                                           /alsipscl
