 DBCSR| CPU Multiplication driver                                           XSMM
 DBCSR| Multrec recursion limit                                              512
 DBCSR| Multiplication stack size                                           1000
 DBCSR| Maximum elements for images                                    UNLIMITED
 DBCSR| Multiplicative factor virtual images                                   1
 DBCSR| Use multiplication densification                                       T
 DBCSR| Multiplication size stacks                                             3
 DBCSR| Use memory pool for CPU allocation                                     F
 DBCSR| Number of 3D layers                                               SINGLE
 DBCSR| Use MPI memory allocation                                              F
 DBCSR| Use RMA algorithm                                                      F
 DBCSR| Use Communication thread                                               T
 DBCSR| Communication thread load                                             87
 DBCSR| Split modifier for TAS multiplication algorithm                  1.0E+00


  **** **** ******  **  PROGRAM STARTED AT               2020-11-30 16:51:04.247
 ***** ** ***  *** **   PROGRAM STARTED ON                               tcopt10
 **    ****   ******    PROGRAM STARTED BY                                hutter
 ***** **    ** ** **   PROGRAM PROCESS ID                                 34955
  **** **  *******  **  PROGRAM STARTED IN /data/hutter/GITHUB/BASIS/MOLOPT/PBE0
                                           /alsipscl

 CP2K| version string:                    CP2K version 8.0 (Development Version)
 CP2K| source code revision number:                                  git:afc71fa
 CP2K| cp2kflags: omp libint fftw3 libxc elpa parallel mpi3 scalapack xsmm spgli
 CP2K|            b sirius
 CP2K| is freely available from                            https://www.cp2k.org/
 CP2K| Program compiled at                          Tue Nov 17 10:27:14 CET 2020
 CP2K| Program compiled on                                               tcopt10
 CP2K| Program compiled for                                                local
 CP2K| Data directory path                 /data/hutter/GITHUB/CURRENT/cp2k/data
 CP2K| Input file name                                               HCl-ref.inp

 GLOBAL| Force Environment number                                              1
 GLOBAL| Basis set file name                                  ../PBE0_UCSEGBASIS
 GLOBAL| Potential file name                                        ../POTENTIAL
 GLOBAL| MM Potential file name                                     MM_POTENTIAL
 GLOBAL| Coordinate file name                                      __STD_INPUT__
 GLOBAL| Method name                                                        CP2K
 GLOBAL| Project name                                                     refHCl
 GLOBAL| Preferred FFT library                                             FFTW3
 GLOBAL| Preferred diagonalization lib.                                     ELPA
 GLOBAL| Run type                                                         ENERGY
 GLOBAL| All-to-all communication in single precision                          F
 GLOBAL| FFTs using library dependent lengths                                  F
 GLOBAL| Global print level                                                  LOW
 GLOBAL| MPI I/O enabled                                                       T
 GLOBAL| Total number of message passing processes                            36
 GLOBAL| Number of threads for this process                                    1
 GLOBAL| This output is from process                                           0
 GLOBAL| CPU model name                          AMD EPYC 7401 24-Core Processor
 GLOBAL| CPUID                                                              1002

 MEMORY| system memory details [Kb]
 MEMORY|                        rank 0           min           max       average
 MEMORY| MemTotal            263987256     263987256     263987256     263987256
 MEMORY| MemFree             258309312     258309312     258309312     258309312
 MEMORY| Buffers                    32            32            32            32
 MEMORY| Cached                1944020       1944020       1944020       1944020
 MEMORY| Slab                   771372        771372        771372        771372
 MEMORY| SReclaimable           278660        278660        278660        278660
 MEMORY| MemLikelyFree       260532024     260532024     260532024     260532024


 GENERATE|  Preliminary Number of Bonds generated:                             0
 GENERATE|  Achieved consistency in connectivity generation.

 *******************************************************************************
 *   ___                                                                       *
 *  /   \                                                                      *
 * [ABORT]                                                                     *
 *  \___/    The requested atomic potential <GTH-PBE-q7> for element <Cl> was  *
 *    |               not found in the potential file <../POTENTIAL>           *
 *  O/|                                                                        *
 * /| |                                                                        *
 * / \                                  subsys/external_potential_types.F:2325 *
 *******************************************************************************


 ===== Routine Calling Stack ===== 

            3 read_qs_kind
            2 create_qs_kind_set
            1 CP2K
 DBCSR| CPU Multiplication driver                                           XSMM
 DBCSR| Multrec recursion limit                                              512
 DBCSR| Multiplication stack size                                           1000
 DBCSR| Maximum elements for images                                    UNLIMITED
 DBCSR| Multiplicative factor virtual images                                   1
 DBCSR| Use multiplication densification                                       T
 DBCSR| Multiplication size stacks                                             3
 DBCSR| Use memory pool for CPU allocation                                     F
 DBCSR| Number of 3D layers                                               SINGLE
 DBCSR| Use MPI memory allocation                                              F
 DBCSR| Use RMA algorithm                                                      F
 DBCSR| Use Communication thread                                               T
 DBCSR| Communication thread load                                             87
 DBCSR| Split modifier for TAS multiplication algorithm                  1.0E+00


  **** **** ******  **  PROGRAM STARTED AT               2020-11-30 17:27:46.837
 ***** ** ***  *** **   PROGRAM STARTED ON                               tcopt10
 **    ****   ******    PROGRAM STARTED BY                                hutter
 ***** **    ** ** **   PROGRAM PROCESS ID                                 42260
  **** **  *******  **  PROGRAM STARTED IN /data/hutter/GITHUB/BASIS/MOLOPT/PBE0
                                           /alsipscl

 CP2K| version string:                    CP2K version 8.0 (Development Version)
 CP2K| source code revision number:                                  git:afc71fa
 CP2K| cp2kflags: omp libint fftw3 libxc elpa parallel mpi3 scalapack xsmm spgli
 CP2K|            b sirius
 CP2K| is freely available from                            https://www.cp2k.org/
 CP2K| Program compiled at                          Tue Nov 17 10:27:14 CET 2020
 CP2K| Program compiled on                                               tcopt10
 CP2K| Program compiled for                                                local
 CP2K| Data directory path                 /data/hutter/GITHUB/CURRENT/cp2k/data
 CP2K| Input file name                                               HCl-ref.inp

 GLOBAL| Force Environment number                                              1
 GLOBAL| Basis set file name                                  ../PBE0_UCSEGBASIS
 GLOBAL| Potential file name                                        ../POTENTIAL
 GLOBAL| MM Potential file name                                     MM_POTENTIAL
 GLOBAL| Coordinate file name                                      __STD_INPUT__
 GLOBAL| Method name                                                        CP2K
 GLOBAL| Project name                                                     refHCl
 GLOBAL| Preferred FFT library                                             FFTW3
 GLOBAL| Preferred diagonalization lib.                                     ELPA
 GLOBAL| Run type                                                         ENERGY
 GLOBAL| All-to-all communication in single precision                          F
 GLOBAL| FFTs using library dependent lengths                                  F
 GLOBAL| Global print level                                                  LOW
 GLOBAL| MPI I/O enabled                                                       T
 GLOBAL| Total number of message passing processes                            36
 GLOBAL| Number of threads for this process                                    1
 GLOBAL| This output is from process                                           0
 GLOBAL| CPU model name                          AMD EPYC 7401 24-Core Processor
 GLOBAL| CPUID                                                              1002

 MEMORY| system memory details [Kb]
 MEMORY|                        rank 0           min           max       average
 MEMORY| MemTotal            263987256     263987256     263987256     263987256
 MEMORY| MemFree             258467840     258467840     258467840     258467840
 MEMORY| Buffers                    32            32            32            32
 MEMORY| Cached                1961228       1961228       1961228       1961228
 MEMORY| Slab                   771192        771192        771192        771192
 MEMORY| SReclaimable           279004        279004        279004        279004
 MEMORY| MemLikelyFree       260708104     260708104     260708104     260708104


 GENERATE|  Preliminary Number of Bonds generated:                             0
 GENERATE|  Achieved consistency in connectivity generation.

 *******************************************************************************
 *******************************************************************************
 **                                                                           **
 **     #####                         ##              ##                      **
 **    ##   ##            ##          ##              ##                      **
 **   ##     ##                       ##            ######                    **
 **   ##     ##  ##   ##  ##   #####  ##  ##   ####   ##    #####    #####    **
 **   ##     ##  ##   ##  ##  ##      ## ##   ##      ##   ##   ##  ##   ##   **
 **   ##  ## ##  ##   ##  ##  ##      ####     ###    ##   ######   ######    **
 **    ##  ###   ##   ##  ##  ##      ## ##      ##   ##   ##       ##        **
 **     #######   #####   ##   #####  ##  ##  ####    ##    #####   ##        **
 **           ##                                                    ##        **
 **                                                                           **
 **                                                ... make the atoms dance   **
 **                                                                           **
 **            Copyright (C) by CP2K developers group (2000 - 2020)           **
 **                      J. Chem. Phys. 152, 194103 (2020)                    **
 **                                                                           **
 *******************************************************************************


 TOTAL NUMBERS AND MAXIMUM NUMBERS

  Total number of            - Atomic kinds:                                   2
                             - Atoms:                                          2
                             - Shell sets:                                    24
                             - Shells:                                        48
                             - Primitive Cartesian functions:                 24
                             - Cartesian basis functions:                    240
                             - Spherical basis functions:                    184

  Maximum angular momentum of- Orbital basis functions:                        4
                             - Local part of the GTH pseudopotential:          2
                             - Non-local part of the GTH pseudopotential:      2


 SCF PARAMETERS         Density guess:                                    ATOMIC
                        --------------------------------------------------------
                        max_scf:                                              10
                        max_scf_history:                                       0
                        max_diis:                                              4
                        --------------------------------------------------------
                        eps_scf:                                        1.00E-07
                        eps_scf_history:                                0.00E+00
                        eps_diis:                                       1.00E-01
                        eps_eigval:                                     1.00E-05
                        --------------------------------------------------------
                        level_shift [a.u.]:                                 0.00
                        --------------------------------------------------------
                        Outer loop SCF in use 
                        No variables optimised in outer loop
                        eps_scf                                         1.00E-07
                        max_scf                                               10
                        No outer loop optimization
                        step_size                                       5.00E-01

 Number of electrons:                                                          8
 Number of occupied orbitals:                                                  4
 Number of molecular orbitals:                                                 4

 Number of orbital functions:                                                184
 Number of independent orbital functions:                                    184

 Extrapolation method: initial_guess


 SCF WAVEFUNCTION OPTIMIZATION

  ----------------------------------- OT ---------------------------------------
  Minimizer      : DIIS                : direct inversion
                                         in the iterative subspace
                                         using   7 DIIS vectors
                                         safer DIIS on
  Preconditioner : FULL_ALL            : diagonalization, state selective
  Precond_solver : DEFAULT
  stepsize       :    0.15000000                  energy_gap     :    0.08000000
  eps_taylor     :   0.10000E-15                  max_taylor     :             4
  ----------------------------------- OT ---------------------------------------

  Step     Update method      Time    Convergence         Total energy    Change
  ------------------------------------------------------------------------------
     1 OT DIIS     0.15E+00   33.6     0.06295731       -15.3457731228 -1.53E+01
     2 OT DIIS     0.15E+00    1.3     0.01818911       -15.5787653574 -2.33E-01
     3 OT DIIS     0.15E+00    1.2     0.00646068       -15.5990889185 -2.03E-02
     4 OT DIIS     0.15E+00    1.2     0.00222161       -15.6023214351 -3.23E-03
     5 OT DIIS     0.15E+00    1.3     0.00059598       -15.6025293415 -2.08E-04
     6 OT DIIS     0.15E+00    1.2     0.00014807       -15.6025612489 -3.19E-05
     7 OT DIIS     0.15E+00    1.2     0.00003876       -15.6025629953 -1.75E-06
     8 OT DIIS     0.15E+00    1.2     0.00000839       -15.6025631427 -1.47E-07
     9 OT DIIS     0.15E+00    1.2     0.00000138       -15.6025631468 -4.14E-09
    10 OT DIIS     0.15E+00    1.2     0.00000028       -15.6025631470 -1.85E-10

  Leaving inner SCF loop after reaching    10 steps.


  Electronic density on regular grids:         -8.0000000000        0.0000000000
  Core density on regular grids:                8.0000000000        0.0000000000
  Total charge density on r-space grids:        0.0000000000
  Total charge density g-space grids:           0.0000000000

  Overlap energy of the core charge distribution:               0.00000026835378
  Self energy of the core charge distribution:                -34.87683093369870
  Core Hamiltonian energy:                                      8.15429089656069
  Hartree energy:                                              14.36499109144746
  Exchange-correlation energy:                                 -2.49630610070990
  Hartree-Fock Exchange energy:                                -0.74870836897532

  Total energy:                                               -15.60256314702200

  outer SCF iter =    1 RMS gradient =   0.28E-06 energy =        -15.6025631470

  ----------------------------------- OT ---------------------------------------
  Minimizer      : DIIS                : direct inversion
                                         in the iterative subspace
                                         using   7 DIIS vectors
                                         safer DIIS on
  Preconditioner : FULL_ALL            : diagonalization, state selective
  Precond_solver : DEFAULT
  stepsize       :    0.15000000                  energy_gap     :    0.08000000
  eps_taylor     :   0.10000E-15                  max_taylor     :             4
  ----------------------------------- OT ---------------------------------------

  Step     Update method      Time    Convergence         Total energy    Change
  ------------------------------------------------------------------------------
     1 OT DIIS     0.15E+00    2.4     0.00000008       -15.6025631470 -7.52E-12

  *** SCF run converged in     1 steps ***


  Electronic density on regular grids:         -8.0000000000        0.0000000000
  Core density on regular grids:                8.0000000000        0.0000000000
  Total charge density on r-space grids:        0.0000000000
  Total charge density g-space grids:           0.0000000000

  Overlap energy of the core charge distribution:               0.00000026835378
  Self energy of the core charge distribution:                -34.87683093369870
  Core Hamiltonian energy:                                      8.15428872620000
  Hartree energy:                                              14.36499289839130
  Exchange-correlation energy:                                 -2.49630582748974
  Hartree-Fock Exchange energy:                                -0.74870827878616

  Total energy:                                               -15.60256314702952

  outer SCF iter =    2 RMS gradient =   0.84E-07 energy =        -15.6025631470
  outer SCF loop converged in   2 iterations or   11 steps


 ENERGY| Total FORCE_EVAL ( QS ) energy [a.u.]:              -15.602563147029517

 -------------------------------------------------------------------------------
 -                                                                             -
 -                                DBCSR STATISTICS                             -
 -                                                                             -
 -------------------------------------------------------------------------------
 COUNTER                                    TOTAL       BLAS       SMM       ACC
 flops     4 x     4 x     4                10880       0.0%    100.0%      0.0%
 flops     4 x     4 x    68               100096       0.0%    100.0%      0.0%
 flops    68 x     4 x     4               124032       0.0%    100.0%      0.0%
 flops     4 x     4 x   116               170752       0.0%    100.0%      0.0%
 flops   116 x     4 x     4               211584       0.0%    100.0%      0.0%
 flops    68 x    68 x     4               443904       0.0%    100.0%      0.0%
 flops    68 x   116 x     4               757248       0.0%    100.0%      0.0%
 flops   116 x   116 x     4              1291776       0.0%    100.0%      0.0%
 flops    68 x     4 x    68              2293504       0.0%    100.0%      0.0%
 flops   116 x     4 x    68              3912448       0.0%    100.0%      0.0%
 flops    68 x     4 x   116              3912448       0.0%    100.0%      0.0%
 flops   116 x     4 x   116              6674176       0.0%    100.0%      0.0%
 flops inhomo. stacks                           0       0.0%      0.0%      0.0%
 flops total                        19.902848E+06       0.0%    100.0%      0.0%
 flops max/rank                     12.371712E+06       0.0%    100.0%      0.0%
 matmuls inhomo. stacks                         0       0.0%      0.0%      0.0%
 matmuls total                                575       0.0%    100.0%      0.0%
 number of processed stacks                   575       0.0%    100.0%      0.0%
 average stack size                                     0.0       1.0       0.0
 marketing flops                    20.671924E+06
 -------------------------------------------------------------------------------
 # multiplications                            264
 max memory usage/rank               1.275281E+09
 # max total images/rank                        1
 # max 3D layers                                1
 # MPI messages exchanged                   95040
 MPI messages size (bytes):
  total size                        91.026560E+06
  min size                           0.000000E+00
  max size                         107.648000E+03
  average size                     957.771057E+00
 MPI breakdown and total messages size (bytes):
             size <=      128               91450                   145280
       128 < size <=     8192                2350                  6918400
      8192 < size <=    32768                   0                        0
     32768 < size <=   131072                1240                 83962880
    131072 < size <=  4194304                   0                        0
   4194304 < size <= 16777216                   0                        0
  16777216 < size                               0                        0
 -------------------------------------------------------------------------------
 -                                                                             -
 -                      DBCSR MESSAGE PASSING PERFORMANCE                      -
 -                                                                             -
 -------------------------------------------------------------------------------
 ROUTINE             CALLS      AVE VOLUME [Bytes]
 MP_Bcast               13                     12.
 MP_Allreduce         1417                      8.
 MP_Alltoall          1254                   4434.
 MP_ISend             6328                   1925.
 MP_IRecv             6328                    727.
 -------------------------------------------------------------------------------

 -------------------------------------------------------------------------------
 -                                                                             -
 -                                GRID STATISTICS                              -
 -                                                                             -
 -------------------------------------------------------------------------------
 LP    KERNEL    OPERATION                                     COUNT     PERCENT
 0     general   collocate                                        72       0.72%
 0     ortho     integrate                                       704       7.05%
 0     ortho     collocate                                       768       7.69%
 1     ortho     integrate                                       693       6.94%
 1     ortho     collocate                                       756       7.57%
 2     ortho     integrate                                       704       7.05%
 2     ortho     collocate                                       768       7.69%
 3     ortho     integrate                                       704       7.05%
 3     ortho     collocate                                       768       7.69%
 4     ortho     integrate                                       704       7.05%
 4     ortho     collocate                                       768       7.69%
 5     ortho     integrate                                       704       7.05%
 5     ortho     collocate                                       768       7.69%
 6     ortho     integrate                                       176       1.76%
 6     ortho     collocate                                       192       1.92%
 7     ortho     integrate                                       176       1.76%
 7     ortho     collocate                                       192       1.92%
 8     ortho     integrate                                       176       1.76%
 8     ortho     collocate                                       192       1.92%
 -------------------------------------------------------------------------------

 MEMORY| Estimated peak process memory [MiB]                                1217

 -------------------------------------------------------------------------------
 -                                                                             -
 -                         MESSAGE PASSING PERFORMANCE                         -
 -                                                                             -
 -------------------------------------------------------------------------------

 ROUTINE             CALLS      AVE VOLUME [Bytes]
 MP_Group                5
 MP_Bcast              170                1073620.
 MP_Allreduce          536                   2593.
 MP_Sync                76
 MP_Alltoall           229                6159837.
 MP_ISendRecv         3255                 111528.
 MP_Wait              4287
 MP_comm_split          14
 MP_ISend              960                 278784.
 MP_IRecv              960                 278784.
 MP_Recv                 3                   1472.
 -------------------------------------------------------------------------------


 -------------------------------------------------------------------------------
 -                                                                             -
 -                           R E F E R E N C E S                               -
 -                                                                             -
 -------------------------------------------------------------------------------
 
 CP2K version 8.0 (Development Version), the CP2K developers group (2020).
 CP2K is freely available from https://www.cp2k.org/ .

 Kuehne,Thomas D.; Iannuzzi,Marcella; Del Ben,Mauro;
 Rybkin,Vladimir V.; Seewald,Patrick; Stein,Frederick; Laino,Teodoro;
 Khaliullin,Rustam Z.; Schuett,Ole; Schiffmann,Florian; Golze,Dorothea;
 Wilhelm,Jan; Chulkov,Sergey; Bani-Hashemian,Mohammad Hossein;
 Weber,Valery; Borstnik,Urban; Taillefumier,Mathieu;
 Jakobovits,Alice Shoshana; Lazzaro,Alfio; Pabst,Hans; Mueller,Tiziano;
 Schade,Robert; Guidon,Manuel; Andermatt,Samuel; Holmberg,Nico;
 Schenter,Gregory K.; Hehn,Anna; Bussy,Augustin; Belleflamme,Fabian;
 Tabacchi,Gloria; Gloess,Andreas; Lass,Michael; Bethune,Iain;
 Mundy,Christopher J.; Plessl,Christian; Watkins,Matt;
 VandeVondele,Joost; Krack,Matthias; Hutter,Juerg. 
 The Journal of Chemical Physics, 152 (19), (2020). 
 CP2K: An electronic structure and molecular dynamics software package -
 Quickstep: Efficient and accurate electronic structure calculations.
 https://doi.org/10.1063/5.0007045

 Schuett, Ole; Messmer, Peter; Hutter, Juerg; VandeVondele, Joost. 
 Electronic Structure Calculations on Graphics Processing Units, John
 Wiley & Sons, Ltd, 173-190 (2016). 
 GPU-Accelerated Sparse Matrix-Matrix Multiplication for
 Linear Scaling Density Functional Theory.
 https://doi.org/10.1002/9781118670712.ch8

 Borstnik, U; VandeVondele, J; Weber, V; Hutter, J. 
 PARALLEL COMPUTING, 40 (5-6), 47-58 (2014). 
 Sparse matrix multiplication: The distributed block-compressed sparse
 row library.
 https://doi.org/10.1016/j.parco.2014.03.012

 Hutter, J; Iannuzzi, M; Schiffmann, F; VandeVondele, J. 
 WIREs Comput Mol Sci., 4 (1), 15-25 (2014). 
 CP2K: atomistic simulations of condensed matter systems.
 https://doi.org/10.1002/wcms.1159

 Marek, A; Blum, V; Johanni, R; Havu, V; Lang, B; Auckenthaler, T;
 Heinecke, A; Bungartz, H; Lederer, H. 
 Journal of Physics: Condensed Matter, 26 (21), (2014). 
 The ELPA library: scalable parallel eigenvalue solutions for
 electronic structure
 theory and computational science.
 https://doi.org/10.1088/0953-8984/26/21/213201

 Guidon, M; Hutter, J; VandeVondele, J. 
 JOURNAL OF CHEMICAL THEORY AND COMPUTATION, 5 (11), 3010-3021 (2009). 
 Robust Periodic Hartree-Fock Exchange for Large-Scale Simulations Using
 Gaussian Basis Sets.
 https://doi.org/10.1021/ct900494g

 Guidon, M; Schiffmann, F; Hutter, J; VandeVondele, J. 
 JOURNAL OF CHEMICAL PHYSICS, 128 (21), 214104 (2008). 
 Ab initio molecular dynamics using hybrid density functionals.
 https://doi.org/10.1063/1.2931945

 Krack, M. 
 THEORETICAL CHEMISTRY ACCOUNTS, 114 (1-3), 145-152 (2005). 
 Pseudopotentials for H to Kr optimized for gradient-corrected
 exchange-correlation functionals.
 https://doi.org/10.1007/s00214-005-0655-y

 VandeVondele, J; Krack, M; Mohamed, F; Parrinello, M; Chassaing, T;
 Hutter, J. COMPUTER PHYSICS COMMUNICATIONS, 167 (2), 103-128 (2005). 
 QUICKSTEP: Fast and accurate density functional calculations using a
 mixed Gaussian and plane waves approach.
 https://doi.org/10.1016/j.cpc.2004.12.014

 Frigo, M; Johnson, SG. 
 PROCEEDINGS OF THE IEEE, 93 (2), 216-231 (2005). 
 The design and implementation of FFTW3.
 https://doi.org/10.1109/JPROC.2004.840301

 VandeVondele, J; Hutter, J. 
 JOURNAL OF CHEMICAL PHYSICS, 118 (10), 4365-4369 (2003). 
 An efficient orbital transformation method for electronic structure
 calculations.
 https://doi.org/10.1063/1.1543154

 Martyna, GJ; Tuckerman, ME. 
 JOURNAL OF CHEMICAL PHYSICS, 110 (6), 2810-2821 (1999). 
 A reciprocal space based method for treating long range interactions in
 ab initio and force-field-based calculations in clusters.
 https://doi.org/10.1063/1.477923

 Hartwigsen, C; Goedecker, S; Hutter, J. 
 PHYSICAL REVIEW B, 58 (7), 3641-3662 (1998). 
 Relativistic separable dual-space Gaussian pseudopotentials from H to Rn.
 https://doi.org/10.1103/PhysRevB.58.3641

 Lippert, G; Hutter, J; Parrinello, M. 
 MOLECULAR PHYSICS, 92 (3), 477-487 (1997). 
 A hybrid Gaussian and plane wave density functional scheme.
 https://doi.org/10.1080/002689797170220

 Perdew, JP; Burke, K; Ernzerhof, M. 
 PHYSICAL REVIEW LETTERS, 77 (18), 3865-3868 (1996). 
 Generalized gradient approximation made simple.
 https://doi.org/10.1103/PhysRevLett.77.3865

 Goedecker, S; Teter, M; Hutter, J. 
 PHYSICAL REVIEW B, 54 (3), 1703-1710 (1996). 
 Separable dual-space Gaussian pseudopotentials.
 https://doi.org/10.1103/PhysRevB.54.1703


 -------------------------------------------------------------------------------
 -                                                                             -
 -                                T I M I N G                                  -
 -                                                                             -
 -------------------------------------------------------------------------------
 SUBROUTINE                       CALLS  ASD         SELF TIME        TOTAL TIME
                                MAXIMUM       AVERAGE  MAXIMUM  AVERAGE  MAXIMUM
 CP2K                                 1  1.0    0.012    0.059   46.426   46.427
 qs_energies                          1  2.0    0.000    0.000   46.144   46.145
 scf_env_do_scf                       1  3.0    0.000    0.000   45.943   45.944
 qs_ks_update_qs_env                 13  5.0    0.000    0.000   44.394   44.395
 rebuild_ks_matrix                   11  6.0    0.000    0.000   44.392   44.393
 qs_ks_build_kohn_sham_matrix        11  7.0    0.002    0.002   44.392   44.393
 hfx_ks_matrix                       11  8.0    0.000    0.001   40.604   40.609
 integrate_four_center               11  9.0    0.019    0.026   40.603   40.608
 init_scf_loop                        2  4.0    0.000    0.000   34.695   34.695
 mp_sync                             76 10.7   18.145   19.533   18.145   19.533
 calc_screening_functions             1 10.0   18.511   18.907   19.128   19.525
 integrate_four_center_main          11 10.0    0.001    0.002    1.383   19.518
 integrate_four_center_bin         1408 11.0    1.382   19.517    1.382   19.517
 scf_env_do_scf_inner_loop           11  4.0    0.000    0.001   11.248   11.248
 pw_transfer                        216  9.6    0.019    0.025    2.764    3.208
 fft_wrap_pw1pw2                    194 10.6    0.003    0.003    2.724    3.172
 fft_wrap_pw1pw2_300                124 11.8    0.135    0.162    2.535    2.969
 fft3d_ps                           194 12.6    0.971    1.032    2.190    2.719
 qs_vxc_create                       11  8.0    0.000    0.000    2.349    2.356
 xc_vxc_pw_create                    11  9.0    0.019    0.020    2.349    2.356
 mp_alltoall_z22v                   194 14.6    0.987    1.568    0.987    1.568
 xc_rho_set_and_dset_create          11 10.0    0.010    0.013    1.223    1.454
 calc_pair_dist_radii                 1 10.0    1.201    1.207    1.383    1.390
 qs_rho_update_rho                   12  5.0    0.000    0.000    1.389    1.389
 calculate_rho_elec                  12  6.0    0.009    0.009    1.389    1.389
 yz_to_x                             94 13.1    0.096    0.116    0.690    1.177
 rs_pw_transfer                      93  9.4    0.002    0.002    1.091    1.170
 density_rs2pw                       12  7.0    0.001    0.001    1.018    1.098
 sum_up_and_integrate                11  8.0    0.005    0.007    0.996    1.006
 integrate_v_rspace_low              11  9.0    0.022    0.140    0.991    1.004
 -------------------------------------------------------------------------------

 The number of warnings for this run is : 0
 
 -------------------------------------------------------------------------------
  **** **** ******  **  PROGRAM ENDED AT                 2020-11-30 17:28:33.993
 ***** ** ***  *** **   PROGRAM RAN ON                                   tcopt10
 **    ****   ******    PROGRAM RAN BY                                    hutter
 ***** **    ** ** **   PROGRAM PROCESS ID                                 42260
  **** **  *******  **  PROGRAM STOPPED IN /data/hutter/GITHUB/BASIS/MOLOPT/PBE0
                                           /alsipscl
