 DBCSR| CPU Multiplication driver                                           XSMM
 DBCSR| Multrec recursion limit                                              512
 DBCSR| Multiplication stack size                                           1000
 DBCSR| Maximum elements for images                                    UNLIMITED
 DBCSR| Multiplicative factor virtual images                                   1
 DBCSR| Use multiplication densification                                       T
 DBCSR| Multiplication size stacks                                             3
 DBCSR| Use memory pool for CPU allocation                                     F
 DBCSR| Number of 3D layers                                               SINGLE
 DBCSR| Use MPI memory allocation                                              F
 DBCSR| Use RMA algorithm                                                      F
 DBCSR| Use Communication thread                                               T
 DBCSR| Communication thread load                                             87
 DBCSR| Split modifier for TAS multiplication algorithm                  1.0E+00


  **** **** ******  **  PROGRAM STARTED AT               2020-11-30 16:51:05.071
 ***** ** ***  *** **   PROGRAM STARTED ON                               tcopt10
 **    ****   ******    PROGRAM STARTED BY                                hutter
 ***** **    ** ** **   PROGRAM PROCESS ID                                 35106
  **** **  *******  **  PROGRAM STARTED IN /data/hutter/GITHUB/BASIS/MOLOPT/PBE0
                                           /alsipscl

 CP2K| version string:                    CP2K version 8.0 (Development Version)
 CP2K| source code revision number:                                  git:afc71fa
 CP2K| cp2kflags: omp libint fftw3 libxc elpa parallel mpi3 scalapack xsmm spgli
 CP2K|            b sirius
 CP2K| is freely available from                            https://www.cp2k.org/
 CP2K| Program compiled at                          Tue Nov 17 10:27:14 CET 2020
 CP2K| Program compiled on                                               tcopt10
 CP2K| Program compiled for                                                local
 CP2K| Data directory path                 /data/hutter/GITHUB/CURRENT/cp2k/data
 CP2K| Input file name                                               HCP-ref.inp

 GLOBAL| Force Environment number                                              1
 GLOBAL| Basis set file name                                  ../PBE0_UCSEGBASIS
 GLOBAL| Potential file name                                        ../POTENTIAL
 GLOBAL| MM Potential file name                                     MM_POTENTIAL
 GLOBAL| Coordinate file name                                      __STD_INPUT__
 GLOBAL| Method name                                                        CP2K
 GLOBAL| Project name                                                     refHCP
 GLOBAL| Preferred FFT library                                             FFTW3
 GLOBAL| Preferred diagonalization lib.                                     ELPA
 GLOBAL| Run type                                                         ENERGY
 GLOBAL| All-to-all communication in single precision                          F
 GLOBAL| FFTs using library dependent lengths                                  F
 GLOBAL| Global print level                                                  LOW
 GLOBAL| MPI I/O enabled                                                       T
 GLOBAL| Total number of message passing processes                            36
 GLOBAL| Number of threads for this process                                    1
 GLOBAL| This output is from process                                           0
 GLOBAL| CPU model name                          AMD EPYC 7401 24-Core Processor
 GLOBAL| CPUID                                                              1002

 MEMORY| system memory details [Kb]
 MEMORY|                        rank 0           min           max       average
 MEMORY| MemTotal            263987256     263987256     263987256     263987256
 MEMORY| MemFree             258310032     258310032     258310032     258310032
 MEMORY| Buffers                    32            32            32            32
 MEMORY| Cached                1943992       1943992       1943992       1943992
 MEMORY| Slab                   771808        771808        771808        771808
 MEMORY| SReclaimable           278692        278692        278692        278692
 MEMORY| MemLikelyFree       260532748     260532748     260532748     260532748


 GENERATE|  Preliminary Number of Bonds generated:                             0
 GENERATE|  Achieved consistency in connectivity generation.

 *******************************************************************************
 *   ___                                                                       *
 *  /   \                                                                      *
 * [ABORT]                                                                     *
 *  \___/  The requested atomic potential <GTH-PBE-q5> for element <P> was not *
 *    |                 found in the potential file <../POTENTIAL>             *
 *  O/|                                                                        *
 * /| |                                                                        *
 * / \                                  subsys/external_potential_types.F:2325 *
 *******************************************************************************


 ===== Routine Calling Stack ===== 

            3 read_qs_kind
            2 create_qs_kind_set
            1 CP2K
 DBCSR| CPU Multiplication driver                                           XSMM
 DBCSR| Multrec recursion limit                                              512
 DBCSR| Multiplication stack size                                           1000
 DBCSR| Maximum elements for images                                    UNLIMITED
 DBCSR| Multiplicative factor virtual images                                   1
 DBCSR| Use multiplication densification                                       T
 DBCSR| Multiplication size stacks                                             3
 DBCSR| Use memory pool for CPU allocation                                     F
 DBCSR| Number of 3D layers                                               SINGLE
 DBCSR| Use MPI memory allocation                                              F
 DBCSR| Use RMA algorithm                                                      F
 DBCSR| Use Communication thread                                               T
 DBCSR| Communication thread load                                             87
 DBCSR| Split modifier for TAS multiplication algorithm                  1.0E+00


  **** **** ******  **  PROGRAM STARTED AT               2020-11-30 17:28:34.229
 ***** ** ***  *** **   PROGRAM STARTED ON                               tcopt10
 **    ****   ******    PROGRAM STARTED BY                                hutter
 ***** **    ** ** **   PROGRAM PROCESS ID                                 42474
  **** **  *******  **  PROGRAM STARTED IN /data/hutter/GITHUB/BASIS/MOLOPT/PBE0
                                           /alsipscl

 CP2K| version string:                    CP2K version 8.0 (Development Version)
 CP2K| source code revision number:                                  git:afc71fa
 CP2K| cp2kflags: omp libint fftw3 libxc elpa parallel mpi3 scalapack xsmm spgli
 CP2K|            b sirius
 CP2K| is freely available from                            https://www.cp2k.org/
 CP2K| Program compiled at                          Tue Nov 17 10:27:14 CET 2020
 CP2K| Program compiled on                                               tcopt10
 CP2K| Program compiled for                                                local
 CP2K| Data directory path                 /data/hutter/GITHUB/CURRENT/cp2k/data
 CP2K| Input file name                                               HCP-ref.inp

 GLOBAL| Force Environment number                                              1
 GLOBAL| Basis set file name                                  ../PBE0_UCSEGBASIS
 GLOBAL| Potential file name                                        ../POTENTIAL
 GLOBAL| MM Potential file name                                     MM_POTENTIAL
 GLOBAL| Coordinate file name                                      __STD_INPUT__
 GLOBAL| Method name                                                        CP2K
 GLOBAL| Project name                                                     refHCP
 GLOBAL| Preferred FFT library                                             FFTW3
 GLOBAL| Preferred diagonalization lib.                                     ELPA
 GLOBAL| Run type                                                         ENERGY
 GLOBAL| All-to-all communication in single precision                          F
 GLOBAL| FFTs using library dependent lengths                                  F
 GLOBAL| Global print level                                                  LOW
 GLOBAL| MPI I/O enabled                                                       T
 GLOBAL| Total number of message passing processes                            36
 GLOBAL| Number of threads for this process                                    1
 GLOBAL| This output is from process                                           0
 GLOBAL| CPU model name                          AMD EPYC 7401 24-Core Processor
 GLOBAL| CPUID                                                              1002

 MEMORY| system memory details [Kb]
 MEMORY|                        rank 0           min           max       average
 MEMORY| MemTotal            263987256     263987256     263987256     263987256
 MEMORY| MemFree             258456160     258456160     258456160     258456160
 MEMORY| Buffers                    32            32            32            32
 MEMORY| Cached                1961940       1961940       1961940       1961940
 MEMORY| Slab                   770988        770988        770988        770988
 MEMORY| SReclaimable           279612        279612        279612        279612
 MEMORY| MemLikelyFree       260697744     260697744     260697744     260697744


 GENERATE|  Preliminary Number of Bonds generated:                             0
 GENERATE|  Achieved consistency in connectivity generation.

 *******************************************************************************
 *******************************************************************************
 **                                                                           **
 **     #####                         ##              ##                      **
 **    ##   ##            ##          ##              ##                      **
 **   ##     ##                       ##            ######                    **
 **   ##     ##  ##   ##  ##   #####  ##  ##   ####   ##    #####    #####    **
 **   ##     ##  ##   ##  ##  ##      ## ##   ##      ##   ##   ##  ##   ##   **
 **   ##  ## ##  ##   ##  ##  ##      ####     ###    ##   ######   ######    **
 **    ##  ###   ##   ##  ##  ##      ## ##      ##   ##   ##       ##        **
 **     #######   #####   ##   #####  ##  ##  ####    ##    #####   ##        **
 **           ##                                                    ##        **
 **                                                                           **
 **                                                ... make the atoms dance   **
 **                                                                           **
 **            Copyright (C) by CP2K developers group (2000 - 2020)           **
 **                      J. Chem. Phys. 152, 194103 (2020)                    **
 **                                                                           **
 *******************************************************************************


 TOTAL NUMBERS AND MAXIMUM NUMBERS

  Total number of            - Atomic kinds:                                   3
                             - Atoms:                                          3
                             - Shell sets:                                    36
                             - Shells:                                        76
                             - Primitive Cartesian functions:                 36
                             - Cartesian basis functions:                    396
                             - Spherical basis functions:                    300

  Maximum angular momentum of- Orbital basis functions:                        4
                             - Local part of the GTH pseudopotential:          2
                             - Non-local part of the GTH pseudopotential:      2


 SCF PARAMETERS         Density guess:                                    ATOMIC
                        --------------------------------------------------------
                        max_scf:                                              10
                        max_scf_history:                                       0
                        max_diis:                                              4
                        --------------------------------------------------------
                        eps_scf:                                        1.00E-07
                        eps_scf_history:                                0.00E+00
                        eps_diis:                                       1.00E-01
                        eps_eigval:                                     1.00E-05
                        --------------------------------------------------------
                        level_shift [a.u.]:                                 0.00
                        --------------------------------------------------------
                        Outer loop SCF in use 
                        No variables optimised in outer loop
                        eps_scf                                         1.00E-07
                        max_scf                                               10
                        No outer loop optimization
                        step_size                                       5.00E-01

 Number of electrons:                                                         10
 Number of occupied orbitals:                                                  5
 Number of molecular orbitals:                                                 5

 Number of orbital functions:                                                300
 Number of independent orbital functions:                                    300

 Extrapolation method: initial_guess


 SCF WAVEFUNCTION OPTIMIZATION

  ----------------------------------- OT ---------------------------------------
  Minimizer      : DIIS                : direct inversion
                                         in the iterative subspace
                                         using   7 DIIS vectors
                                         safer DIIS on
  Preconditioner : FULL_ALL            : diagonalization, state selective
  Precond_solver : DEFAULT
  stepsize       :    0.15000000                  energy_gap     :    0.08000000
  eps_taylor     :   0.10000E-15                  max_taylor     :             4
  ----------------------------------- OT ---------------------------------------

  Step     Update method      Time    Convergence         Total energy    Change
  ------------------------------------------------------------------------------
     1 OT DIIS     0.15E+00   77.7     0.12673468       -11.6581166626 -1.17E+01
     2 OT DIIS     0.15E+00    1.2     0.10248697       -11.3824972463  2.76E-01
     3 OT DIIS     0.15E+00    1.2     0.08113118       -11.6790119694 -2.97E-01
     4 OT DIIS     0.15E+00    1.2     0.06691734       -12.1129306565 -4.34E-01
     5 OT DIIS     0.15E+00    1.2     0.05930097       -12.3173839703 -2.04E-01
     6 OT DIIS     0.15E+00    1.2     0.05587174       -12.4700658999 -1.53E-01
     7 OT DIIS     0.15E+00    1.2     0.05483271       -12.5032420905 -3.32E-02
     8 OT DIIS     0.15E+00    1.2     0.01879956       -12.7603109924 -2.57E-01
     9 OT DIIS     0.15E+00    1.2     0.03870747       -12.7264032532  3.39E-02
    10 OT DIIS     0.15E+00    1.2     0.01020752       -12.7865786595 -6.02E-02

  Leaving inner SCF loop after reaching    10 steps.


  Electronic density on regular grids:        -10.0000000000       -0.0000000000
  Core density on regular grids:               10.0000000000        0.0000000000
  Total charge density on r-space grids:       -0.0000000000
  Total charge density g-space grids:          -0.0000000000

  Overlap energy of the core charge distribution:               0.00000058710839
  Self energy of the core charge distribution:                -31.80568349523650
  Core Hamiltonian energy:                                      7.91228930629797
  Hartree energy:                                              14.71225604488378
  Exchange-correlation energy:                                 -2.79243076771446
  Hartree-Fock Exchange energy:                                -0.81301033483527

  Total energy:                                               -12.78657865949610

  outer SCF iter =    1 RMS gradient =   0.10E-01 energy =        -12.7865786595

  ----------------------------------- OT ---------------------------------------
  Minimizer      : DIIS                : direct inversion
                                         in the iterative subspace
                                         using   7 DIIS vectors
                                         safer DIIS on
  Preconditioner : FULL_ALL            : diagonalization, state selective
  Precond_solver : DEFAULT
  stepsize       :    0.15000000                  energy_gap     :    0.08000000
  eps_taylor     :   0.10000E-15                  max_taylor     :             4
  ----------------------------------- OT ---------------------------------------

  Step     Update method      Time    Convergence         Total energy    Change
  ------------------------------------------------------------------------------
     1 OT DIIS     0.15E+00    2.5     0.00833918       -12.7864925540  8.61E-05
     2 OT DIIS     0.15E+00    1.2     0.00809468       -12.7911795827 -4.69E-03
     3 OT DIIS     0.15E+00    1.2     0.00255472       -12.7946910292 -3.51E-03
     4 OT DIIS     0.15E+00    1.2     0.00044183       -12.7958107575 -1.12E-03
     5 OT DIIS     0.15E+00    1.2     0.00015126       -12.7958454498 -3.47E-05
     6 OT DIIS     0.15E+00    1.2     0.00003461       -12.7958507836 -5.33E-06
     7 OT DIIS     0.15E+00    1.2     0.00000898       -12.7958510272 -2.44E-07
     8 OT DIIS     0.15E+00    1.2     0.00000242       -12.7958510378 -1.07E-08
     9 OT DIIS     0.15E+00    1.2     0.00000058       -12.7958510391 -1.29E-09
    10 OT DIIS     0.15E+00    1.2     0.00000016       -12.7958510392 -7.50E-11

  Leaving inner SCF loop after reaching    10 steps.


  Electronic density on regular grids:        -10.0000000000       -0.0000000000
  Core density on regular grids:               10.0000000000        0.0000000000
  Total charge density on r-space grids:       -0.0000000000
  Total charge density g-space grids:          -0.0000000000

  Overlap energy of the core charge distribution:               0.00000058710839
  Self energy of the core charge distribution:                -31.80568349523650
  Core Hamiltonian energy:                                      7.90332647547818
  Hartree energy:                                              14.71145201058191
  Exchange-correlation energy:                                 -2.79177779924049
  Hartree-Fock Exchange energy:                                -0.81316881789912

  Total energy:                                               -12.79585103920763

  outer SCF iter =    2 RMS gradient =   0.16E-06 energy =        -12.7958510392

  ----------------------------------- OT ---------------------------------------
  Minimizer      : DIIS                : direct inversion
                                         in the iterative subspace
                                         using   7 DIIS vectors
                                         safer DIIS on
  Preconditioner : FULL_ALL            : diagonalization, state selective
  Precond_solver : DEFAULT
  stepsize       :    0.15000000                  energy_gap     :    0.08000000
  eps_taylor     :   0.10000E-15                  max_taylor     :             4
  ----------------------------------- OT ---------------------------------------

  Step     Update method      Time    Convergence         Total energy    Change
  ------------------------------------------------------------------------------
     1 OT DIIS     0.15E+00    2.5     0.00000004       -12.7958510392 -5.64E-12

  *** SCF run converged in     1 steps ***


  Electronic density on regular grids:        -10.0000000000       -0.0000000000
  Core density on regular grids:               10.0000000000        0.0000000000
  Total charge density on r-space grids:       -0.0000000000
  Total charge density g-space grids:          -0.0000000000

  Overlap energy of the core charge distribution:               0.00000058710839
  Self energy of the core charge distribution:                -31.80568349523650
  Core Hamiltonian energy:                                      7.90332716197726
  Hartree energy:                                              14.71145149531031
  Exchange-correlation energy:                                 -2.79177793032054
  Hartree-Fock Exchange energy:                                -0.81316885805220

  Total energy:                                               -12.79585103921328

  outer SCF iter =    3 RMS gradient =   0.42E-07 energy =        -12.7958510392
  outer SCF loop converged in   3 iterations or   21 steps


 ENERGY| Total FORCE_EVAL ( QS ) energy [a.u.]:              -12.795851039213277

 -------------------------------------------------------------------------------
 -                                                                             -
 -                                DBCSR STATISTICS                             -
 -                                                                             -
 -------------------------------------------------------------------------------
 COUNTER                                    TOTAL       BLAS       SMM       ACC
 flops     5 x     5 x     5                58250       0.0%    100.0%      0.0%
 flops     5 x     5 x    68               295800       0.0%    100.0%      0.0%
 flops    68 x     5 x     5               367200       0.0%    100.0%      0.0%
 flops     5 x     5 x   116              1009200       0.0%    100.0%      0.0%
 flops    68 x    68 x     5              1017280       0.0%    100.0%      0.0%
 flops   116 x     5 x     5              1252800       0.0%    100.0%      0.0%
 flops    68 x   116 x     5              1735360       0.0%    100.0%      0.0%
 flops   116 x    68 x     5              1735360       0.0%    100.0%      0.0%
 flops    68 x     5 x    68              5086400       0.0%    100.0%      0.0%
 flops   116 x   116 x     5              8880960       0.0%    100.0%      0.0%
 flops   116 x     5 x    68             17353600       0.0%    100.0%      0.0%
 flops    68 x     5 x   116             17353600       0.0%    100.0%      0.0%
 flops   116 x     5 x   116             59206400       0.0%    100.0%      0.0%
 flops inhomo. stacks                           0       0.0%      0.0%      0.0%
 flops total                       115.352210E+06       0.0%    100.0%      0.0%
 flops max/rank                     43.229970E+06       0.0%    100.0%      0.0%
 matmuls inhomo. stacks                         0       0.0%      0.0%      0.0%
 matmuls total                               1940       0.0%    100.0%      0.0%
 number of processed stacks                  1940       0.0%    100.0%      0.0%
 average stack size                                     0.0       1.0       0.0
 marketing flops                   121.828776E+06
 -------------------------------------------------------------------------------
 # multiplications                            563
 max memory usage/rank               1.308582E+09
 # max total images/rank                        1
 # max 3D layers                                1
 # MPI messages exchanged                  202680
 MPI messages size (bytes):
  total size                       422.733984E+06
  min size                           0.000000E+00
  max size                         107.648000E+03
  average size                       2.085721E+03
 MPI breakdown and total messages size (bytes):
             size <=      128              188320                        0
       128 < size <=     8192                9410                 26734000
      8192 < size <=    32768                   0                        0
     32768 < size <=   131072                4950                396000000
    131072 < size <=  4194304                   0                        0
   4194304 < size <= 16777216                   0                        0
  16777216 < size                               0                        0
 -------------------------------------------------------------------------------
 -                                                                             -
 -                      DBCSR MESSAGE PASSING PERFORMANCE                      -
 -                                                                             -
 -------------------------------------------------------------------------------
 ROUTINE             CALLS      AVE VOLUME [Bytes]
 MP_Bcast               14                     12.
 MP_Allreduce         2980                      8.
 MP_Alltoall          2185                   4013.
 MP_ISend            13500                   2638.
 MP_IRecv            13500                   1602.
 -------------------------------------------------------------------------------

 -------------------------------------------------------------------------------
 -                                                                             -
 -                                GRID STATISTICS                              -
 -                                                                             -
 -------------------------------------------------------------------------------
 LP    KERNEL    OPERATION                                     COUNT     PERCENT
 0     general   collocate                                       108       0.29%
 0     ortho     integrate                                      1344       3.63%
 0     ortho     collocate                                      1408       3.81%
 1     ortho     integrate                                      2583       6.98%
 1     ortho     collocate                                      2706       7.31%
 2     ortho     integrate                                      4032      10.90%
 2     ortho     collocate                                      4224      11.42%
 3     ortho     integrate                                      1344       3.63%
 3     ortho     collocate                                      1408       3.81%
 4     ortho     integrate                                      2667       7.21%
 4     ortho     collocate                                      2794       7.55%
 5     ortho     integrate                                      4032      10.90%
 5     ortho     collocate                                      4224      11.42%
 6     ortho     integrate                                       336       0.91%
 6     ortho     collocate                                       352       0.95%
 7     ortho     integrate                                       672       1.82%
 7     ortho     collocate                                       704       1.90%
 8     ortho     integrate                                      1008       2.72%
 8     ortho     collocate                                      1056       2.85%
 -------------------------------------------------------------------------------

 MEMORY| Estimated peak process memory [MiB]                                1249

 -------------------------------------------------------------------------------
 -                                                                             -
 -                         MESSAGE PASSING PERFORMANCE                         -
 -                                                                             -
 -------------------------------------------------------------------------------

 ROUTINE             CALLS      AVE VOLUME [Bytes]
 MP_Group                5
 MP_Bcast              270                1014116.
 MP_Allreduce          760                   1837.
 MP_Sync               128
 MP_Alltoall           419                6264375.
 MP_ISendRecv         6055                 112619.
 MP_Wait              7947
 MP_comm_split          16
 MP_ISend             1760                 278784.
 MP_IRecv             1760                 278784.
 MP_Recv                 8                   2400.
 -------------------------------------------------------------------------------


 -------------------------------------------------------------------------------
 -                                                                             -
 -                           R E F E R E N C E S                               -
 -                                                                             -
 -------------------------------------------------------------------------------
 
 CP2K version 8.0 (Development Version), the CP2K developers group (2020).
 CP2K is freely available from https://www.cp2k.org/ .

 Kuehne,Thomas D.; Iannuzzi,Marcella; Del Ben,Mauro;
 Rybkin,Vladimir V.; Seewald,Patrick; Stein,Frederick; Laino,Teodoro;
 Khaliullin,Rustam Z.; Schuett,Ole; Schiffmann,Florian; Golze,Dorothea;
 Wilhelm,Jan; Chulkov,Sergey; Bani-Hashemian,Mohammad Hossein;
 Weber,Valery; Borstnik,Urban; Taillefumier,Mathieu;
 Jakobovits,Alice Shoshana; Lazzaro,Alfio; Pabst,Hans; Mueller,Tiziano;
 Schade,Robert; Guidon,Manuel; Andermatt,Samuel; Holmberg,Nico;
 Schenter,Gregory K.; Hehn,Anna; Bussy,Augustin; Belleflamme,Fabian;
 Tabacchi,Gloria; Gloess,Andreas; Lass,Michael; Bethune,Iain;
 Mundy,Christopher J.; Plessl,Christian; Watkins,Matt;
 VandeVondele,Joost; Krack,Matthias; Hutter,Juerg. 
 The Journal of Chemical Physics, 152 (19), (2020). 
 CP2K: An electronic structure and molecular dynamics software package -
 Quickstep: Efficient and accurate electronic structure calculations.
 https://doi.org/10.1063/5.0007045

 Schuett, Ole; Messmer, Peter; Hutter, Juerg; VandeVondele, Joost. 
 Electronic Structure Calculations on Graphics Processing Units, John
 Wiley & Sons, Ltd, 173-190 (2016). 
 GPU-Accelerated Sparse Matrix-Matrix Multiplication for
 Linear Scaling Density Functional Theory.
 https://doi.org/10.1002/9781118670712.ch8

 Borstnik, U; VandeVondele, J; Weber, V; Hutter, J. 
 PARALLEL COMPUTING, 40 (5-6), 47-58 (2014). 
 Sparse matrix multiplication: The distributed block-compressed sparse
 row library.
 https://doi.org/10.1016/j.parco.2014.03.012

 Hutter, J; Iannuzzi, M; Schiffmann, F; VandeVondele, J. 
 WIREs Comput Mol Sci., 4 (1), 15-25 (2014). 
 CP2K: atomistic simulations of condensed matter systems.
 https://doi.org/10.1002/wcms.1159

 Marek, A; Blum, V; Johanni, R; Havu, V; Lang, B; Auckenthaler, T;
 Heinecke, A; Bungartz, H; Lederer, H. 
 Journal of Physics: Condensed Matter, 26 (21), (2014). 
 The ELPA library: scalable parallel eigenvalue solutions for
 electronic structure
 theory and computational science.
 https://doi.org/10.1088/0953-8984/26/21/213201

 Guidon, M; Hutter, J; VandeVondele, J. 
 JOURNAL OF CHEMICAL THEORY AND COMPUTATION, 5 (11), 3010-3021 (2009). 
 Robust Periodic Hartree-Fock Exchange for Large-Scale Simulations Using
 Gaussian Basis Sets.
 https://doi.org/10.1021/ct900494g

 Guidon, M; Schiffmann, F; Hutter, J; VandeVondele, J. 
 JOURNAL OF CHEMICAL PHYSICS, 128 (21), 214104 (2008). 
 Ab initio molecular dynamics using hybrid density functionals.
 https://doi.org/10.1063/1.2931945

 Krack, M. 
 THEORETICAL CHEMISTRY ACCOUNTS, 114 (1-3), 145-152 (2005). 
 Pseudopotentials for H to Kr optimized for gradient-corrected
 exchange-correlation functionals.
 https://doi.org/10.1007/s00214-005-0655-y

 VandeVondele, J; Krack, M; Mohamed, F; Parrinello, M; Chassaing, T;
 Hutter, J. COMPUTER PHYSICS COMMUNICATIONS, 167 (2), 103-128 (2005). 
 QUICKSTEP: Fast and accurate density functional calculations using a
 mixed Gaussian and plane waves approach.
 https://doi.org/10.1016/j.cpc.2004.12.014

 Frigo, M; Johnson, SG. 
 PROCEEDINGS OF THE IEEE, 93 (2), 216-231 (2005). 
 The design and implementation of FFTW3.
 https://doi.org/10.1109/JPROC.2004.840301

 VandeVondele, J; Hutter, J. 
 JOURNAL OF CHEMICAL PHYSICS, 118 (10), 4365-4369 (2003). 
 An efficient orbital transformation method for electronic structure
 calculations.
 https://doi.org/10.1063/1.1543154

 Martyna, GJ; Tuckerman, ME. 
 JOURNAL OF CHEMICAL PHYSICS, 110 (6), 2810-2821 (1999). 
 A reciprocal space based method for treating long range interactions in
 ab initio and force-field-based calculations in clusters.
 https://doi.org/10.1063/1.477923

 Hartwigsen, C; Goedecker, S; Hutter, J. 
 PHYSICAL REVIEW B, 58 (7), 3641-3662 (1998). 
 Relativistic separable dual-space Gaussian pseudopotentials from H to Rn.
 https://doi.org/10.1103/PhysRevB.58.3641

 Lippert, G; Hutter, J; Parrinello, M. 
 MOLECULAR PHYSICS, 92 (3), 477-487 (1997). 
 A hybrid Gaussian and plane wave density functional scheme.
 https://doi.org/10.1080/002689797170220

 Perdew, JP; Burke, K; Ernzerhof, M. 
 PHYSICAL REVIEW LETTERS, 77 (18), 3865-3868 (1996). 
 Generalized gradient approximation made simple.
 https://doi.org/10.1103/PhysRevLett.77.3865

 Goedecker, S; Teter, M; Hutter, J. 
 PHYSICAL REVIEW B, 54 (3), 1703-1710 (1996). 
 Separable dual-space Gaussian pseudopotentials.
 https://doi.org/10.1103/PhysRevB.54.1703


 -------------------------------------------------------------------------------
 -                                                                             -
 -                                T I M I N G                                  -
 -                                                                             -
 -------------------------------------------------------------------------------
 SUBROUTINE                       CALLS  ASD         SELF TIME        TOTAL TIME
                                MAXIMUM       AVERAGE  MAXIMUM  AVERAGE  MAXIMUM
 CP2K                                 1  1.0    0.027    0.075  103.009  103.011
 qs_energies                          1  2.0    0.000    0.000  102.699  102.700
 scf_env_do_scf                       1  3.0    0.000    0.000  102.489  102.491
 qs_ks_update_qs_env                 24  5.0    0.000    0.000   99.444   99.446
 rebuild_ks_matrix                   21  6.0    0.000    0.000   99.441   99.443
 qs_ks_build_kohn_sham_matrix        21  7.0    0.003    0.004   99.441   99.443
 hfx_ks_matrix                       21  8.0    0.001    0.001   91.966   91.977
 integrate_four_center               21  9.0    0.024    0.041   91.965   91.976
 init_scf_loop                        3  4.0    0.000    0.000   79.991   79.993
 calc_screening_functions             1 10.0   57.607   59.165   59.079   60.680
 mp_sync                            128 10.8   18.381   27.493   18.381   27.493
 integrate_four_center_main          21 10.0    0.003    0.004    9.113   27.404
 integrate_four_center_bin         2667 11.0    9.109   27.401    9.109   27.401
 scf_env_do_scf_inner_loop           21  4.0    0.001    0.002   22.497   22.497
 pw_transfer                        406  9.6    0.036    0.042    5.074    5.789
 fft_wrap_pw1pw2                    364 10.7    0.005    0.006    4.997    5.726
 fft_wrap_pw1pw2_300                234 11.8    0.255    0.310    4.709    5.417
 fft3d_ps                           364 12.7    1.806    1.908    4.008    4.861
 qs_vxc_create                       21  8.0    0.000    0.001    4.843    4.856
 xc_vxc_pw_create                    21  9.0    0.037    0.039    4.843    4.855
 calc_pair_dist_radii                 1 10.0    3.095    3.121    3.484    3.513
 xc_rho_set_and_dset_create          21 10.0    0.020    0.025    2.772    3.064
 mp_sum_l                          2802 10.9    1.675    2.827    1.675    2.827
 integrate_four_center_load          21 10.0    0.000    0.000    1.626    2.775
 hfx_load_balance                     1 11.0    0.000    0.000    1.626    2.775
 hfx_load_balance_range               1 12.0    0.000    0.004    1.602    2.751
 mp_alltoall_z22v                   364 14.7    1.771    2.707    1.771    2.707
 qs_rho_update_rho                   22  5.0    0.000    0.000    2.575    2.575
 calculate_rho_elec                  22  6.0    0.016    0.016    2.575    2.575
 rs_pw_transfer                     173  9.4    0.004    0.005    2.001    2.123
 -------------------------------------------------------------------------------

 The number of warnings for this run is : 0
 
 -------------------------------------------------------------------------------
  **** **** ******  **  PROGRAM ENDED AT                 2020-11-30 17:30:17.969
 ***** ** ***  *** **   PROGRAM RAN ON                                   tcopt10
 **    ****   ******    PROGRAM RAN BY                                    hutter
 ***** **    ** ** **   PROGRAM PROCESS ID                                 42474
  **** **  *******  **  PROGRAM STOPPED IN /data/hutter/GITHUB/BASIS/MOLOPT/PBE0
                                           /alsipscl
