 DBCSR| CPU Multiplication driver                                           XSMM
 DBCSR| Multrec recursion limit                                              512
 DBCSR| Multiplication stack size                                           1000
 DBCSR| Maximum elements for images                                    UNLIMITED
 DBCSR| Multiplicative factor virtual images                                   1
 DBCSR| Use multiplication densification                                       T
 DBCSR| Multiplication size stacks                                             3
 DBCSR| Use memory pool for CPU allocation                                     F
 DBCSR| Number of 3D layers                                               SINGLE
 DBCSR| Use MPI memory allocation                                              F
 DBCSR| Use RMA algorithm                                                      F
 DBCSR| Use Communication thread                                               T
 DBCSR| Communication thread load                                             87
 DBCSR| Split modifier for TAS multiplication algorithm                  1.0E+00


  **** **** ******  **  PROGRAM STARTED AT               2020-11-30 16:51:06.732
 ***** ** ***  *** **   PROGRAM STARTED ON                               tcopt10
 **    ****   ******    PROGRAM STARTED BY                                hutter
 ***** **    ** ** **   PROGRAM PROCESS ID                                 35407
  **** **  *******  **  PROGRAM STARTED IN /data/hutter/GITHUB/BASIS/MOLOPT/PBE0
                                           /alsipscl

 CP2K| version string:                    CP2K version 8.0 (Development Version)
 CP2K| source code revision number:                                  git:afc71fa
 CP2K| cp2kflags: omp libint fftw3 libxc elpa parallel mpi3 scalapack xsmm spgli
 CP2K|            b sirius
 CP2K| is freely available from                            https://www.cp2k.org/
 CP2K| Program compiled at                          Tue Nov 17 10:27:14 CET 2020
 CP2K| Program compiled on                                               tcopt10
 CP2K| Program compiled for                                                local
 CP2K| Data directory path                 /data/hutter/GITHUB/CURRENT/cp2k/data
 CP2K| Input file name                                              HSSH-ref.inp

 GLOBAL| Force Environment number                                              1
 GLOBAL| Basis set file name                                  ../PBE0_UCSEGBASIS
 GLOBAL| Potential file name                                        ../POTENTIAL
 GLOBAL| MM Potential file name                                     MM_POTENTIAL
 GLOBAL| Coordinate file name                                      __STD_INPUT__
 GLOBAL| Method name                                                        CP2K
 GLOBAL| Project name                                                    refHSS6
 GLOBAL| Preferred FFT library                                             FFTW3
 GLOBAL| Preferred diagonalization lib.                                     ELPA
 GLOBAL| Run type                                                         ENERGY
 GLOBAL| All-to-all communication in single precision                          F
 GLOBAL| FFTs using library dependent lengths                                  F
 GLOBAL| Global print level                                                  LOW
 GLOBAL| MPI I/O enabled                                                       T
 GLOBAL| Total number of message passing processes                            36
 GLOBAL| Number of threads for this process                                    1
 GLOBAL| This output is from process                                           0
 GLOBAL| CPU model name                          AMD EPYC 7401 24-Core Processor
 GLOBAL| CPUID                                                              1002

 MEMORY| system memory details [Kb]
 MEMORY|                        rank 0           min           max       average
 MEMORY| MemTotal            263987256     263987256     263987256     263987256
 MEMORY| MemFree             258311148     258311148     258311148     258311148
 MEMORY| Buffers                    32            32            32            32
 MEMORY| Cached                1944736       1944736       1944736       1944736
 MEMORY| Slab                   770076        770076        770076        770076
 MEMORY| SReclaimable           278116        278116        278116        278116
 MEMORY| MemLikelyFree       260534032     260534032     260534032     260534032


 GENERATE|  Preliminary Number of Bonds generated:                             1
 GENERATE|  Achieved consistency in connectivity generation.
 GENERATE|  Number of Bonds generated:                                         1
 GENERATE|  Preliminary Number of Bends generated:                             0
 GENERATE|  Preliminary Number of Torsions generated:                          0

 *******************************************************************************
 *   ___                                                                       *
 *  /   \                                                                      *
 * [ABORT]                                                                     *
 *  \___/  The requested atomic potential <GTH-PBE-q6> for element <S> was not *
 *    |                 found in the potential file <../POTENTIAL>             *
 *  O/|                                                                        *
 * /| |                                                                        *
 * / \                                  subsys/external_potential_types.F:2325 *
 *******************************************************************************


 ===== Routine Calling Stack ===== 

            3 read_qs_kind
            2 create_qs_kind_set
            1 CP2K
 DBCSR| CPU Multiplication driver                                           XSMM
 DBCSR| Multrec recursion limit                                              512
 DBCSR| Multiplication stack size                                           1000
 DBCSR| Maximum elements for images                                    UNLIMITED
 DBCSR| Multiplicative factor virtual images                                   1
 DBCSR| Use multiplication densification                                       T
 DBCSR| Multiplication size stacks                                             3
 DBCSR| Use memory pool for CPU allocation                                     F
 DBCSR| Number of 3D layers                                               SINGLE
 DBCSR| Use MPI memory allocation                                              F
 DBCSR| Use RMA algorithm                                                      F
 DBCSR| Use Communication thread                                               T
 DBCSR| Communication thread load                                             87
 DBCSR| Split modifier for TAS multiplication algorithm                  1.0E+00


  **** **** ******  **  PROGRAM STARTED AT               2020-11-30 17:31:09.912
 ***** ** ***  *** **   PROGRAM STARTED ON                               tcopt10
 **    ****   ******    PROGRAM STARTED BY                                hutter
 ***** **    ** ** **   PROGRAM PROCESS ID                                 42986
  **** **  *******  **  PROGRAM STARTED IN /data/hutter/GITHUB/BASIS/MOLOPT/PBE0
                                           /alsipscl

 CP2K| version string:                    CP2K version 8.0 (Development Version)
 CP2K| source code revision number:                                  git:afc71fa
 CP2K| cp2kflags: omp libint fftw3 libxc elpa parallel mpi3 scalapack xsmm spgli
 CP2K|            b sirius
 CP2K| is freely available from                            https://www.cp2k.org/
 CP2K| Program compiled at                          Tue Nov 17 10:27:14 CET 2020
 CP2K| Program compiled on                                               tcopt10
 CP2K| Program compiled for                                                local
 CP2K| Data directory path                 /data/hutter/GITHUB/CURRENT/cp2k/data
 CP2K| Input file name                                              HSSH-ref.inp

 GLOBAL| Force Environment number                                              1
 GLOBAL| Basis set file name                                  ../PBE0_UCSEGBASIS
 GLOBAL| Potential file name                                        ../POTENTIAL
 GLOBAL| MM Potential file name                                     MM_POTENTIAL
 GLOBAL| Coordinate file name                                      __STD_INPUT__
 GLOBAL| Method name                                                        CP2K
 GLOBAL| Project name                                                    refHSS6
 GLOBAL| Preferred FFT library                                             FFTW3
 GLOBAL| Preferred diagonalization lib.                                     ELPA
 GLOBAL| Run type                                                         ENERGY
 GLOBAL| All-to-all communication in single precision                          F
 GLOBAL| FFTs using library dependent lengths                                  F
 GLOBAL| Global print level                                                  LOW
 GLOBAL| MPI I/O enabled                                                       T
 GLOBAL| Total number of message passing processes                            36
 GLOBAL| Number of threads for this process                                    1
 GLOBAL| This output is from process                                           0
 GLOBAL| CPU model name                          AMD EPYC 7401 24-Core Processor
 GLOBAL| CPUID                                                              1002

 MEMORY| system memory details [Kb]
 MEMORY|                        rank 0           min           max       average
 MEMORY| MemTotal            263987256     263987256     263987256     263987256
 MEMORY| MemFree             258439716     258439716     258439716     258439716
 MEMORY| Buffers                    32            32            32            32
 MEMORY| Cached                1963548       1963548       1963548       1963548
 MEMORY| Slab                   773596        773596        773596        773596
 MEMORY| SReclaimable           280092        280092        280092        280092
 MEMORY| MemLikelyFree       260683388     260683388     260683388     260683388


 GENERATE|  Preliminary Number of Bonds generated:                             1
 GENERATE|  Achieved consistency in connectivity generation.
 GENERATE|  Number of Bonds generated:                                         1
 GENERATE|  Preliminary Number of Bends generated:                             0
 GENERATE|  Preliminary Number of Torsions generated:                          0

 *******************************************************************************
 *******************************************************************************
 **                                                                           **
 **     #####                         ##              ##                      **
 **    ##   ##            ##          ##              ##                      **
 **   ##     ##                       ##            ######                    **
 **   ##     ##  ##   ##  ##   #####  ##  ##   ####   ##    #####    #####    **
 **   ##     ##  ##   ##  ##  ##      ## ##   ##      ##   ##   ##  ##   ##   **
 **   ##  ## ##  ##   ##  ##  ##      ####     ###    ##   ######   ######    **
 **    ##  ###   ##   ##  ##  ##      ## ##      ##   ##   ##       ##        **
 **     #######   #####   ##   #####  ##  ##  ####    ##    #####   ##        **
 **           ##                                                    ##        **
 **                                                                           **
 **                                                ... make the atoms dance   **
 **                                                                           **
 **            Copyright (C) by CP2K developers group (2000 - 2020)           **
 **                      J. Chem. Phys. 152, 194103 (2020)                    **
 **                                                                           **
 *******************************************************************************


 TOTAL NUMBERS AND MAXIMUM NUMBERS

  Total number of            - Atomic kinds:                                   2
                             - Atoms:                                          4
                             - Shell sets:                                    48
                             - Shells:                                        96
                             - Primitive Cartesian functions:                 48
                             - Cartesian basis functions:                    480
                             - Spherical basis functions:                    368

  Maximum angular momentum of- Orbital basis functions:                        4
                             - Local part of the GTH pseudopotential:          2
                             - Non-local part of the GTH pseudopotential:      2


 SCF PARAMETERS         Density guess:                                    ATOMIC
                        --------------------------------------------------------
                        max_scf:                                              10
                        max_scf_history:                                       0
                        max_diis:                                              4
                        --------------------------------------------------------
                        eps_scf:                                        1.00E-07
                        eps_scf_history:                                0.00E+00
                        eps_diis:                                       1.00E-01
                        eps_eigval:                                     1.00E-05
                        --------------------------------------------------------
                        level_shift [a.u.]:                                 0.00
                        --------------------------------------------------------
                        Outer loop SCF in use 
                        No variables optimised in outer loop
                        eps_scf                                         1.00E-07
                        max_scf                                               10
                        No outer loop optimization
                        step_size                                       5.00E-01

 Number of electrons:                                                         14
 Number of occupied orbitals:                                                  7
 Number of molecular orbitals:                                                 7

 Number of orbital functions:                                                368
 Number of independent orbital functions:                                    368

 Extrapolation method: initial_guess


 SCF WAVEFUNCTION OPTIMIZATION

  ----------------------------------- OT ---------------------------------------
  Minimizer      : DIIS                : direct inversion
                                         in the iterative subspace
                                         using   7 DIIS vectors
                                         safer DIIS on
  Preconditioner : FULL_ALL            : diagonalization, state selective
  Precond_solver : DEFAULT
  stepsize       :    0.15000000                  energy_gap     :    0.08000000
  eps_taylor     :   0.10000E-15                  max_taylor     :             4
  ----------------------------------- OT ---------------------------------------

  Step     Update method      Time    Convergence         Total energy    Change
  ------------------------------------------------------------------------------
     1 OT DIIS     0.15E+00   35.0     0.05265293       -21.0911878387 -2.11E+01
     2 OT DIIS     0.15E+00    1.2     0.03980226       -21.4880223284 -3.97E-01
     3 OT DIIS     0.15E+00    1.3     0.02466269       -21.5665171146 -7.85E-02
     4 OT DIIS     0.15E+00    1.2     0.00577899       -21.6209169722 -5.44E-02
     5 OT DIIS     0.15E+00    1.2     0.00328372       -21.6264960674 -5.58E-03
     6 OT DIIS     0.15E+00    1.2     0.00083793       -21.6275921978 -1.10E-03
     7 OT DIIS     0.15E+00    1.2     0.00030674       -21.6277269708 -1.35E-04
     8 OT DIIS     0.15E+00    1.3     0.00011784       -21.6277421794 -1.52E-05
     9 OT DIIS     0.15E+00    1.2     0.00002878       -21.6277454288 -3.25E-06
    10 OT DIIS     0.15E+00    1.2     0.00001091       -21.6277456739 -2.45E-07

  Leaving inner SCF loop after reaching    10 steps.


  Electronic density on regular grids:        -14.0000000000       -0.0000000000
  Core density on regular grids:               14.0000000000       -0.0000000000
  Total charge density on r-space grids:       -0.0000000000
  Total charge density g-space grids:          -0.0000000000

  Overlap energy of the core charge distribution:               0.00000015914966
  Self energy of the core charge distribution:                -50.69216290122669
  Core Hamiltonian energy:                                     11.59881232637617
  Hartree energy:                                              22.61350814475973
  Exchange-correlation energy:                                 -3.97550244892132
  Hartree-Fock Exchange energy:                                -1.17240095405580

  Total energy:                                               -21.62774567391824

  outer SCF iter =    1 RMS gradient =   0.11E-04 energy =        -21.6277456739

  ----------------------------------- OT ---------------------------------------
  Minimizer      : DIIS                : direct inversion
                                         in the iterative subspace
                                         using   7 DIIS vectors
                                         safer DIIS on
  Preconditioner : FULL_ALL            : diagonalization, state selective
  Precond_solver : DEFAULT
  stepsize       :    0.15000000                  energy_gap     :    0.08000000
  eps_taylor     :   0.10000E-15                  max_taylor     :             4
  ----------------------------------- OT ---------------------------------------

  Step     Update method      Time    Convergence         Total energy    Change
  ------------------------------------------------------------------------------
     1 OT DIIS     0.15E+00    2.5     0.00000339       -21.6277457078 -3.38E-08
     2 OT DIIS     0.15E+00    1.2     0.00000149       -21.6277457106 -2.84E-09
     3 OT DIIS     0.15E+00    1.3     0.00000066       -21.6277457112 -6.17E-10
     4 OT DIIS     0.15E+00    1.2     0.00000010       -21.6277457114 -1.30E-10

  *** SCF run converged in     4 steps ***


  Electronic density on regular grids:        -14.0000000000       -0.0000000000
  Core density on regular grids:               14.0000000000       -0.0000000000
  Total charge density on r-space grids:       -0.0000000000
  Total charge density g-space grids:          -0.0000000000

  Overlap energy of the core charge distribution:               0.00000015914966
  Self energy of the core charge distribution:                -50.69216290122669
  Core Hamiltonian energy:                                     11.59885044515192
  Hartree energy:                                              22.61346700293010
  Exchange-correlation energy:                                 -3.97550055316990
  Hartree-Fock Exchange energy:                                -1.17239986418539

  Total energy:                                               -21.62774571135030

  outer SCF iter =    2 RMS gradient =   0.98E-07 energy =        -21.6277457114
  outer SCF loop converged in   2 iterations or   14 steps


 ENERGY| Total FORCE_EVAL ( QS ) energy [a.u.]:              -21.627745711350300

 -------------------------------------------------------------------------------
 -                                                                             -
 -                                DBCSR STATISTICS                             -
 -                                                                             -
 -------------------------------------------------------------------------------
 COUNTER                                    TOTAL       BLAS       SMM       ACC
 flops     7 x     7 x     7                60368       0.0%    100.0%      0.0%
 flops     7 x     7 x    68               773024       0.0%    100.0%      0.0%
 flops    68 x     7 x     7               959616       0.0%    100.0%      0.0%
 flops     7 x     7 x   116              1318688       0.0%    100.0%      0.0%
 flops   116 x     7 x     7              1636992       0.0%    100.0%      0.0%
 flops    68 x    68 x     7              2913120       0.0%    100.0%      0.0%
 flops    68 x   116 x     7              3312960       0.0%    100.0%      0.0%
 flops   116 x    68 x     7              3312960       0.0%    100.0%      0.0%
 flops   116 x   116 x     7              8477280       0.0%    100.0%      0.0%
 flops    68 x     7 x    68             19161856       0.0%    100.0%      0.0%
 flops   116 x     7 x    68             32687872       0.0%    100.0%      0.0%
 flops    68 x     7 x   116             32687872       0.0%    100.0%      0.0%
 flops   116 x     7 x   116             55761664       0.0%    100.0%      0.0%
 flops inhomo. stacks                           0       0.0%      0.0%      0.0%
 flops total                       163.064272E+06       0.0%    100.0%      0.0%
 flops max/rank                     50.021104E+06       0.0%    100.0%      0.0%
 matmuls inhomo. stacks                         0       0.0%      0.0%      0.0%
 matmuls total                               1942       0.0%    100.0%      0.0%
 number of processed stacks                  1942       0.0%    100.0%      0.0%
 average stack size                                     0.0       1.0       0.0
 marketing flops                   173.559200E+06
 -------------------------------------------------------------------------------
 # multiplications                            309
 max memory usage/rank               1.295700E+09
 # max total images/rank                        1
 # max 3D layers                                1
 # MPI messages exchanged                  111240
 MPI messages size (bytes):
  total size                       431.428800E+06
  min size                           0.000000E+00
  max size                         107.648000E+03
  average size                       3.878360E+03
 MPI breakdown and total messages size (bytes):
             size <=      128               98240                        0
       128 < size <=     8192                7080                 30573760
      8192 < size <=    32768                   0                        0
     32768 < size <=   131072                5920                400855040
    131072 < size <=  4194304                   0                        0
   4194304 < size <= 16777216                   0                        0
  16777216 < size                               0                        0
 -------------------------------------------------------------------------------
 -                                                                             -
 -                      DBCSR MESSAGE PASSING PERFORMANCE                      -
 -                                                                             -
 -------------------------------------------------------------------------------
 ROUTINE             CALLS      AVE VOLUME [Bytes]
 MP_Bcast               14                     12.
 MP_Allreduce         1662                      8.
 MP_Alltoall          1386                   4484.
 MP_ISend             7408                   4100.
 MP_IRecv             7408                   2754.
 -------------------------------------------------------------------------------

 -------------------------------------------------------------------------------
 -                                                                             -
 -                                GRID STATISTICS                              -
 -                                                                             -
 -------------------------------------------------------------------------------
 LP    KERNEL    OPERATION                                     COUNT     PERCENT
 0     general   collocate                                       144       0.35%
 0     ortho     integrate                                      2506       6.12%
 0     ortho     collocate                                      2685       6.55%
 1     ortho     integrate                                      3416       8.34%
 1     ortho     collocate                                      3660       8.93%
 2     ortho     integrate                                      2674       6.53%
 2     ortho     collocate                                      2865       6.99%
 3     ortho     integrate                                      2660       6.49%
 3     ortho     collocate                                      2850       6.96%
 4     ortho     integrate                                      3528       8.61%
 4     ortho     collocate                                      3780       9.22%
 5     ortho     integrate                                      2688       6.56%
 5     ortho     collocate                                      2880       7.03%
 6     ortho     integrate                                       672       1.64%
 6     ortho     collocate                                       720       1.76%
 7     ortho     integrate                                       896       2.19%
 7     ortho     collocate                                       960       2.34%
 8     ortho     integrate                                       672       1.64%
 8     ortho     collocate                                       720       1.76%
 -------------------------------------------------------------------------------

 MEMORY| Estimated peak process memory [MiB]                                1236

 -------------------------------------------------------------------------------
 -                                                                             -
 -                         MESSAGE PASSING PERFORMANCE                         -
 -                                                                             -
 -------------------------------------------------------------------------------

 ROUTINE             CALLS      AVE VOLUME [Bytes]
 MP_Group                5
 MP_Bcast              242                 754315.
 MP_Allreduce          716                   1954.
 MP_Sync                91
 MP_Alltoall           286                6171836.
 MP_ISendRecv         4095                 112012.
 MP_Wait              5385
 MP_comm_split          14
 MP_ISend             1200                 291600.
 MP_IRecv             1200                 291600.
 MP_Recv                 3                   5888.
 -------------------------------------------------------------------------------


 -------------------------------------------------------------------------------
 -                                                                             -
 -                           R E F E R E N C E S                               -
 -                                                                             -
 -------------------------------------------------------------------------------
 
 CP2K version 8.0 (Development Version), the CP2K developers group (2020).
 CP2K is freely available from https://www.cp2k.org/ .

 Kuehne,Thomas D.; Iannuzzi,Marcella; Del Ben,Mauro;
 Rybkin,Vladimir V.; Seewald,Patrick; Stein,Frederick; Laino,Teodoro;
 Khaliullin,Rustam Z.; Schuett,Ole; Schiffmann,Florian; Golze,Dorothea;
 Wilhelm,Jan; Chulkov,Sergey; Bani-Hashemian,Mohammad Hossein;
 Weber,Valery; Borstnik,Urban; Taillefumier,Mathieu;
 Jakobovits,Alice Shoshana; Lazzaro,Alfio; Pabst,Hans; Mueller,Tiziano;
 Schade,Robert; Guidon,Manuel; Andermatt,Samuel; Holmberg,Nico;
 Schenter,Gregory K.; Hehn,Anna; Bussy,Augustin; Belleflamme,Fabian;
 Tabacchi,Gloria; Gloess,Andreas; Lass,Michael; Bethune,Iain;
 Mundy,Christopher J.; Plessl,Christian; Watkins,Matt;
 VandeVondele,Joost; Krack,Matthias; Hutter,Juerg. 
 The Journal of Chemical Physics, 152 (19), (2020). 
 CP2K: An electronic structure and molecular dynamics software package -
 Quickstep: Efficient and accurate electronic structure calculations.
 https://doi.org/10.1063/5.0007045

 Schuett, Ole; Messmer, Peter; Hutter, Juerg; VandeVondele, Joost. 
 Electronic Structure Calculations on Graphics Processing Units, John
 Wiley & Sons, Ltd, 173-190 (2016). 
 GPU-Accelerated Sparse Matrix-Matrix Multiplication for
 Linear Scaling Density Functional Theory.
 https://doi.org/10.1002/9781118670712.ch8

 Borstnik, U; VandeVondele, J; Weber, V; Hutter, J. 
 PARALLEL COMPUTING, 40 (5-6), 47-58 (2014). 
 Sparse matrix multiplication: The distributed block-compressed sparse
 row library.
 https://doi.org/10.1016/j.parco.2014.03.012

 Hutter, J; Iannuzzi, M; Schiffmann, F; VandeVondele, J. 
 WIREs Comput Mol Sci., 4 (1), 15-25 (2014). 
 CP2K: atomistic simulations of condensed matter systems.
 https://doi.org/10.1002/wcms.1159

 Marek, A; Blum, V; Johanni, R; Havu, V; Lang, B; Auckenthaler, T;
 Heinecke, A; Bungartz, H; Lederer, H. 
 Journal of Physics: Condensed Matter, 26 (21), (2014). 
 The ELPA library: scalable parallel eigenvalue solutions for
 electronic structure
 theory and computational science.
 https://doi.org/10.1088/0953-8984/26/21/213201

 Guidon, M; Hutter, J; VandeVondele, J. 
 JOURNAL OF CHEMICAL THEORY AND COMPUTATION, 5 (11), 3010-3021 (2009). 
 Robust Periodic Hartree-Fock Exchange for Large-Scale Simulations Using
 Gaussian Basis Sets.
 https://doi.org/10.1021/ct900494g

 Guidon, M; Schiffmann, F; Hutter, J; VandeVondele, J. 
 JOURNAL OF CHEMICAL PHYSICS, 128 (21), 214104 (2008). 
 Ab initio molecular dynamics using hybrid density functionals.
 https://doi.org/10.1063/1.2931945

 Krack, M. 
 THEORETICAL CHEMISTRY ACCOUNTS, 114 (1-3), 145-152 (2005). 
 Pseudopotentials for H to Kr optimized for gradient-corrected
 exchange-correlation functionals.
 https://doi.org/10.1007/s00214-005-0655-y

 VandeVondele, J; Krack, M; Mohamed, F; Parrinello, M; Chassaing, T;
 Hutter, J. COMPUTER PHYSICS COMMUNICATIONS, 167 (2), 103-128 (2005). 
 QUICKSTEP: Fast and accurate density functional calculations using a
 mixed Gaussian and plane waves approach.
 https://doi.org/10.1016/j.cpc.2004.12.014

 Frigo, M; Johnson, SG. 
 PROCEEDINGS OF THE IEEE, 93 (2), 216-231 (2005). 
 The design and implementation of FFTW3.
 https://doi.org/10.1109/JPROC.2004.840301

 VandeVondele, J; Hutter, J. 
 JOURNAL OF CHEMICAL PHYSICS, 118 (10), 4365-4369 (2003). 
 An efficient orbital transformation method for electronic structure
 calculations.
 https://doi.org/10.1063/1.1543154

 Martyna, GJ; Tuckerman, ME. 
 JOURNAL OF CHEMICAL PHYSICS, 110 (6), 2810-2821 (1999). 
 A reciprocal space based method for treating long range interactions in
 ab initio and force-field-based calculations in clusters.
 https://doi.org/10.1063/1.477923

 Hartwigsen, C; Goedecker, S; Hutter, J. 
 PHYSICAL REVIEW B, 58 (7), 3641-3662 (1998). 
 Relativistic separable dual-space Gaussian pseudopotentials from H to Rn.
 https://doi.org/10.1103/PhysRevB.58.3641

 Lippert, G; Hutter, J; Parrinello, M. 
 MOLECULAR PHYSICS, 92 (3), 477-487 (1997). 
 A hybrid Gaussian and plane wave density functional scheme.
 https://doi.org/10.1080/002689797170220

 Perdew, JP; Burke, K; Ernzerhof, M. 
 PHYSICAL REVIEW LETTERS, 77 (18), 3865-3868 (1996). 
 Generalized gradient approximation made simple.
 https://doi.org/10.1103/PhysRevLett.77.3865

 Goedecker, S; Teter, M; Hutter, J. 
 PHYSICAL REVIEW B, 54 (3), 1703-1710 (1996). 
 Separable dual-space Gaussian pseudopotentials.
 https://doi.org/10.1103/PhysRevB.54.1703


 -------------------------------------------------------------------------------
 -                                                                             -
 -                                T I M I N G                                  -
 -                                                                             -
 -------------------------------------------------------------------------------
 SUBROUTINE                       CALLS  ASD         SELF TIME        TOTAL TIME
                                MAXIMUM       AVERAGE  MAXIMUM  AVERAGE  MAXIMUM
 CP2K                                 1  1.0    0.062    0.088   51.772   51.774
 qs_energies                          1  2.0    0.000    0.000   51.464   51.464
 scf_env_do_scf                       1  3.0    0.000    0.000   51.250   51.250
 qs_ks_update_qs_env                 16  5.0    0.000    0.000   49.163   49.164
 rebuild_ks_matrix                   14  6.0    0.000    0.000   49.161   49.163
 qs_ks_build_kohn_sham_matrix        14  7.0    0.002    0.003   49.161   49.163
 hfx_ks_matrix                       14  8.0    0.001    0.001   44.151   44.152
 integrate_four_center               14  9.0    0.013    0.015   44.150   44.151
 init_scf_loop                        2  4.0    0.000    0.000   36.099   36.099
 integrate_four_center_main          14 10.0    0.002    0.003   13.830   22.688
 integrate_four_center_bin         1778 11.0   13.828   22.686   13.828   22.686
 calc_screening_functions             1 10.0   18.549   19.154   19.179   19.783
 scf_env_do_scf_inner_loop           14  4.0    0.000    0.001   15.150   15.150
 mp_sync                             91 10.8    8.928   12.814    8.928   12.814
 pw_transfer                        273  9.6    0.024    0.028    3.388    3.746
 fft_wrap_pw1pw2                    245 10.7    0.003    0.004    3.337    3.704
 fft_wrap_pw1pw2_300                157 11.8    0.173    0.206    3.113    3.473
 qs_vxc_create                       14  8.0    0.000    0.000    3.202    3.211
 xc_vxc_pw_create                    14  9.0    0.025    0.026    3.202    3.211
 fft3d_ps                           245 12.7    1.223    1.293    2.668    3.084
 xc_rho_set_and_dset_create          14 10.0    0.013    0.016    1.875    2.000
 qs_rho_update_rho                   15  5.0    0.000    0.000    1.824    1.825
 calculate_rho_elec                  15  6.0    0.011    0.011    1.824    1.824
 mp_alltoall_z22v                   245 14.7    1.150    1.654    1.150    1.654
 rs_pw_transfer                     117  9.4    0.002    0.003    1.423    1.523
 density_rs2pw                       15  7.0    0.001    0.001    1.309    1.406
 calc_pair_dist_radii                 1 10.0    1.214    1.222    1.390    1.399
 sum_up_and_integrate                14  8.0    0.006    0.008    1.251    1.252
 integrate_v_rspace_low              14  9.0    0.084    0.150    1.245    1.247
 yz_to_x                            118 13.1    0.125    0.148    0.754    1.176
 potential_pw2rs                     14 10.0    0.001    0.001    1.081    1.082
 xc_functional_eval                  14 11.0    0.000    0.000    0.937    1.061
 pbe_lda_eval                        14 12.0    0.936    1.061    0.936    1.061
 -------------------------------------------------------------------------------

 The number of warnings for this run is : 0
 
 -------------------------------------------------------------------------------
  **** **** ******  **  PROGRAM ENDED AT                 2020-11-30 17:32:02.418
 ***** ** ***  *** **   PROGRAM RAN ON                                   tcopt10
 **    ****   ******    PROGRAM RAN BY                                    hutter
 ***** **    ** ** **   PROGRAM PROCESS ID                                 42986
  **** **  *******  **  PROGRAM STOPPED IN /data/hutter/GITHUB/BASIS/MOLOPT/PBE0
                                           /alsipscl
