 DBCSR| CPU Multiplication driver                                           XSMM
 DBCSR| Multrec recursion limit                                              512
 DBCSR| Multiplication stack size                                           1000
 DBCSR| Maximum elements for images                                    UNLIMITED
 DBCSR| Multiplicative factor virtual images                                   1
 DBCSR| Use multiplication densification                                       T
 DBCSR| Multiplication size stacks                                             3
 DBCSR| Use memory pool for CPU allocation                                     F
 DBCSR| Number of 3D layers                                               SINGLE
 DBCSR| Use MPI memory allocation                                              F
 DBCSR| Use RMA algorithm                                                      F
 DBCSR| Use Communication thread                                               T
 DBCSR| Communication thread load                                             87
 DBCSR| Split modifier for TAS multiplication algorithm                  1.0E+00


  **** **** ******  **  PROGRAM STARTED AT               2020-11-30 16:51:08.456
 ***** ** ***  *** **   PROGRAM STARTED ON                               tcopt10
 **    ****   ******    PROGRAM STARTED BY                                hutter
 ***** **    ** ** **   PROGRAM PROCESS ID                                 35707
  **** **  *******  **  PROGRAM STARTED IN /data/hutter/GITHUB/BASIS/MOLOPT/PBE0
                                           /alsipscl

 CP2K| version string:                    CP2K version 8.0 (Development Version)
 CP2K| source code revision number:                                  git:afc71fa
 CP2K| cp2kflags: omp libint fftw3 libxc elpa parallel mpi3 scalapack xsmm spgli
 CP2K|            b sirius
 CP2K| is freely available from                            https://www.cp2k.org/
 CP2K| Program compiled at                          Tue Nov 17 10:27:14 CET 2020
 CP2K| Program compiled on                                               tcopt10
 CP2K| Program compiled for                                                local
 CP2K| Data directory path                 /data/hutter/GITHUB/CURRENT/cp2k/data
 CP2K| Input file name                                               PF5-ref.inp

 GLOBAL| Force Environment number                                              1
 GLOBAL| Basis set file name                                  ../PBE0_UCSEGBASIS
 GLOBAL| Potential file name                                        ../POTENTIAL
 GLOBAL| MM Potential file name                                     MM_POTENTIAL
 GLOBAL| Coordinate file name                                      __STD_INPUT__
 GLOBAL| Method name                                                        CP2K
 GLOBAL| Project name                                                     refPF5
 GLOBAL| Preferred FFT library                                             FFTW3
 GLOBAL| Preferred diagonalization lib.                                     ELPA
 GLOBAL| Run type                                                         ENERGY
 GLOBAL| All-to-all communication in single precision                          F
 GLOBAL| FFTs using library dependent lengths                                  F
 GLOBAL| Global print level                                                  LOW
 GLOBAL| MPI I/O enabled                                                       T
 GLOBAL| Total number of message passing processes                            36
 GLOBAL| Number of threads for this process                                    1
 GLOBAL| This output is from process                                           0
 GLOBAL| CPU model name                          AMD EPYC 7401 24-Core Processor
 GLOBAL| CPUID                                                              1002

 MEMORY| system memory details [Kb]
 MEMORY|                        rank 0           min           max       average
 MEMORY| MemTotal            263987256     263987256     263987256     263987256
 MEMORY| MemFree             258296928     258296928     258296928     258296928
 MEMORY| Buffers                    32            32            32            32
 MEMORY| Cached                1944412       1944412       1944412       1944412
 MEMORY| Slab                   770796        770796        770796        770796
 MEMORY| SReclaimable           277636        277636        277636        277636
 MEMORY| MemLikelyFree       260519008     260519008     260519008     260519008


 GENERATE|  Preliminary Number of Bonds generated:                             0
 GENERATE|  Achieved consistency in connectivity generation.

 *******************************************************************************
 *   ___                                                                       *
 *  /   \                                                                      *
 * [ABORT]                                                                     *
 *  \___/  The requested atomic potential <GTH-PBE-q5> for element <P> was not *
 *    |                 found in the potential file <../POTENTIAL>             *
 *  O/|                                                                        *
 * /| |                                                                        *
 * / \                                  subsys/external_potential_types.F:2325 *
 *******************************************************************************


 ===== Routine Calling Stack ===== 

            3 read_qs_kind
            2 create_qs_kind_set
            1 CP2K
 DBCSR| CPU Multiplication driver                                           XSMM
 DBCSR| Multrec recursion limit                                              512
 DBCSR| Multiplication stack size                                           1000
 DBCSR| Maximum elements for images                                    UNLIMITED
 DBCSR| Multiplicative factor virtual images                                   1
 DBCSR| Use multiplication densification                                       T
 DBCSR| Multiplication size stacks                                             3
 DBCSR| Use memory pool for CPU allocation                                     F
 DBCSR| Number of 3D layers                                               SINGLE
 DBCSR| Use MPI memory allocation                                              F
 DBCSR| Use RMA algorithm                                                      F
 DBCSR| Use Communication thread                                               T
 DBCSR| Communication thread load                                             87
 DBCSR| Split modifier for TAS multiplication algorithm                  1.0E+00


  **** **** ******  **  PROGRAM STARTED AT               2020-11-30 17:32:53.660
 ***** ** ***  *** **   PROGRAM STARTED ON                               tcopt10
 **    ****   ******    PROGRAM STARTED BY                                hutter
 ***** **    ** ** **   PROGRAM PROCESS ID                                 43419
  **** **  *******  **  PROGRAM STARTED IN /data/hutter/GITHUB/BASIS/MOLOPT/PBE0
                                           /alsipscl

 CP2K| version string:                    CP2K version 8.0 (Development Version)
 CP2K| source code revision number:                                  git:afc71fa
 CP2K| cp2kflags: omp libint fftw3 libxc elpa parallel mpi3 scalapack xsmm spgli
 CP2K|            b sirius
 CP2K| is freely available from                            https://www.cp2k.org/
 CP2K| Program compiled at                          Tue Nov 17 10:27:14 CET 2020
 CP2K| Program compiled on                                               tcopt10
 CP2K| Program compiled for                                                local
 CP2K| Data directory path                 /data/hutter/GITHUB/CURRENT/cp2k/data
 CP2K| Input file name                                               PF5-ref.inp

 GLOBAL| Force Environment number                                              1
 GLOBAL| Basis set file name                                  ../PBE0_UCSEGBASIS
 GLOBAL| Potential file name                                        ../POTENTIAL
 GLOBAL| MM Potential file name                                     MM_POTENTIAL
 GLOBAL| Coordinate file name                                      __STD_INPUT__
 GLOBAL| Method name                                                        CP2K
 GLOBAL| Project name                                                     refPF5
 GLOBAL| Preferred FFT library                                             FFTW3
 GLOBAL| Preferred diagonalization lib.                                     ELPA
 GLOBAL| Run type                                                         ENERGY
 GLOBAL| All-to-all communication in single precision                          F
 GLOBAL| FFTs using library dependent lengths                                  F
 GLOBAL| Global print level                                                  LOW
 GLOBAL| MPI I/O enabled                                                       T
 GLOBAL| Total number of message passing processes                            36
 GLOBAL| Number of threads for this process                                    1
 GLOBAL| This output is from process                                           0
 GLOBAL| CPU model name                          AMD EPYC 7401 24-Core Processor
 GLOBAL| CPUID                                                              1002

 MEMORY| system memory details [Kb]
 MEMORY|                        rank 0           min           max       average
 MEMORY| MemTotal            263987256     263987256     263987256     263987256
 MEMORY| MemFree             258446740     258446740     258446740     258446740
 MEMORY| Buffers                    32            32            32            32
 MEMORY| Cached                1963928       1963928       1963928       1963928
 MEMORY| Slab                   772916        772916        772916        772916
 MEMORY| SReclaimable           280988        280988        280988        280988
 MEMORY| MemLikelyFree       260691688     260691688     260691688     260691688


 GENERATE|  Preliminary Number of Bonds generated:                             0
 GENERATE|  Achieved consistency in connectivity generation.

 *******************************************************************************
 *******************************************************************************
 **                                                                           **
 **     #####                         ##              ##                      **
 **    ##   ##            ##          ##              ##                      **
 **   ##     ##                       ##            ######                    **
 **   ##     ##  ##   ##  ##   #####  ##  ##   ####   ##    #####    #####    **
 **   ##     ##  ##   ##  ##  ##      ## ##   ##      ##   ##   ##  ##   ##   **
 **   ##  ## ##  ##   ##  ##  ##      ####     ###    ##   ######   ######    **
 **    ##  ###   ##   ##  ##  ##      ## ##      ##   ##   ##       ##        **
 **     #######   #####   ##   #####  ##  ##  ####    ##    #####   ##        **
 **           ##                                                    ##        **
 **                                                                           **
 **                                                ... make the atoms dance   **
 **                                                                           **
 **            Copyright (C) by CP2K developers group (2000 - 2020)           **
 **                      J. Chem. Phys. 152, 194103 (2020)                    **
 **                                                                           **
 *******************************************************************************


 TOTAL NUMBERS AND MAXIMUM NUMBERS

  Total number of            - Atomic kinds:                                   2
                             - Atoms:                                          6
                             - Shell sets:                                    72
                             - Shells:                                       128
                             - Primitive Cartesian functions:                 72
                             - Cartesian basis functions:                    436
                             - Spherical basis functions:                    376

  Maximum angular momentum of- Orbital basis functions:                        4
                             - Local part of the GTH pseudopotential:          2
                             - Non-local part of the GTH pseudopotential:      2


 SCF PARAMETERS         Density guess:                                    ATOMIC
                        --------------------------------------------------------
                        max_scf:                                              10
                        max_scf_history:                                       0
                        max_diis:                                              4
                        --------------------------------------------------------
                        eps_scf:                                        1.00E-07
                        eps_scf_history:                                0.00E+00
                        eps_diis:                                       1.00E-01
                        eps_eigval:                                     1.00E-05
                        --------------------------------------------------------
                        level_shift [a.u.]:                                 0.00
                        --------------------------------------------------------
                        Outer loop SCF in use 
                        No variables optimised in outer loop
                        eps_scf                                         1.00E-07
                        max_scf                                               10
                        No outer loop optimization
                        step_size                                       5.00E-01

 Number of electrons:                                                         40
 Number of occupied orbitals:                                                 20
 Number of molecular orbitals:                                                20

 Number of orbital functions:                                                376
 Number of independent orbital functions:                                    376

 Extrapolation method: initial_guess


 SCF WAVEFUNCTION OPTIMIZATION

  ----------------------------------- OT ---------------------------------------
  Minimizer      : DIIS                : direct inversion
                                         in the iterative subspace
                                         using   7 DIIS vectors
                                         safer DIIS on
  Preconditioner : FULL_ALL            : diagonalization, state selective
  Precond_solver : DEFAULT
  stepsize       :    0.15000000                  energy_gap     :    0.08000000
  eps_taylor     :   0.10000E-15                  max_taylor     :             4
  ----------------------------------- OT ---------------------------------------

  Step     Update method      Time    Convergence         Total energy    Change
  ------------------------------------------------------------------------------
     1 OT DIIS     0.15E+00   28.6     0.07264668      -123.8129589048 -1.24E+02
     2 OT DIIS     0.15E+00    1.3     0.05867013      -125.7901325269 -1.98E+00
     3 OT DIIS     0.15E+00    1.3     0.03697066      -126.9541451139 -1.16E+00
     4 OT DIIS     0.15E+00    1.3     0.02169749      -127.4830990470 -5.29E-01
     5 OT DIIS     0.15E+00    1.3     0.01427893      -127.7207986114 -2.38E-01
     6 OT DIIS     0.15E+00    1.2     0.01801975      -127.7250254761 -4.23E-03
     7 OT DIIS     0.15E+00    1.2     0.00570407      -127.8209234814 -9.59E-02
     8 OT DIIS     0.15E+00    1.2     0.00365706      -127.8288556413 -7.93E-03
     9 OT DIIS     0.15E+00    1.3     0.00205143      -127.8347853935 -5.93E-03
    10 OT DIIS     0.15E+00    1.2     0.00109115      -127.8369892320 -2.20E-03

  Leaving inner SCF loop after reaching    10 steps.


  Electronic density on regular grids:        -40.0000001462       -0.0000001462
  Core density on regular grids:               40.0000000000       -0.0000000000
  Total charge density on r-space grids:       -0.0000001462
  Total charge density g-space grids:          -0.0000001462

  Overlap energy of the core charge distribution:               0.00000000374914
  Self energy of the core charge distribution:               -345.10357036263974
  Core Hamiltonian energy:                                     94.74311451904869
  Hartree energy:                                             147.65768533107442
  Exchange-correlation energy:                                -19.27180780884603
  Hartree-Fock Exchange energy:                                -5.86241091443006

  Total energy:                                              -127.83698923204358

  outer SCF iter =    1 RMS gradient =   0.11E-02 energy =       -127.8369892320

  ----------------------------------- OT ---------------------------------------
  Minimizer      : DIIS                : direct inversion
                                         in the iterative subspace
                                         using   7 DIIS vectors
                                         safer DIIS on
  Preconditioner : FULL_ALL            : diagonalization, state selective
  Precond_solver : DEFAULT
  stepsize       :    0.15000000                  energy_gap     :    0.08000000
  eps_taylor     :   0.10000E-15                  max_taylor     :             4
  ----------------------------------- OT ---------------------------------------

  Step     Update method      Time    Convergence         Total energy    Change
  ------------------------------------------------------------------------------
     1 OT DIIS     0.15E+00    2.6     0.00070868      -127.8377983088 -8.09E-04
     2 OT DIIS     0.15E+00    1.2     0.00031842      -127.8381923926 -3.94E-04
     3 OT DIIS     0.15E+00    1.3     0.00012406      -127.8382835991 -9.12E-05
     4 OT DIIS     0.15E+00    1.2     0.00001499      -127.8382919724 -8.37E-06
     5 OT DIIS     0.15E+00    1.2     0.00000502      -127.8382921903 -2.18E-07
     6 OT DIIS     0.15E+00    1.2     0.00000143      -127.8382922058 -1.55E-08
     7 OT DIIS     0.15E+00    1.2     0.00000033      -127.8382922074 -1.59E-09
     8 OT DIIS     0.15E+00    1.2     0.00000018      -127.8382922075 -7.83E-11
     9 OT DIIS     0.15E+00    1.2     0.00000010      -127.8382922075 -2.96E-11

  *** SCF run converged in     9 steps ***


  Electronic density on regular grids:        -40.0000001468       -0.0000001468
  Core density on regular grids:               40.0000000000       -0.0000000000
  Total charge density on r-space grids:       -0.0000001468
  Total charge density g-space grids:          -0.0000001468

  Overlap energy of the core charge distribution:               0.00000000374914
  Self energy of the core charge distribution:               -345.10357036263974
  Core Hamiltonian energy:                                     94.72176187359433
  Hartree energy:                                             147.67384504245030
  Exchange-correlation energy:                                -19.26890986417638
  Hartree-Fock Exchange energy:                                -5.86141890047029

  Total energy:                                              -127.83829220749260

  outer SCF iter =    2 RMS gradient =   0.96E-07 energy =       -127.8382922075
  outer SCF loop converged in   2 iterations or   19 steps


 ENERGY| Total FORCE_EVAL ( QS ) energy [a.u.]:             -127.838292207492600

 -------------------------------------------------------------------------------
 -                                                                             -
 -                                DBCSR STATISTICS                             -
 -                                                                             -
 -------------------------------------------------------------------------------
 COUNTER                                    TOTAL       BLAS       SMM       ACC
 flops    20 x    20 x    20              2144000       0.0%    100.0%      0.0%
 flops    20 x    20 x   116              7238400       0.0%    100.0%      0.0%
 flops   116 x    20 x    20              9001600       0.0%    100.0%      0.0%
 flops   116 x    52 x    20              9651200       0.0%    100.0%      0.0%
 flops   116 x   116 x    20             10764800       0.0%    100.0%      0.0%
 flops    52 x   116 x    20             14476800       0.0%    100.0%      0.0%
 flops    20 x    20 x    52             16224000       0.0%    100.0%      0.0%
 flops    52 x    20 x    20             20176000       0.0%    100.0%      0.0%
 flops    52 x    52 x    20             32448000       0.0%    100.0%      0.0%
 flops   116 x    20 x   116             50594560       0.0%    100.0%      0.0%
 flops   116 x    20 x    52            113401600       0.0%    100.0%      0.0%
 flops    52 x    20 x   116            113401600       0.0%    100.0%      0.0%
 flops    52 x    20 x    52            254176000       0.0%    100.0%      0.0%
 flops inhomo. stacks                           0       0.0%      0.0%      0.0%
 flops total                       653.698560E+06       0.0%    100.0%      0.0%
 flops max/rank                    209.368960E+06       0.0%    100.0%      0.0%
 matmuls inhomo. stacks                         0       0.0%      0.0%      0.0%
 matmuls total                               4988       0.0%    100.0%      0.0%
 number of processed stacks                  4988       0.0%    100.0%      0.0%
 average stack size                                     0.0       1.0       0.0
 marketing flops                   700.059776E+06
 -------------------------------------------------------------------------------
 # multiplications                            425
 max memory usage/rank               1.297330E+09
 # max total images/rank                        1
 # max 3D layers                                1
 # MPI messages exchanged                  153000
 MPI messages size (bytes):
  total size                       653.823360E+06
  min size                           0.000000E+00
  max size                         107.648000E+03
  average size                       4.273355E+03
 MPI breakdown and total messages size (bytes):
             size <=      128              122645                        0
       128 < size <=     8192                1825                  5840000
      8192 < size <=    32768               23360                370585600
     32768 < size <=   131072                5170                277397760
    131072 < size <=  4194304                   0                        0
   4194304 < size <= 16777216                   0                        0
  16777216 < size                               0                        0
 -------------------------------------------------------------------------------
 -                                                                             -
 -                      DBCSR MESSAGE PASSING PERFORMANCE                      -
 -                                                                             -
 -------------------------------------------------------------------------------
 ROUTINE             CALLS      AVE VOLUME [Bytes]
 MP_Bcast               14                     12.
 MP_Allreduce         2289                      8.
 MP_Alltoall          1688                   4877.
 MP_ISend            10192                   4466.
 MP_IRecv            10192                   3303.
 -------------------------------------------------------------------------------

 -------------------------------------------------------------------------------
 -                                                                             -
 -                                GRID STATISTICS                              -
 -                                                                             -
 -------------------------------------------------------------------------------
 LP    KERNEL    OPERATION                                     COUNT     PERCENT
 0     general   collocate                                       216       0.20%
 2     ortho     integrate                                     22268      20.50%
 2     ortho     collocate                                     23440      21.58%
 3     ortho     integrate                                     19988      18.40%
 3     ortho     collocate                                     21040      19.37%
 4     ortho     integrate                                      4484       4.13%
 4     ortho     collocate                                      4720       4.34%
 5     ortho     integrate                                      4256       3.92%
 5     ortho     collocate                                      4480       4.12%
 6     ortho     integrate                                      1520       1.40%
 6     ortho     collocate                                      1600       1.47%
 8     ortho     integrate                                       304       0.28%
 8     ortho     collocate                                       320       0.29%
 -------------------------------------------------------------------------------

 MEMORY| Estimated peak process memory [MiB]                                1238

 -------------------------------------------------------------------------------
 -                                                                             -
 -                         MESSAGE PASSING PERFORMANCE                         -
 -                                                                             -
 -------------------------------------------------------------------------------

 ROUTINE             CALLS      AVE VOLUME [Bytes]
 MP_Group                5
 MP_Bcast              470                 388540.
 MP_Allreduce         1286                   1145.
 MP_Sync               116
 MP_Alltoall           381                6216154.
 MP_ISendRecv         5495                 112490.
 MP_Wait              7215
 MP_comm_split          14
 MP_ISend             1600                 278784.
 MP_IRecv             1600                 278784.
 MP_Recv                 4                  12032.
 -------------------------------------------------------------------------------


 -------------------------------------------------------------------------------
 -                                                                             -
 -                           R E F E R E N C E S                               -
 -                                                                             -
 -------------------------------------------------------------------------------
 
 CP2K version 8.0 (Development Version), the CP2K developers group (2020).
 CP2K is freely available from https://www.cp2k.org/ .

 Kuehne,Thomas D.; Iannuzzi,Marcella; Del Ben,Mauro;
 Rybkin,Vladimir V.; Seewald,Patrick; Stein,Frederick; Laino,Teodoro;
 Khaliullin,Rustam Z.; Schuett,Ole; Schiffmann,Florian; Golze,Dorothea;
 Wilhelm,Jan; Chulkov,Sergey; Bani-Hashemian,Mohammad Hossein;
 Weber,Valery; Borstnik,Urban; Taillefumier,Mathieu;
 Jakobovits,Alice Shoshana; Lazzaro,Alfio; Pabst,Hans; Mueller,Tiziano;
 Schade,Robert; Guidon,Manuel; Andermatt,Samuel; Holmberg,Nico;
 Schenter,Gregory K.; Hehn,Anna; Bussy,Augustin; Belleflamme,Fabian;
 Tabacchi,Gloria; Gloess,Andreas; Lass,Michael; Bethune,Iain;
 Mundy,Christopher J.; Plessl,Christian; Watkins,Matt;
 VandeVondele,Joost; Krack,Matthias; Hutter,Juerg. 
 The Journal of Chemical Physics, 152 (19), (2020). 
 CP2K: An electronic structure and molecular dynamics software package -
 Quickstep: Efficient and accurate electronic structure calculations.
 https://doi.org/10.1063/5.0007045

 Schuett, Ole; Messmer, Peter; Hutter, Juerg; VandeVondele, Joost. 
 Electronic Structure Calculations on Graphics Processing Units, John
 Wiley & Sons, Ltd, 173-190 (2016). 
 GPU-Accelerated Sparse Matrix-Matrix Multiplication for
 Linear Scaling Density Functional Theory.
 https://doi.org/10.1002/9781118670712.ch8

 Borstnik, U; VandeVondele, J; Weber, V; Hutter, J. 
 PARALLEL COMPUTING, 40 (5-6), 47-58 (2014). 
 Sparse matrix multiplication: The distributed block-compressed sparse
 row library.
 https://doi.org/10.1016/j.parco.2014.03.012

 Hutter, J; Iannuzzi, M; Schiffmann, F; VandeVondele, J. 
 WIREs Comput Mol Sci., 4 (1), 15-25 (2014). 
 CP2K: atomistic simulations of condensed matter systems.
 https://doi.org/10.1002/wcms.1159

 Marek, A; Blum, V; Johanni, R; Havu, V; Lang, B; Auckenthaler, T;
 Heinecke, A; Bungartz, H; Lederer, H. 
 Journal of Physics: Condensed Matter, 26 (21), (2014). 
 The ELPA library: scalable parallel eigenvalue solutions for
 electronic structure
 theory and computational science.
 https://doi.org/10.1088/0953-8984/26/21/213201

 Guidon, M; Hutter, J; VandeVondele, J. 
 JOURNAL OF CHEMICAL THEORY AND COMPUTATION, 5 (11), 3010-3021 (2009). 
 Robust Periodic Hartree-Fock Exchange for Large-Scale Simulations Using
 Gaussian Basis Sets.
 https://doi.org/10.1021/ct900494g

 Guidon, M; Schiffmann, F; Hutter, J; VandeVondele, J. 
 JOURNAL OF CHEMICAL PHYSICS, 128 (21), 214104 (2008). 
 Ab initio molecular dynamics using hybrid density functionals.
 https://doi.org/10.1063/1.2931945

 Krack, M. 
 THEORETICAL CHEMISTRY ACCOUNTS, 114 (1-3), 145-152 (2005). 
 Pseudopotentials for H to Kr optimized for gradient-corrected
 exchange-correlation functionals.
 https://doi.org/10.1007/s00214-005-0655-y

 VandeVondele, J; Krack, M; Mohamed, F; Parrinello, M; Chassaing, T;
 Hutter, J. COMPUTER PHYSICS COMMUNICATIONS, 167 (2), 103-128 (2005). 
 QUICKSTEP: Fast and accurate density functional calculations using a
 mixed Gaussian and plane waves approach.
 https://doi.org/10.1016/j.cpc.2004.12.014

 Frigo, M; Johnson, SG. 
 PROCEEDINGS OF THE IEEE, 93 (2), 216-231 (2005). 
 The design and implementation of FFTW3.
 https://doi.org/10.1109/JPROC.2004.840301

 VandeVondele, J; Hutter, J. 
 JOURNAL OF CHEMICAL PHYSICS, 118 (10), 4365-4369 (2003). 
 An efficient orbital transformation method for electronic structure
 calculations.
 https://doi.org/10.1063/1.1543154

 Martyna, GJ; Tuckerman, ME. 
 JOURNAL OF CHEMICAL PHYSICS, 110 (6), 2810-2821 (1999). 
 A reciprocal space based method for treating long range interactions in
 ab initio and force-field-based calculations in clusters.
 https://doi.org/10.1063/1.477923

 Hartwigsen, C; Goedecker, S; Hutter, J. 
 PHYSICAL REVIEW B, 58 (7), 3641-3662 (1998). 
 Relativistic separable dual-space Gaussian pseudopotentials from H to Rn.
 https://doi.org/10.1103/PhysRevB.58.3641

 Lippert, G; Hutter, J; Parrinello, M. 
 MOLECULAR PHYSICS, 92 (3), 477-487 (1997). 
 A hybrid Gaussian and plane wave density functional scheme.
 https://doi.org/10.1080/002689797170220

 Perdew, JP; Burke, K; Ernzerhof, M. 
 PHYSICAL REVIEW LETTERS, 77 (18), 3865-3868 (1996). 
 Generalized gradient approximation made simple.
 https://doi.org/10.1103/PhysRevLett.77.3865

 Goedecker, S; Teter, M; Hutter, J. 
 PHYSICAL REVIEW B, 54 (3), 1703-1710 (1996). 
 Separable dual-space Gaussian pseudopotentials.
 https://doi.org/10.1103/PhysRevB.54.1703


 -------------------------------------------------------------------------------
 -                                                                             -
 -                                T I M I N G                                  -
 -                                                                             -
 -------------------------------------------------------------------------------
 SUBROUTINE                       CALLS  ASD         SELF TIME        TOTAL TIME
                                MAXIMUM       AVERAGE  MAXIMUM  AVERAGE  MAXIMUM
 CP2K                                 1  1.0    0.055    0.083   51.988   52.003
 qs_energies                          1  2.0    0.000    0.000   51.682   51.696
 scf_env_do_scf                       1  3.0    0.000    0.000   51.462   51.476
 qs_ks_update_qs_env                 21  5.0    0.000    0.000   48.523   48.535
 rebuild_ks_matrix                   19  6.0    0.000    0.000   48.520   48.533
 qs_ks_build_kohn_sham_matrix        19  7.0    0.003    0.004   48.520   48.532
 hfx_ks_matrix                       19  8.0    0.001    0.001   41.469   41.479
 integrate_four_center               19  9.0    0.017    0.020   41.467   41.478
 init_scf_loop                        2  4.0    0.000    0.000   29.790   29.798
 integrate_four_center_main          19 10.0    0.003    0.004   14.257   25.488
 integrate_four_center_bin         2337 11.0   14.254   25.486   14.254   25.486
 scf_env_do_scf_inner_loop           19  4.0    0.001    0.002   21.671   21.677
 calc_screening_functions             1 10.0   12.960   13.560   13.687   14.287
 mp_sync                            116 10.8   11.242   12.909   11.242   12.909
 pw_transfer                        368  9.6    0.032    0.038    4.628    5.337
 fft_wrap_pw1pw2                    330 10.7    0.004    0.006    4.560    5.281
 fft_wrap_pw1pw2_300                212 11.8    0.232    0.276    4.290    5.001
 fft3d_ps                           330 12.7    1.640    1.722    3.664    4.431
 qs_vxc_create                       19  8.0    0.000    0.001    4.279    4.289
 xc_vxc_pw_create                    19  9.0    0.033    0.035    4.279    4.289
 xc_rho_set_and_dset_create          19 10.0    0.018    0.021    2.373    2.686
 qs_rho_update_rho                   20  5.0    0.000    0.000    2.537    2.538
 calculate_rho_elec                  20  6.0    0.015    0.015    2.537    2.538
 mp_alltoall_z22v                   330 14.7    1.633    2.513    1.633    2.513
 rs_pw_transfer                     157  9.4    0.003    0.004    1.960    2.162
 sum_up_and_integrate                19  8.0    0.007    0.010    2.090    2.091
 integrate_v_rspace_low              19  9.0    0.138    0.621    2.082    2.085
 density_rs2pw                       20  7.0    0.001    0.001    1.829    2.023
 yz_to_x                            158 13.1    0.161    0.184    1.120    1.896
 potential_pw2rs                     19 10.0    0.002    0.002    1.445    1.448
 xc_functional_eval                  19 11.0    0.000    0.000    1.101    1.416
 pbe_lda_eval                        19 12.0    1.100    1.416    1.100    1.416
 calc_pair_dist_radii                 1 10.0    1.080    1.088    1.270    1.279
 mp_sum_l                          2133 10.7    0.765    1.133    0.765    1.133
 integrate_four_center_load          19 10.0    0.000    0.000    0.757    1.079
 hfx_load_balance                     1 11.0    0.000    0.000    0.757    1.079
 -------------------------------------------------------------------------------

 The number of warnings for this run is : 0
 
 -------------------------------------------------------------------------------
  **** **** ******  **  PROGRAM ENDED AT                 2020-11-30 17:33:46.382
 ***** ** ***  *** **   PROGRAM RAN ON                                   tcopt10
 **    ****   ******    PROGRAM RAN BY                                    hutter
 ***** **    ** ** **   PROGRAM PROCESS ID                                 43419
  **** **  *******  **  PROGRAM STOPPED IN /data/hutter/GITHUB/BASIS/MOLOPT/PBE0
                                           /alsipscl
