 DBCSR| CPU Multiplication driver                                           XSMM
 DBCSR| Multrec recursion limit                                              512
 DBCSR| Multiplication stack size                                           1000
 DBCSR| Maximum elements for images                                    UNLIMITED
 DBCSR| Multiplicative factor virtual images                                   1
 DBCSR| Use multiplication densification                                       T
 DBCSR| Multiplication size stacks                                             3
 DBCSR| Use memory pool for CPU allocation                                     F
 DBCSR| Number of 3D layers                                               SINGLE
 DBCSR| Use MPI memory allocation                                              F
 DBCSR| Use RMA algorithm                                                      F
 DBCSR| Use Communication thread                                               T
 DBCSR| Communication thread load                                             87
 DBCSR| Split modifier for TAS multiplication algorithm                  1.0E+00


  **** **** ******  **  PROGRAM STARTED AT               2020-11-30 16:51:09.277
 ***** ** ***  *** **   PROGRAM STARTED ON                               tcopt10
 **    ****   ******    PROGRAM STARTED BY                                hutter
 ***** **    ** ** **   PROGRAM PROCESS ID                                 35858
  **** **  *******  **  PROGRAM STARTED IN /data/hutter/GITHUB/BASIS/MOLOPT/PBE0
                                           /alsipscl

 CP2K| version string:                    CP2K version 8.0 (Development Version)
 CP2K| source code revision number:                                  git:afc71fa
 CP2K| cp2kflags: omp libint fftw3 libxc elpa parallel mpi3 scalapack xsmm spgli
 CP2K|            b sirius
 CP2K| is freely available from                            https://www.cp2k.org/
 CP2K| Program compiled at                          Tue Nov 17 10:27:14 CET 2020
 CP2K| Program compiled on                                               tcopt10
 CP2K| Program compiled for                                                local
 CP2K| Data directory path                 /data/hutter/GITHUB/CURRENT/cp2k/data
 CP2K| Input file name                                               PH3-ref.inp

 GLOBAL| Force Environment number                                              1
 GLOBAL| Basis set file name                                  ../PBE0_UCSEGBASIS
 GLOBAL| Potential file name                                        ../POTENTIAL
 GLOBAL| MM Potential file name                                     MM_POTENTIAL
 GLOBAL| Coordinate file name                                      __STD_INPUT__
 GLOBAL| Method name                                                        CP2K
 GLOBAL| Project name                                                     refPH3
 GLOBAL| Preferred FFT library                                             FFTW3
 GLOBAL| Preferred diagonalization lib.                                     ELPA
 GLOBAL| Run type                                                         ENERGY
 GLOBAL| All-to-all communication in single precision                          F
 GLOBAL| FFTs using library dependent lengths                                  F
 GLOBAL| Global print level                                                  LOW
 GLOBAL| MPI I/O enabled                                                       T
 GLOBAL| Total number of message passing processes                            36
 GLOBAL| Number of threads for this process                                    1
 GLOBAL| This output is from process                                           0
 GLOBAL| CPU model name                          AMD EPYC 7401 24-Core Processor
 GLOBAL| CPUID                                                              1002

 MEMORY| system memory details [Kb]
 MEMORY|                        rank 0           min           max       average
 MEMORY| MemTotal            263987256     263987256     263987256     263987256
 MEMORY| MemFree             258296444     258296444     258296444     258296444
 MEMORY| Buffers                    32            32            32            32
 MEMORY| Cached                1944596       1944596       1944596       1944596
 MEMORY| Slab                   770900        770900        770900        770900
 MEMORY| SReclaimable           277316        277316        277316        277316
 MEMORY| MemLikelyFree       260518388     260518388     260518388     260518388


 GENERATE|  Preliminary Number of Bonds generated:                             2
 GENERATE|  Achieved consistency in connectivity generation.
 GENERATE|  Number of Bonds generated:                                         2
 GENERATE|  Preliminary Number of Bends generated:                             1
 GENERATE|  Number of Bends generated:                                         1
 GENERATE|  Number of UB generated:                                            1
 GENERATE|  Preliminary Number of Torsions generated:                          0

 *******************************************************************************
 *   ___                                                                       *
 *  /   \                                                                      *
 * [ABORT]                                                                     *
 *  \___/  The requested atomic potential <GTH-PBE-q5> for element <P> was not *
 *    |                 found in the potential file <../POTENTIAL>             *
 *  O/|                                                                        *
 * /| |                                                                        *
 * / \                                  subsys/external_potential_types.F:2325 *
 *******************************************************************************


 ===== Routine Calling Stack ===== 

            3 read_qs_kind
            2 create_qs_kind_set
            1 CP2K
 DBCSR| CPU Multiplication driver                                           XSMM
 DBCSR| Multrec recursion limit                                              512
 DBCSR| Multiplication stack size                                           1000
 DBCSR| Maximum elements for images                                    UNLIMITED
 DBCSR| Multiplicative factor virtual images                                   1
 DBCSR| Use multiplication densification                                       T
 DBCSR| Multiplication size stacks                                             3
 DBCSR| Use memory pool for CPU allocation                                     F
 DBCSR| Number of 3D layers                                               SINGLE
 DBCSR| Use MPI memory allocation                                              F
 DBCSR| Use RMA algorithm                                                      F
 DBCSR| Use Communication thread                                               T
 DBCSR| Communication thread load                                             87
 DBCSR| Split modifier for TAS multiplication algorithm                  1.0E+00


  **** **** ******  **  PROGRAM STARTED AT               2020-11-30 17:33:46.621
 ***** ** ***  *** **   PROGRAM STARTED ON                               tcopt10
 **    ****   ******    PROGRAM STARTED BY                                hutter
 ***** **    ** ** **   PROGRAM PROCESS ID                                 43631
  **** **  *******  **  PROGRAM STARTED IN /data/hutter/GITHUB/BASIS/MOLOPT/PBE0
                                           /alsipscl

 CP2K| version string:                    CP2K version 8.0 (Development Version)
 CP2K| source code revision number:                                  git:afc71fa
 CP2K| cp2kflags: omp libint fftw3 libxc elpa parallel mpi3 scalapack xsmm spgli
 CP2K|            b sirius
 CP2K| is freely available from                            https://www.cp2k.org/
 CP2K| Program compiled at                          Tue Nov 17 10:27:14 CET 2020
 CP2K| Program compiled on                                               tcopt10
 CP2K| Program compiled for                                                local
 CP2K| Data directory path                 /data/hutter/GITHUB/CURRENT/cp2k/data
 CP2K| Input file name                                               PH3-ref.inp

 GLOBAL| Force Environment number                                              1
 GLOBAL| Basis set file name                                  ../PBE0_UCSEGBASIS
 GLOBAL| Potential file name                                        ../POTENTIAL
 GLOBAL| MM Potential file name                                     MM_POTENTIAL
 GLOBAL| Coordinate file name                                      __STD_INPUT__
 GLOBAL| Method name                                                        CP2K
 GLOBAL| Project name                                                     refPH3
 GLOBAL| Preferred FFT library                                             FFTW3
 GLOBAL| Preferred diagonalization lib.                                     ELPA
 GLOBAL| Run type                                                         ENERGY
 GLOBAL| All-to-all communication in single precision                          F
 GLOBAL| FFTs using library dependent lengths                                  F
 GLOBAL| Global print level                                                  LOW
 GLOBAL| MPI I/O enabled                                                       T
 GLOBAL| Total number of message passing processes                            36
 GLOBAL| Number of threads for this process                                    1
 GLOBAL| This output is from process                                           0
 GLOBAL| CPU model name                          AMD EPYC 7401 24-Core Processor
 GLOBAL| CPUID                                                              1002

 MEMORY| system memory details [Kb]
 MEMORY|                        rank 0           min           max       average
 MEMORY| MemTotal            263987256     263987256     263987256     263987256
 MEMORY| MemFree             258455496     258455496     258455496     258455496
 MEMORY| Buffers                    32            32            32            32
 MEMORY| Cached                1963444       1963444       1963444       1963444
 MEMORY| Slab                   772716        772716        772716        772716
 MEMORY| SReclaimable           280956        280956        280956        280956
 MEMORY| MemLikelyFree       260699928     260699928     260699928     260699928


 GENERATE|  Preliminary Number of Bonds generated:                             2
 GENERATE|  Achieved consistency in connectivity generation.
 GENERATE|  Number of Bonds generated:                                         2
 GENERATE|  Preliminary Number of Bends generated:                             1
 GENERATE|  Number of Bends generated:                                         1
 GENERATE|  Number of UB generated:                                            1
 GENERATE|  Preliminary Number of Torsions generated:                          0

 *******************************************************************************
 *******************************************************************************
 **                                                                           **
 **     #####                         ##              ##                      **
 **    ##   ##            ##          ##              ##                      **
 **   ##     ##                       ##            ######                    **
 **   ##     ##  ##   ##  ##   #####  ##  ##   ####   ##    #####    #####    **
 **   ##     ##  ##   ##  ##  ##      ## ##   ##      ##   ##   ##  ##   ##   **
 **   ##  ## ##  ##   ##  ##  ##      ####     ###    ##   ######   ######    **
 **    ##  ###   ##   ##  ##  ##      ## ##      ##   ##   ##       ##        **
 **     #######   #####   ##   #####  ##  ##  ####    ##    #####   ##        **
 **           ##                                                    ##        **
 **                                                                           **
 **                                                ... make the atoms dance   **
 **                                                                           **
 **            Copyright (C) by CP2K developers group (2000 - 2020)           **
 **                      J. Chem. Phys. 152, 194103 (2020)                    **
 **                                                                           **
 *******************************************************************************


 TOTAL NUMBERS AND MAXIMUM NUMBERS

  Total number of            - Atomic kinds:                                   2
                             - Atoms:                                          4
                             - Shell sets:                                    48
                             - Shells:                                        88
                             - Primitive Cartesian functions:                 48
                             - Cartesian basis functions:                    408
                             - Spherical basis functions:                    320

  Maximum angular momentum of- Orbital basis functions:                        4
                             - Local part of the GTH pseudopotential:          2
                             - Non-local part of the GTH pseudopotential:      2


 SCF PARAMETERS         Density guess:                                    ATOMIC
                        --------------------------------------------------------
                        max_scf:                                              10
                        max_scf_history:                                       0
                        max_diis:                                              4
                        --------------------------------------------------------
                        eps_scf:                                        1.00E-07
                        eps_scf_history:                                0.00E+00
                        eps_diis:                                       1.00E-01
                        eps_eigval:                                     1.00E-05
                        --------------------------------------------------------
                        level_shift [a.u.]:                                 0.00
                        --------------------------------------------------------
                        Outer loop SCF in use 
                        No variables optimised in outer loop
                        eps_scf                                         1.00E-07
                        max_scf                                               10
                        No outer loop optimization
                        step_size                                       5.00E-01

 Number of electrons:                                                          8
 Number of occupied orbitals:                                                  4
 Number of molecular orbitals:                                                 4

 Number of orbital functions:                                                320
 Number of independent orbital functions:                                    320

 Extrapolation method: initial_guess


 SCF WAVEFUNCTION OPTIMIZATION

  ----------------------------------- OT ---------------------------------------
  Minimizer      : DIIS                : direct inversion
                                         in the iterative subspace
                                         using   7 DIIS vectors
                                         safer DIIS on
  Preconditioner : FULL_ALL            : diagonalization, state selective
  Precond_solver : DEFAULT
  stepsize       :    0.15000000                  energy_gap     :    0.08000000
  eps_taylor     :   0.10000E-15                  max_taylor     :             4
  ----------------------------------- OT ---------------------------------------

  Step     Update method      Time    Convergence         Total energy    Change
  ------------------------------------------------------------------------------
     1 OT DIIS     0.15E+00   34.1     0.09594218        -7.0714122556 -7.07E+00
     2 OT DIIS     0.15E+00    1.3     0.12907775        -7.4827502201 -4.11E-01
     3 OT DIIS     0.15E+00    1.3     0.03514214        -8.2504740228 -7.68E-01
     4 OT DIIS     0.15E+00    1.2     0.02570541        -8.3322081488 -8.17E-02
     5 OT DIIS     0.15E+00    1.2     0.01300536        -8.3537214667 -2.15E-02
     6 OT DIIS     0.15E+00    1.2     0.00888751        -8.3611200591 -7.40E-03
     7 OT DIIS     0.15E+00    1.2     0.00422712        -8.3632732807 -2.15E-03
     8 OT DIIS     0.15E+00    1.2     0.00139488        -8.3642776279 -1.00E-03
     9 OT DIIS     0.15E+00    1.3     0.00046265        -8.3644727619 -1.95E-04
    10 OT DIIS     0.15E+00    1.2     0.00023514        -8.3645015882 -2.88E-05

  Leaving inner SCF loop after reaching    10 steps.


  Electronic density on regular grids:         -8.0000000000       -0.0000000000
  Core density on regular grids:                8.0000000000       -0.0000000000
  Total charge density on r-space grids:       -0.0000000000
  Total charge density g-space grids:          -0.0000000000

  Overlap energy of the core charge distribution:               0.00000001500187
  Self energy of the core charge distribution:                -21.35055622929858
  Core Hamiltonian energy:                                      4.96502689146000
  Hartree energy:                                              10.71152913580219
  Exchange-correlation energy:                                 -2.07358157823038
  Hartree-Fock Exchange energy:                                -0.61691982290850

  Total energy:                                                -8.36450158817340

  outer SCF iter =    1 RMS gradient =   0.24E-03 energy =         -8.3645015882

  ----------------------------------- OT ---------------------------------------
  Minimizer      : DIIS                : direct inversion
                                         in the iterative subspace
                                         using   7 DIIS vectors
                                         safer DIIS on
  Preconditioner : FULL_ALL            : diagonalization, state selective
  Precond_solver : DEFAULT
  stepsize       :    0.15000000                  energy_gap     :    0.08000000
  eps_taylor     :   0.10000E-15                  max_taylor     :             4
  ----------------------------------- OT ---------------------------------------

  Step     Update method      Time    Convergence         Total energy    Change
  ------------------------------------------------------------------------------
     1 OT DIIS     0.15E+00    2.5     0.00011515        -8.3645087642 -7.18E-06
     2 OT DIIS     0.15E+00    1.2     0.00004642        -8.3645105269 -1.76E-06
     3 OT DIIS     0.15E+00    1.2     0.00000559        -8.3645108818 -3.55E-07
     4 OT DIIS     0.15E+00    1.3     0.00000122        -8.3645108867 -4.88E-09
     5 OT DIIS     0.15E+00    1.2     0.00000034        -8.3645108870 -2.36E-10
     6 OT DIIS     0.15E+00    1.2     0.00000006        -8.3645108870 -2.02E-11

  *** SCF run converged in     6 steps ***


  Electronic density on regular grids:         -8.0000000000       -0.0000000000
  Core density on regular grids:                8.0000000000       -0.0000000000
  Total charge density on r-space grids:       -0.0000000000
  Total charge density g-space grids:          -0.0000000000

  Overlap energy of the core charge distribution:               0.00000001500187
  Self energy of the core charge distribution:                -21.35055622929858
  Core Hamiltonian energy:                                      4.96442788187446
  Hartree energy:                                              10.71192777810732
  Exchange-correlation energy:                                 -2.07343649010357
  Hartree-Fock Exchange energy:                                -0.61687384255775

  Total energy:                                                -8.36451088697625

  outer SCF iter =    2 RMS gradient =   0.64E-07 energy =         -8.3645108870
  outer SCF loop converged in   2 iterations or   16 steps


 ENERGY| Total FORCE_EVAL ( QS ) energy [a.u.]:               -8.364510886976252

 -------------------------------------------------------------------------------
 -                                                                             -
 -                                DBCSR STATISTICS                             -
 -                                                                             -
 -------------------------------------------------------------------------------
 COUNTER                                    TOTAL       BLAS       SMM       ACC
 flops     4 x     4 x     4                14848       0.0%    100.0%      0.0%
 flops     4 x     4 x   116               244992       0.0%    100.0%      0.0%
 flops   116 x     4 x     4               304384       0.0%    100.0%      0.0%
 flops     4 x     4 x    68               430848       0.0%    100.0%      0.0%
 flops    68 x     4 x     4               535296       0.0%    100.0%      0.0%
 flops   116 x    68 x     4              1072768       0.0%    100.0%      0.0%
 flops   116 x   116 x     4              1830016       0.0%    100.0%      0.0%
 flops    68 x   116 x     4              2145536       0.0%    100.0%      0.0%
 flops    68 x    68 x     4              3773184       0.0%    100.0%      0.0%
 flops   116 x     4 x   116              8827136       0.0%    100.0%      0.0%
 flops   116 x     4 x    68             15523584       0.0%    100.0%      0.0%
 flops    68 x     4 x   116             15523584       0.0%    100.0%      0.0%
 flops    68 x     4 x    68             27300096       0.0%    100.0%      0.0%
 flops inhomo. stacks                           0       0.0%      0.0%      0.0%
 flops total                        77.526272E+06       0.0%    100.0%      0.0%
 flops max/rank                     27.175808E+06       0.0%    100.0%      0.0%
 matmuls inhomo. stacks                         0       0.0%      0.0%      0.0%
 matmuls total                               2190       0.0%    100.0%      0.0%
 number of processed stacks                  2190       0.0%    100.0%      0.0%
 average stack size                                     0.0       1.0       0.0
 marketing flops                    82.651600E+06
 -------------------------------------------------------------------------------
 # multiplications                            365
 max memory usage/rank               1.303392E+09
 # max total images/rank                        1
 # max 3D layers                                1
 # MPI messages exchanged                  131400
 MPI messages size (bytes):
  total size                       352.968960E+06
  min size                           0.000000E+00
  max size                         107.648000E+03
  average size                       2.686217E+03
 MPI breakdown and total messages size (bytes):
             size <=      128              118240                   200960
       128 < size <=     8192                6600                 16896000
      8192 < size <=    32768                   0                        0
     32768 < size <=   131072                6560                335872000
    131072 < size <=  4194304                   0                        0
   4194304 < size <= 16777216                   0                        0
  16777216 < size                               0                        0
 -------------------------------------------------------------------------------
 -                                                                             -
 -                      DBCSR MESSAGE PASSING PERFORMANCE                      -
 -                                                                             -
 -------------------------------------------------------------------------------
 ROUTINE             CALLS      AVE VOLUME [Bytes]
 MP_Bcast               14                     12.
 MP_Allreduce         1959                      8.
 MP_Alltoall          1526                   3968.
 MP_ISend             8752                   3144.
 MP_IRecv             8752                   1990.
 -------------------------------------------------------------------------------

 -------------------------------------------------------------------------------
 -                                                                             -
 -                                GRID STATISTICS                              -
 -                                                                             -
 -------------------------------------------------------------------------------
 LP    KERNEL    OPERATION                                     COUNT     PERCENT
 0     general   collocate                                       144       0.31%
 0     ortho     integrate                                      5856      12.44%
 0     ortho     collocate                                      6222      13.22%
 1     ortho     integrate                                      3072       6.53%
 1     ortho     collocate                                      3264       6.93%
 2     ortho     integrate                                      1024       2.18%
 2     ortho     collocate                                      1088       2.31%
 3     ortho     integrate                                      6144      13.05%
 3     ortho     collocate                                      6528      13.87%
 4     ortho     integrate                                      3072       6.53%
 4     ortho     collocate                                      3264       6.93%
 5     ortho     integrate                                      1024       2.18%
 5     ortho     collocate                                      1088       2.31%
 6     ortho     integrate                                      1536       3.26%
 6     ortho     collocate                                      1632       3.47%
 7     ortho     integrate                                       768       1.63%
 7     ortho     collocate                                       816       1.73%
 8     ortho     integrate                                       256       0.54%
 8     ortho     collocate                                       272       0.58%
 -------------------------------------------------------------------------------

 MEMORY| Estimated peak process memory [MiB]                                1244

 -------------------------------------------------------------------------------
 -                                                                             -
 -                         MESSAGE PASSING PERFORMANCE                         -
 -                                                                             -
 -------------------------------------------------------------------------------

 ROUTINE             CALLS      AVE VOLUME [Bytes]
 MP_Group                5
 MP_Bcast              190                 960831.
 MP_Allreduce          586                   2373.
 MP_Sync               101
 MP_Alltoall           324                6197863.
 MP_ISendRecv         4655                 112238.
 MP_Wait              6117
 MP_comm_split          14
 MP_ISend             1360                 278784.
 MP_IRecv             1360                 278784.
 MP_Recv                 3                   2560.
 -------------------------------------------------------------------------------


 -------------------------------------------------------------------------------
 -                                                                             -
 -                           R E F E R E N C E S                               -
 -                                                                             -
 -------------------------------------------------------------------------------
 
 CP2K version 8.0 (Development Version), the CP2K developers group (2020).
 CP2K is freely available from https://www.cp2k.org/ .

 Kuehne,Thomas D.; Iannuzzi,Marcella; Del Ben,Mauro;
 Rybkin,Vladimir V.; Seewald,Patrick; Stein,Frederick; Laino,Teodoro;
 Khaliullin,Rustam Z.; Schuett,Ole; Schiffmann,Florian; Golze,Dorothea;
 Wilhelm,Jan; Chulkov,Sergey; Bani-Hashemian,Mohammad Hossein;
 Weber,Valery; Borstnik,Urban; Taillefumier,Mathieu;
 Jakobovits,Alice Shoshana; Lazzaro,Alfio; Pabst,Hans; Mueller,Tiziano;
 Schade,Robert; Guidon,Manuel; Andermatt,Samuel; Holmberg,Nico;
 Schenter,Gregory K.; Hehn,Anna; Bussy,Augustin; Belleflamme,Fabian;
 Tabacchi,Gloria; Gloess,Andreas; Lass,Michael; Bethune,Iain;
 Mundy,Christopher J.; Plessl,Christian; Watkins,Matt;
 VandeVondele,Joost; Krack,Matthias; Hutter,Juerg. 
 The Journal of Chemical Physics, 152 (19), (2020). 
 CP2K: An electronic structure and molecular dynamics software package -
 Quickstep: Efficient and accurate electronic structure calculations.
 https://doi.org/10.1063/5.0007045

 Schuett, Ole; Messmer, Peter; Hutter, Juerg; VandeVondele, Joost. 
 Electronic Structure Calculations on Graphics Processing Units, John
 Wiley & Sons, Ltd, 173-190 (2016). 
 GPU-Accelerated Sparse Matrix-Matrix Multiplication for
 Linear Scaling Density Functional Theory.
 https://doi.org/10.1002/9781118670712.ch8

 Borstnik, U; VandeVondele, J; Weber, V; Hutter, J. 
 PARALLEL COMPUTING, 40 (5-6), 47-58 (2014). 
 Sparse matrix multiplication: The distributed block-compressed sparse
 row library.
 https://doi.org/10.1016/j.parco.2014.03.012

 Hutter, J; Iannuzzi, M; Schiffmann, F; VandeVondele, J. 
 WIREs Comput Mol Sci., 4 (1), 15-25 (2014). 
 CP2K: atomistic simulations of condensed matter systems.
 https://doi.org/10.1002/wcms.1159

 Marek, A; Blum, V; Johanni, R; Havu, V; Lang, B; Auckenthaler, T;
 Heinecke, A; Bungartz, H; Lederer, H. 
 Journal of Physics: Condensed Matter, 26 (21), (2014). 
 The ELPA library: scalable parallel eigenvalue solutions for
 electronic structure
 theory and computational science.
 https://doi.org/10.1088/0953-8984/26/21/213201

 Guidon, M; Hutter, J; VandeVondele, J. 
 JOURNAL OF CHEMICAL THEORY AND COMPUTATION, 5 (11), 3010-3021 (2009). 
 Robust Periodic Hartree-Fock Exchange for Large-Scale Simulations Using
 Gaussian Basis Sets.
 https://doi.org/10.1021/ct900494g

 Guidon, M; Schiffmann, F; Hutter, J; VandeVondele, J. 
 JOURNAL OF CHEMICAL PHYSICS, 128 (21), 214104 (2008). 
 Ab initio molecular dynamics using hybrid density functionals.
 https://doi.org/10.1063/1.2931945

 Krack, M. 
 THEORETICAL CHEMISTRY ACCOUNTS, 114 (1-3), 145-152 (2005). 
 Pseudopotentials for H to Kr optimized for gradient-corrected
 exchange-correlation functionals.
 https://doi.org/10.1007/s00214-005-0655-y

 VandeVondele, J; Krack, M; Mohamed, F; Parrinello, M; Chassaing, T;
 Hutter, J. COMPUTER PHYSICS COMMUNICATIONS, 167 (2), 103-128 (2005). 
 QUICKSTEP: Fast and accurate density functional calculations using a
 mixed Gaussian and plane waves approach.
 https://doi.org/10.1016/j.cpc.2004.12.014

 Frigo, M; Johnson, SG. 
 PROCEEDINGS OF THE IEEE, 93 (2), 216-231 (2005). 
 The design and implementation of FFTW3.
 https://doi.org/10.1109/JPROC.2004.840301

 VandeVondele, J; Hutter, J. 
 JOURNAL OF CHEMICAL PHYSICS, 118 (10), 4365-4369 (2003). 
 An efficient orbital transformation method for electronic structure
 calculations.
 https://doi.org/10.1063/1.1543154

 Martyna, GJ; Tuckerman, ME. 
 JOURNAL OF CHEMICAL PHYSICS, 110 (6), 2810-2821 (1999). 
 A reciprocal space based method for treating long range interactions in
 ab initio and force-field-based calculations in clusters.
 https://doi.org/10.1063/1.477923

 Hartwigsen, C; Goedecker, S; Hutter, J. 
 PHYSICAL REVIEW B, 58 (7), 3641-3662 (1998). 
 Relativistic separable dual-space Gaussian pseudopotentials from H to Rn.
 https://doi.org/10.1103/PhysRevB.58.3641

 Lippert, G; Hutter, J; Parrinello, M. 
 MOLECULAR PHYSICS, 92 (3), 477-487 (1997). 
 A hybrid Gaussian and plane wave density functional scheme.
 https://doi.org/10.1080/002689797170220

 Perdew, JP; Burke, K; Ernzerhof, M. 
 PHYSICAL REVIEW LETTERS, 77 (18), 3865-3868 (1996). 
 Generalized gradient approximation made simple.
 https://doi.org/10.1103/PhysRevLett.77.3865

 Goedecker, S; Teter, M; Hutter, J. 
 PHYSICAL REVIEW B, 54 (3), 1703-1710 (1996). 
 Separable dual-space Gaussian pseudopotentials.
 https://doi.org/10.1103/PhysRevB.54.1703


 -------------------------------------------------------------------------------
 -                                                                             -
 -                                T I M I N G                                  -
 -                                                                             -
 -------------------------------------------------------------------------------
 SUBROUTINE                       CALLS  ASD         SELF TIME        TOTAL TIME
                                MAXIMUM       AVERAGE  MAXIMUM  AVERAGE  MAXIMUM
 CP2K                                 1  1.0    0.040    0.069   53.459   53.459
 qs_energies                          1  2.0    0.000    0.000   53.165   53.165
 scf_env_do_scf                       1  3.0    0.000    0.000   52.957   52.958
 qs_ks_update_qs_env                 18  5.0    0.000    0.000   50.645   50.647
 rebuild_ks_matrix                   16  6.0    0.000    0.000   50.643   50.644
 qs_ks_build_kohn_sham_matrix        16  7.0    0.003    0.003   50.643   50.644
 hfx_ks_matrix                       16  8.0    0.001    0.001   44.784   44.785
 integrate_four_center               16  9.0    0.014    0.016   44.783   44.783
 init_scf_loop                        2  4.0    0.000    0.000   35.200   35.201
 integrate_four_center_main          16 10.0    0.002    0.003    8.541   23.447
 integrate_four_center_bin         2032 11.0    8.539   23.445    8.539   23.445
 calc_screening_functions             1 10.0   18.445   19.084   19.061   19.690
 mp_sync                            101 10.8   14.916   18.800   14.916   18.800
 scf_env_do_scf_inner_loop           16  4.0    0.001    0.002   17.756   17.756
 pw_transfer                        311  9.6    0.028    0.035    3.929    4.464
 fft_wrap_pw1pw2                    279 10.7    0.004    0.005    3.871    4.407
 fft_wrap_pw1pw2_300                179 11.8    0.196    0.235    3.627    4.147
 qs_vxc_create                       16  8.0    0.000    0.001    3.678    3.690
 xc_vxc_pw_create                    16  9.0    0.028    0.030    3.677    3.689
 fft3d_ps                           279 12.7    1.394    1.482    3.107    3.677
 xc_rho_set_and_dset_create          16 10.0    0.015    0.019    2.085    2.309
 qs_rho_update_rho                   17  5.0    0.000    0.000    2.029    2.029
 calculate_rho_elec                  17  6.0    0.012    0.013    2.029    2.029
 mp_alltoall_z22v                   279 14.7    1.378    2.023    1.378    2.023
 rs_pw_transfer                     133  9.4    0.003    0.004    1.544    1.659
 sum_up_and_integrate                16  8.0    0.007    0.009    1.572    1.573
 integrate_v_rspace_low              16  9.0    0.089    0.336    1.565    1.567
 density_rs2pw                       17  7.0    0.001    0.001    1.435    1.549
 yz_to_x                            134 13.1    0.139    0.163    0.934    1.482
 calc_pair_dist_radii                 1 10.0    1.215    1.226    1.386    1.397
 xc_functional_eval                  16 11.0    0.000    0.000    1.005    1.231
 pbe_lda_eval                        16 12.0    1.005    1.230    1.005    1.230
 potential_pw2rs                     16 10.0    0.001    0.001    1.214    1.216
 -------------------------------------------------------------------------------

 The number of warnings for this run is : 0
 
 -------------------------------------------------------------------------------
  **** **** ******  **  PROGRAM ENDED AT                 2020-11-30 17:34:40.818
 ***** ** ***  *** **   PROGRAM RAN ON                                   tcopt10
 **    ****   ******    PROGRAM RAN BY                                    hutter
 ***** **    ** ** **   PROGRAM PROCESS ID                                 43631
  **** **  *******  **  PROGRAM STOPPED IN /data/hutter/GITHUB/BASIS/MOLOPT/PBE0
                                           /alsipscl
