 DBCSR| CPU Multiplication driver                                           XSMM
 DBCSR| Multrec recursion limit                                              512
 DBCSR| Multiplication stack size                                           1000
 DBCSR| Maximum elements for images                                    UNLIMITED
 DBCSR| Multiplicative factor virtual images                                   1
 DBCSR| Use multiplication densification                                       T
 DBCSR| Multiplication size stacks                                             3
 DBCSR| Use memory pool for CPU allocation                                     F
 DBCSR| Number of 3D layers                                               SINGLE
 DBCSR| Use MPI memory allocation                                              F
 DBCSR| Use RMA algorithm                                                      F
 DBCSR| Use Communication thread                                               T
 DBCSR| Communication thread load                                             87
 DBCSR| Split modifier for TAS multiplication algorithm                  1.0E+00


  **** **** ******  **  PROGRAM STARTED AT               2020-11-30 16:51:10.103
 ***** ** ***  *** **   PROGRAM STARTED ON                               tcopt10
 **    ****   ******    PROGRAM STARTED BY                                hutter
 ***** **    ** ** **   PROGRAM PROCESS ID                                 36008
  **** **  *******  **  PROGRAM STARTED IN /data/hutter/GITHUB/BASIS/MOLOPT/PBE0
                                           /alsipscl

 CP2K| version string:                    CP2K version 8.0 (Development Version)
 CP2K| source code revision number:                                  git:afc71fa
 CP2K| cp2kflags: omp libint fftw3 libxc elpa parallel mpi3 scalapack xsmm spgli
 CP2K|            b sirius
 CP2K| is freely available from                            https://www.cp2k.org/
 CP2K| Program compiled at                          Tue Nov 17 10:27:14 CET 2020
 CP2K| Program compiled on                                               tcopt10
 CP2K| Program compiled for                                                local
 CP2K| Data directory path                 /data/hutter/GITHUB/CURRENT/cp2k/data
 CP2K| Input file name                                                S2-ref.inp

 GLOBAL| Force Environment number                                              1
 GLOBAL| Basis set file name                                  ../PBE0_UCSEGBASIS
 GLOBAL| Potential file name                                        ../POTENTIAL
 GLOBAL| MM Potential file name                                     MM_POTENTIAL
 GLOBAL| Coordinate file name                                      __STD_INPUT__
 GLOBAL| Method name                                                        CP2K
 GLOBAL| Project name                                                      refS2
 GLOBAL| Preferred FFT library                                             FFTW3
 GLOBAL| Preferred diagonalization lib.                                     ELPA
 GLOBAL| Run type                                                         ENERGY
 GLOBAL| All-to-all communication in single precision                          F
 GLOBAL| FFTs using library dependent lengths                                  F
 GLOBAL| Global print level                                                  LOW
 GLOBAL| MPI I/O enabled                                                       T
 GLOBAL| Total number of message passing processes                            36
 GLOBAL| Number of threads for this process                                    1
 GLOBAL| This output is from process                                           0
 GLOBAL| CPU model name                          AMD EPYC 7401 24-Core Processor
 GLOBAL| CPUID                                                              1002

 MEMORY| system memory details [Kb]
 MEMORY|                        rank 0           min           max       average
 MEMORY| MemTotal            263987256     263987256     263987256     263987256
 MEMORY| MemFree             258287396     258287396     258287396     258287396
 MEMORY| Buffers                    32            32            32            32
 MEMORY| Cached                1945080       1945080       1945080       1945080
 MEMORY| Slab                   770272        770272        770272        770272
 MEMORY| SReclaimable           277668        277668        277668        277668
 MEMORY| MemLikelyFree       260510176     260510176     260510176     260510176


 GENERATE|  Preliminary Number of Bonds generated:                             1
 GENERATE|  Achieved consistency in connectivity generation.
 GENERATE|  Number of Bonds generated:                                         1
 GENERATE|  Preliminary Number of Bends generated:                             0
 GENERATE|  Preliminary Number of Torsions generated:                          0

 *******************************************************************************
 *   ___                                                                       *
 *  /   \                                                                      *
 * [ABORT]                                                                     *
 *  \___/  The requested atomic potential <GTH-PBE-q6> for element <S> was not *
 *    |                 found in the potential file <../POTENTIAL>             *
 *  O/|                                                                        *
 * /| |                                                                        *
 * / \                                  subsys/external_potential_types.F:2325 *
 *******************************************************************************


 ===== Routine Calling Stack ===== 

            3 read_qs_kind
            2 create_qs_kind_set
            1 CP2K
 DBCSR| CPU Multiplication driver                                           XSMM
 DBCSR| Multrec recursion limit                                              512
 DBCSR| Multiplication stack size                                           1000
 DBCSR| Maximum elements for images                                    UNLIMITED
 DBCSR| Multiplicative factor virtual images                                   1
 DBCSR| Use multiplication densification                                       T
 DBCSR| Multiplication size stacks                                             3
 DBCSR| Use memory pool for CPU allocation                                     F
 DBCSR| Number of 3D layers                                               SINGLE
 DBCSR| Use MPI memory allocation                                              F
 DBCSR| Use RMA algorithm                                                      F
 DBCSR| Use Communication thread                                               T
 DBCSR| Communication thread load                                             87
 DBCSR| Split modifier for TAS multiplication algorithm                  1.0E+00


  **** **** ******  **  PROGRAM STARTED AT               2020-11-30 17:34:41.048
 ***** ** ***  *** **   PROGRAM STARTED ON                               tcopt10
 **    ****   ******    PROGRAM STARTED BY                                hutter
 ***** **    ** ** **   PROGRAM PROCESS ID                                 43858
  **** **  *******  **  PROGRAM STARTED IN /data/hutter/GITHUB/BASIS/MOLOPT/PBE0
                                           /alsipscl

 CP2K| version string:                    CP2K version 8.0 (Development Version)
 CP2K| source code revision number:                                  git:afc71fa
 CP2K| cp2kflags: omp libint fftw3 libxc elpa parallel mpi3 scalapack xsmm spgli
 CP2K|            b sirius
 CP2K| is freely available from                            https://www.cp2k.org/
 CP2K| Program compiled at                          Tue Nov 17 10:27:14 CET 2020
 CP2K| Program compiled on                                               tcopt10
 CP2K| Program compiled for                                                local
 CP2K| Data directory path                 /data/hutter/GITHUB/CURRENT/cp2k/data
 CP2K| Input file name                                                S2-ref.inp

 GLOBAL| Force Environment number                                              1
 GLOBAL| Basis set file name                                  ../PBE0_UCSEGBASIS
 GLOBAL| Potential file name                                        ../POTENTIAL
 GLOBAL| MM Potential file name                                     MM_POTENTIAL
 GLOBAL| Coordinate file name                                      __STD_INPUT__
 GLOBAL| Method name                                                        CP2K
 GLOBAL| Project name                                                      refS2
 GLOBAL| Preferred FFT library                                             FFTW3
 GLOBAL| Preferred diagonalization lib.                                     ELPA
 GLOBAL| Run type                                                         ENERGY
 GLOBAL| All-to-all communication in single precision                          F
 GLOBAL| FFTs using library dependent lengths                                  F
 GLOBAL| Global print level                                                  LOW
 GLOBAL| MPI I/O enabled                                                       T
 GLOBAL| Total number of message passing processes                            36
 GLOBAL| Number of threads for this process                                    1
 GLOBAL| This output is from process                                           0
 GLOBAL| CPU model name                          AMD EPYC 7401 24-Core Processor
 GLOBAL| CPUID                                                              1002

 MEMORY| system memory details [Kb]
 MEMORY|                        rank 0           min           max       average
 MEMORY| MemTotal            263987256     263987256     263987256     263987256
 MEMORY| MemFree             258459400     258459400     258459400     258459400
 MEMORY| Buffers                    32            32            32            32
 MEMORY| Cached                1965644       1965644       1965644       1965644
 MEMORY| Slab                   770992        770992        770992        770992
 MEMORY| SReclaimable           280700        280700        280700        280700
 MEMORY| MemLikelyFree       260705776     260705776     260705776     260705776


 GENERATE|  Preliminary Number of Bonds generated:                             1
 GENERATE|  Achieved consistency in connectivity generation.
 GENERATE|  Number of Bonds generated:                                         1
 GENERATE|  Preliminary Number of Bends generated:                             0
 GENERATE|  Preliminary Number of Torsions generated:                          0

 *******************************************************************************
 *******************************************************************************
 **                                                                           **
 **     #####                         ##              ##                      **
 **    ##   ##            ##          ##              ##                      **
 **   ##     ##                       ##            ######                    **
 **   ##     ##  ##   ##  ##   #####  ##  ##   ####   ##    #####    #####    **
 **   ##     ##  ##   ##  ##  ##      ## ##   ##      ##   ##   ##  ##   ##   **
 **   ##  ## ##  ##   ##  ##  ##      ####     ###    ##   ######   ######    **
 **    ##  ###   ##   ##  ##  ##      ## ##      ##   ##   ##       ##        **
 **     #######   #####   ##   #####  ##  ##  ####    ##    #####   ##        **
 **           ##                                                    ##        **
 **                                                                           **
 **                                                ... make the atoms dance   **
 **                                                                           **
 **            Copyright (C) by CP2K developers group (2000 - 2020)           **
 **                      J. Chem. Phys. 152, 194103 (2020)                    **
 **                                                                           **
 *******************************************************************************


 TOTAL NUMBERS AND MAXIMUM NUMBERS

  Total number of            - Atomic kinds:                                   1
                             - Atoms:                                          2
                             - Shell sets:                                    24
                             - Shells:                                        56
                             - Primitive Cartesian functions:                 24
                             - Cartesian basis functions:                    312
                             - Spherical basis functions:                    232

  Maximum angular momentum of- Orbital basis functions:                        4
                             - Local part of the GTH pseudopotential:          0
                             - Non-local part of the GTH pseudopotential:      2


 SCF PARAMETERS         Density guess:                                    ATOMIC
                        --------------------------------------------------------
                        max_scf:                                              10
                        max_scf_history:                                       0
                        max_diis:                                              4
                        --------------------------------------------------------
                        eps_scf:                                        1.00E-06
                        eps_scf_history:                                0.00E+00
                        eps_diis:                                       1.00E-01
                        eps_eigval:                                     1.00E-05
                        --------------------------------------------------------
                        level_shift [a.u.]:                                 0.00
                        --------------------------------------------------------
                        Outer loop SCF in use 
                        No variables optimised in outer loop
                        eps_scf                                         1.00E-06
                        max_scf                                               10
                        No outer loop optimization
                        step_size                                       5.00E-01

 Number of electrons:                                                         12
 Number of occupied orbitals:                                                  6
 Number of molecular orbitals:                                                 6

 Number of orbital functions:                                                232
 Number of independent orbital functions:                                    232

 Extrapolation method: initial_guess


 SCF WAVEFUNCTION OPTIMIZATION

  ----------------------------------- OT ---------------------------------------
  Minimizer      : DIIS                : direct inversion
                                         in the iterative subspace
                                         using   7 DIIS vectors
                                         safer DIIS on
  Preconditioner : FULL_ALL            : diagonalization, state selective
  Precond_solver : DEFAULT
  stepsize       :    0.15000000                  energy_gap     :    0.08000000
  eps_taylor     :   0.10000E-15                  max_taylor     :             4
  ----------------------------------- OT ---------------------------------------

  Step     Update method      Time    Convergence         Total energy    Change
  ------------------------------------------------------------------------------
     1 OT DIIS     0.15E+00   25.8     0.07214088       -19.6535818366 -1.97E+01
     2 OT DIIS     0.15E+00    1.9     0.06349151       -20.1104089163 -4.57E-01
     3 OT DIIS     0.15E+00    1.8     0.04646055       -20.2699993241 -1.60E-01
     4 OT DIIS     0.15E+00    1.7     0.01390242       -20.3528007494 -8.28E-02
     5 OT DIIS     0.15E+00    1.8     0.00703849       -20.3686418111 -1.58E-02
     6 OT DIIS     0.15E+00    1.8     0.00255646       -20.3723177893 -3.68E-03
     7 OT DIIS     0.15E+00    1.8     0.00212821       -20.3730165076 -6.99E-04
     8 OT DIIS     0.15E+00    1.8     0.00161842       -20.3731342017 -1.18E-04
     9 OT DIIS     0.15E+00    1.7     0.00026961       -20.3732800735 -1.46E-04
    10 OT DIIS     0.15E+00    1.8     0.00010719       -20.3732898174 -9.74E-06

  Leaving inner SCF loop after reaching    10 steps.


  Electronic density on regular grids:        -12.0000000000       -0.0000000000
  Core density on regular grids:               12.0000000000        0.0000000000
  Total charge density on r-space grids:        0.0000000000
  Total charge density g-space grids:           0.0000000000

  Overlap energy of the core charge distribution:               0.00000001085587
  Self energy of the core charge distribution:                -47.87818517242722
  Core Hamiltonian energy:                                     10.56323029502920
  Hartree energy:                                              21.31677009539716
  Exchange-correlation energy:                                 -3.38746752405526
  Hartree-Fock Exchange energy:                                -0.98763752221460

  Total energy:                                               -20.37328981741484

  outer SCF iter =    1 RMS gradient =   0.11E-03 energy =        -20.3732898174

  ----------------------------------- OT ---------------------------------------
  Minimizer      : DIIS                : direct inversion
                                         in the iterative subspace
                                         using   7 DIIS vectors
                                         safer DIIS on
  Preconditioner : FULL_ALL            : diagonalization, state selective
  Precond_solver : DEFAULT
  stepsize       :    0.15000000                  energy_gap     :    0.08000000
  eps_taylor     :   0.10000E-15                  max_taylor     :             4
  ----------------------------------- OT ---------------------------------------

  Step     Update method      Time    Convergence         Total energy    Change
  ------------------------------------------------------------------------------
     1 OT DIIS     0.15E+00    3.6     0.00004326       -20.3732912198 -1.40E-06
     2 OT DIIS     0.15E+00    1.7     0.00002283       -20.3732914565 -2.37E-07
     3 OT DIIS     0.15E+00    1.7     0.00001683       -20.3732915001 -4.36E-08
     4 OT DIIS     0.15E+00    1.7     0.00000327       -20.3732915237 -2.36E-08
     5 OT DIIS     0.15E+00    1.8     0.00000068       -20.3732915249 -1.23E-09

  *** SCF run converged in     5 steps ***


  Electronic density on regular grids:        -12.0000000000       -0.0000000000
  Core density on regular grids:               12.0000000000        0.0000000000
  Total charge density on r-space grids:        0.0000000000
  Total charge density g-space grids:           0.0000000000

  Overlap energy of the core charge distribution:               0.00000001085587
  Self energy of the core charge distribution:                -47.87818517242722
  Core Hamiltonian energy:                                     10.56301954047086
  Hartree energy:                                              21.31691310625171
  Exchange-correlation energy:                                 -3.38741519485936
  Hartree-Fock Exchange energy:                                -0.98762381520548

  Total energy:                                               -20.37329152491361

  outer SCF iter =    2 RMS gradient =   0.68E-06 energy =        -20.3732915249
  outer SCF loop converged in   2 iterations or   15 steps


 ENERGY| Total FORCE_EVAL ( QS ) energy [a.u.]:              -20.373291524913615

 -------------------------------------------------------------------------------
 -                                                                             -
 -                                DBCSR STATISTICS                             -
 -                                                                             -
 -------------------------------------------------------------------------------
 COUNTER                                    TOTAL       BLAS       SMM       ACC
 flops     6 x     6 x     6                38448       0.0%    100.0%      0.0%
 flops     6 x     6 x   116              1035648       0.0%    100.0%      0.0%
 flops   116 x     6 x     6              1286208       0.0%    100.0%      0.0%
 flops   116 x   116 x     6              7750656       0.0%    100.0%      0.0%
 flops   116 x     6 x   116             50379264       0.0%    100.0%      0.0%
 flops inhomo. stacks                           0       0.0%      0.0%      0.0%
 flops total                        60.490224E+06       0.0%    100.0%      0.0%
 flops max/rank                     29.490384E+06       0.0%    100.0%      0.0%
 matmuls inhomo. stacks                         0       0.0%      0.0%      0.0%
 matmuls total                                727       0.0%    100.0%      0.0%
 number of processed stacks                   727       0.0%    100.0%      0.0%
 average stack size                                     0.0       1.0       0.0
 marketing flops                    63.107224E+06
 -------------------------------------------------------------------------------
 # multiplications                            324
 max memory usage/rank               1.494335E+09
 # max total images/rank                        1
 # max 3D layers                                1
 # MPI messages exchanged                  116640
 MPI messages size (bytes):
  total size                       185.614560E+06
  min size                           0.000000E+00
  max size                         107.648000E+03
  average size                       1.591346E+03
 MPI breakdown and total messages size (bytes):
             size <=      128              110695                        0
       128 < size <=     8192                4385                 17683680
      8192 < size <=    32768                   0                        0
     32768 < size <=   131072                1560                167930880
    131072 < size <=  4194304                   0                        0
   4194304 < size <= 16777216                   0                        0
  16777216 < size                               0                        0
 -------------------------------------------------------------------------------
 -                                                                             -
 -                      DBCSR MESSAGE PASSING PERFORMANCE                      -
 -                                                                             -
 -------------------------------------------------------------------------------
 ROUTINE             CALLS      AVE VOLUME [Bytes]
 MP_Bcast                6                     12.
 MP_Allreduce         1729                      8.
 MP_Alltoall          1430                   4321.
 MP_ISend             7768                   2595.
 MP_IRecv             7768                   1281.
 -------------------------------------------------------------------------------

 -------------------------------------------------------------------------------
 -                                                                             -
 -                                GRID STATISTICS                              -
 -                                                                             -
 -------------------------------------------------------------------------------
 LP    KERNEL    OPERATION                                     COUNT     PERCENT
 0     general   collocate                                        72       0.53%
 2     ortho     integrate                                      2880      21.39%
 2     ortho     collocate                                      3072      22.82%
 5     ortho     integrate                                      2880      21.39%
 5     ortho     collocate                                      3072      22.82%
 8     ortho     integrate                                       720       5.35%
 8     ortho     collocate                                       768       5.70%
 -------------------------------------------------------------------------------

 MEMORY| Estimated peak process memory [MiB]                                1426

 -------------------------------------------------------------------------------
 -                                                                             -
 -                         MESSAGE PASSING PERFORMANCE                         -
 -                                                                             -
 -------------------------------------------------------------------------------

 ROUTINE             CALLS      AVE VOLUME [Bytes]
 MP_Group                5
 MP_Bcast              197                 463717.
 MP_Allreduce          631                   4151.
 MP_Sync                82
 MP_Alltoall           307               14806328.
 MP_ISendRecv         3290                  95718.
 MP_Wait              4676
 MP_ISend             1134                 777877.
 MP_IRecv             1134                 778148.
 MP_Recv                 5                   1856.
 -------------------------------------------------------------------------------


 -------------------------------------------------------------------------------
 -                                                                             -
 -                           R E F E R E N C E S                               -
 -                                                                             -
 -------------------------------------------------------------------------------
 
 CP2K version 8.0 (Development Version), the CP2K developers group (2020).
 CP2K is freely available from https://www.cp2k.org/ .

 Kuehne,Thomas D.; Iannuzzi,Marcella; Del Ben,Mauro;
 Rybkin,Vladimir V.; Seewald,Patrick; Stein,Frederick; Laino,Teodoro;
 Khaliullin,Rustam Z.; Schuett,Ole; Schiffmann,Florian; Golze,Dorothea;
 Wilhelm,Jan; Chulkov,Sergey; Bani-Hashemian,Mohammad Hossein;
 Weber,Valery; Borstnik,Urban; Taillefumier,Mathieu;
 Jakobovits,Alice Shoshana; Lazzaro,Alfio; Pabst,Hans; Mueller,Tiziano;
 Schade,Robert; Guidon,Manuel; Andermatt,Samuel; Holmberg,Nico;
 Schenter,Gregory K.; Hehn,Anna; Bussy,Augustin; Belleflamme,Fabian;
 Tabacchi,Gloria; Gloess,Andreas; Lass,Michael; Bethune,Iain;
 Mundy,Christopher J.; Plessl,Christian; Watkins,Matt;
 VandeVondele,Joost; Krack,Matthias; Hutter,Juerg. 
 The Journal of Chemical Physics, 152 (19), (2020). 
 CP2K: An electronic structure and molecular dynamics software package -
 Quickstep: Efficient and accurate electronic structure calculations.
 https://doi.org/10.1063/5.0007045

 Schuett, Ole; Messmer, Peter; Hutter, Juerg; VandeVondele, Joost. 
 Electronic Structure Calculations on Graphics Processing Units, John
 Wiley & Sons, Ltd, 173-190 (2016). 
 GPU-Accelerated Sparse Matrix-Matrix Multiplication for
 Linear Scaling Density Functional Theory.
 https://doi.org/10.1002/9781118670712.ch8

 Borstnik, U; VandeVondele, J; Weber, V; Hutter, J. 
 PARALLEL COMPUTING, 40 (5-6), 47-58 (2014). 
 Sparse matrix multiplication: The distributed block-compressed sparse
 row library.
 https://doi.org/10.1016/j.parco.2014.03.012

 Hutter, J; Iannuzzi, M; Schiffmann, F; VandeVondele, J. 
 WIREs Comput Mol Sci., 4 (1), 15-25 (2014). 
 CP2K: atomistic simulations of condensed matter systems.
 https://doi.org/10.1002/wcms.1159

 Marek, A; Blum, V; Johanni, R; Havu, V; Lang, B; Auckenthaler, T;
 Heinecke, A; Bungartz, H; Lederer, H. 
 Journal of Physics: Condensed Matter, 26 (21), (2014). 
 The ELPA library: scalable parallel eigenvalue solutions for
 electronic structure
 theory and computational science.
 https://doi.org/10.1088/0953-8984/26/21/213201

 Guidon, M; Hutter, J; VandeVondele, J. 
 JOURNAL OF CHEMICAL THEORY AND COMPUTATION, 5 (11), 3010-3021 (2009). 
 Robust Periodic Hartree-Fock Exchange for Large-Scale Simulations Using
 Gaussian Basis Sets.
 https://doi.org/10.1021/ct900494g

 Guidon, M; Schiffmann, F; Hutter, J; VandeVondele, J. 
 JOURNAL OF CHEMICAL PHYSICS, 128 (21), 214104 (2008). 
 Ab initio molecular dynamics using hybrid density functionals.
 https://doi.org/10.1063/1.2931945

 Krack, M. 
 THEORETICAL CHEMISTRY ACCOUNTS, 114 (1-3), 145-152 (2005). 
 Pseudopotentials for H to Kr optimized for gradient-corrected
 exchange-correlation functionals.
 https://doi.org/10.1007/s00214-005-0655-y

 VandeVondele, J; Krack, M; Mohamed, F; Parrinello, M; Chassaing, T;
 Hutter, J. COMPUTER PHYSICS COMMUNICATIONS, 167 (2), 103-128 (2005). 
 QUICKSTEP: Fast and accurate density functional calculations using a
 mixed Gaussian and plane waves approach.
 https://doi.org/10.1016/j.cpc.2004.12.014

 Frigo, M; Johnson, SG. 
 PROCEEDINGS OF THE IEEE, 93 (2), 216-231 (2005). 
 The design and implementation of FFTW3.
 https://doi.org/10.1109/JPROC.2004.840301

 VandeVondele, J; Hutter, J. 
 JOURNAL OF CHEMICAL PHYSICS, 118 (10), 4365-4369 (2003). 
 An efficient orbital transformation method for electronic structure
 calculations.
 https://doi.org/10.1063/1.1543154

 Martyna, GJ; Tuckerman, ME. 
 JOURNAL OF CHEMICAL PHYSICS, 110 (6), 2810-2821 (1999). 
 A reciprocal space based method for treating long range interactions in
 ab initio and force-field-based calculations in clusters.
 https://doi.org/10.1063/1.477923

 Hartwigsen, C; Goedecker, S; Hutter, J. 
 PHYSICAL REVIEW B, 58 (7), 3641-3662 (1998). 
 Relativistic separable dual-space Gaussian pseudopotentials from H to Rn.
 https://doi.org/10.1103/PhysRevB.58.3641

 Lippert, G; Hutter, J; Parrinello, M. 
 MOLECULAR PHYSICS, 92 (3), 477-487 (1997). 
 A hybrid Gaussian and plane wave density functional scheme.
 https://doi.org/10.1080/002689797170220

 Perdew, JP; Burke, K; Ernzerhof, M. 
 PHYSICAL REVIEW LETTERS, 77 (18), 3865-3868 (1996). 
 Generalized gradient approximation made simple.
 https://doi.org/10.1103/PhysRevLett.77.3865

 Goedecker, S; Teter, M; Hutter, J. 
 PHYSICAL REVIEW B, 54 (3), 1703-1710 (1996). 
 Separable dual-space Gaussian pseudopotentials.
 https://doi.org/10.1103/PhysRevB.54.1703


 -------------------------------------------------------------------------------
 -                                                                             -
 -                                T I M I N G                                  -
 -                                                                             -
 -------------------------------------------------------------------------------
 SUBROUTINE                       CALLS  ASD         SELF TIME        TOTAL TIME
                                MAXIMUM       AVERAGE  MAXIMUM  AVERAGE  MAXIMUM
 CP2K                                 1  1.0    0.017    0.074   51.798   51.809
 qs_energies                          1  2.0    0.000    0.000   51.193   51.204
 scf_env_do_scf                       1  3.0    0.000    0.000   50.814   50.825
 qs_ks_update_qs_env                 17  5.0    0.000    0.000   46.982   46.993
 rebuild_ks_matrix                   15  6.0    0.000    0.000   46.980   46.991
 qs_ks_build_kohn_sham_matrix        15  7.0    0.003    0.003   46.980   46.991
 hfx_ks_matrix                       15  8.0    0.001    0.001   35.487   35.494
 integrate_four_center               15  9.0    0.012    0.013   35.486   35.494
 init_scf_loop                        2  4.0    0.000    0.000   27.310   27.316
 scf_env_do_scf_inner_loop           15  4.0    0.001    0.001   23.503   23.508
 mp_sync                             82 10.7   19.654   23.499   19.654   23.499
 integrate_four_center_main          15 10.0    0.002    0.003    3.842   23.282
 integrate_four_center_bin         1920 11.0    3.840   23.280    3.840   23.280
 calc_screening_functions             1 10.0   10.822   11.115   11.008   11.302
 pw_transfer                        292  9.6    0.033    0.044    9.642   10.626
 fft_wrap_pw1pw2                    262 10.7    0.005    0.005    9.534   10.520
 fft_wrap_pw1pw2_300                168 11.8    0.502    0.628    9.027   10.004
 fft3d_ps                           262 12.7    3.046    3.257    7.453    8.413
 qs_vxc_create                       15  8.0    0.000    0.001    7.704    7.760
 xc_vxc_pw_create                    15  9.0    0.059    0.068    7.703    7.759
 mp_alltoall_z22v                   262 14.7    3.373    4.797    3.373    4.797
 xc_rho_set_and_dset_create          15 10.0    0.026    0.035    3.592    4.459
 qs_rho_update_rho                   16  5.0    0.000    0.000    3.734    3.735
 calculate_rho_elec                  16  6.0    0.027    0.028    3.734    3.735
 yz_to_x                            126 13.1    0.482    0.562    2.557    3.575
 density_rs2pw                       16  7.0    0.001    0.001    2.986    3.109
 rs_pw_transfer                     125  9.4    0.003    0.004    2.484    2.573
 sum_up_and_integrate                15  8.0    0.018    0.023    2.396    2.398
 integrate_v_rspace_low              15  9.0    0.034    0.209    2.378    2.383
 potential_pw2rs                     15 10.0    0.002    0.002    2.159    2.165
 x_to_yz                            136 14.2    0.540    0.622    1.839    2.073
 xc_functional_eval                  15 11.0    0.000    0.000    0.999    1.881
 pbe_lda_eval                        15 12.0    0.999    1.881    0.999    1.881
 mp_waitany                        1134 11.4    0.730    1.052    0.730    1.052
 -------------------------------------------------------------------------------

 The number of warnings for this run is : 0
 
 -------------------------------------------------------------------------------
  **** **** ******  **  PROGRAM ENDED AT                 2020-11-30 17:35:33.578
 ***** ** ***  *** **   PROGRAM RAN ON                                   tcopt10
 **    ****   ******    PROGRAM RAN BY                                    hutter
 ***** **    ** ** **   PROGRAM PROCESS ID                                 43858
  **** **  *******  **  PROGRAM STOPPED IN /data/hutter/GITHUB/BASIS/MOLOPT/PBE0
                                           /alsipscl
