 DBCSR| CPU Multiplication driver                                           XSMM
 DBCSR| Multrec recursion limit                                              512
 DBCSR| Multiplication stack size                                           1000
 DBCSR| Maximum elements for images                                    UNLIMITED
 DBCSR| Multiplicative factor virtual images                                   1
 DBCSR| Use multiplication densification                                       T
 DBCSR| Multiplication size stacks                                             3
 DBCSR| Use memory pool for CPU allocation                                     F
 DBCSR| Number of 3D layers                                               SINGLE
 DBCSR| Use MPI memory allocation                                              F
 DBCSR| Use RMA algorithm                                                      F
 DBCSR| Use Communication thread                                               T
 DBCSR| Communication thread load                                             87
 DBCSR| Split modifier for TAS multiplication algorithm                  1.0E+00


  **** **** ******  **  PROGRAM STARTED AT               2020-11-30 16:51:12.578
 ***** ** ***  *** **   PROGRAM STARTED ON                               tcopt10
 **    ****   ******    PROGRAM STARTED BY                                hutter
 ***** **    ** ** **   PROGRAM PROCESS ID                                 36458
  **** **  *******  **  PROGRAM STARTED IN /data/hutter/GITHUB/BASIS/MOLOPT/PBE0
                                           /alsipscl

 CP2K| version string:                    CP2K version 8.0 (Development Version)
 CP2K| source code revision number:                                  git:afc71fa
 CP2K| cp2kflags: omp libint fftw3 libxc elpa parallel mpi3 scalapack xsmm spgli
 CP2K|            b sirius
 CP2K| is freely available from                            https://www.cp2k.org/
 CP2K| Program compiled at                          Tue Nov 17 10:27:14 CET 2020
 CP2K| Program compiled on                                               tcopt10
 CP2K| Program compiled for                                                local
 CP2K| Data directory path                 /data/hutter/GITHUB/CURRENT/cp2k/data
 CP2K| Input file name                                               SF4-ref.inp

 GLOBAL| Force Environment number                                              1
 GLOBAL| Basis set file name                                  ../PBE0_UCSEGBASIS
 GLOBAL| Potential file name                                        ../POTENTIAL
 GLOBAL| MM Potential file name                                     MM_POTENTIAL
 GLOBAL| Coordinate file name                                      __STD_INPUT__
 GLOBAL| Method name                                                        CP2K
 GLOBAL| Project name                                                     refSF4
 GLOBAL| Preferred FFT library                                             FFTW3
 GLOBAL| Preferred diagonalization lib.                                     ELPA
 GLOBAL| Run type                                                         ENERGY
 GLOBAL| All-to-all communication in single precision                          F
 GLOBAL| FFTs using library dependent lengths                                  F
 GLOBAL| Global print level                                                  LOW
 GLOBAL| MPI I/O enabled                                                       T
 GLOBAL| Total number of message passing processes                            36
 GLOBAL| Number of threads for this process                                    1
 GLOBAL| This output is from process                                           0
 GLOBAL| CPU model name                          AMD EPYC 7401 24-Core Processor
 GLOBAL| CPUID                                                              1002

 MEMORY| system memory details [Kb]
 MEMORY|                        rank 0           min           max       average
 MEMORY| MemTotal            263987256     263987256     263987256     263987256
 MEMORY| MemFree             258278320     258278320     258278320     258278320
 MEMORY| Buffers                    32            32            32            32
 MEMORY| Cached                1946660       1946660       1946660       1946660
 MEMORY| Slab                   771012        771012        771012        771012
 MEMORY| SReclaimable           277380        277380        277380        277380
 MEMORY| MemLikelyFree       260502392     260502392     260502392     260502392


 GENERATE|  Preliminary Number of Bonds generated:                             0
 GENERATE|  Achieved consistency in connectivity generation.

 *******************************************************************************
 *   ___                                                                       *
 *  /   \                                                                      *
 * [ABORT]                                                                     *
 *  \___/  The requested atomic potential <GTH-PBE-q6> for element <S> was not *
 *    |                 found in the potential file <../POTENTIAL>             *
 *  O/|                                                                        *
 * /| |                                                                        *
 * / \                                  subsys/external_potential_types.F:2325 *
 *******************************************************************************


 ===== Routine Calling Stack ===== 

            3 read_qs_kind
            2 create_qs_kind_set
            1 CP2K
 DBCSR| CPU Multiplication driver                                           XSMM
 DBCSR| Multrec recursion limit                                              512
 DBCSR| Multiplication stack size                                           1000
 DBCSR| Maximum elements for images                                    UNLIMITED
 DBCSR| Multiplicative factor virtual images                                   1
 DBCSR| Use multiplication densification                                       T
 DBCSR| Multiplication size stacks                                             3
 DBCSR| Use memory pool for CPU allocation                                     F
 DBCSR| Number of 3D layers                                               SINGLE
 DBCSR| Use MPI memory allocation                                              F
 DBCSR| Use RMA algorithm                                                      F
 DBCSR| Use Communication thread                                               T
 DBCSR| Communication thread load                                             87
 DBCSR| Split modifier for TAS multiplication algorithm                  1.0E+00


  **** **** ******  **  PROGRAM STARTED AT               2020-11-30 17:38:39.720
 ***** ** ***  *** **   PROGRAM STARTED ON                               tcopt10
 **    ****   ******    PROGRAM STARTED BY                                hutter
 ***** **    ** ** **   PROGRAM PROCESS ID                                 44602
  **** **  *******  **  PROGRAM STARTED IN /data/hutter/GITHUB/BASIS/MOLOPT/PBE0
                                           /alsipscl

 CP2K| version string:                    CP2K version 8.0 (Development Version)
 CP2K| source code revision number:                                  git:afc71fa
 CP2K| cp2kflags: omp libint fftw3 libxc elpa parallel mpi3 scalapack xsmm spgli
 CP2K|            b sirius
 CP2K| is freely available from                            https://www.cp2k.org/
 CP2K| Program compiled at                          Tue Nov 17 10:27:14 CET 2020
 CP2K| Program compiled on                                               tcopt10
 CP2K| Program compiled for                                                local
 CP2K| Data directory path                 /data/hutter/GITHUB/CURRENT/cp2k/data
 CP2K| Input file name                                               SF4-ref.inp

 GLOBAL| Force Environment number                                              1
 GLOBAL| Basis set file name                                  ../PBE0_UCSEGBASIS
 GLOBAL| Potential file name                                        ../POTENTIAL
 GLOBAL| MM Potential file name                                     MM_POTENTIAL
 GLOBAL| Coordinate file name                                      __STD_INPUT__
 GLOBAL| Method name                                                        CP2K
 GLOBAL| Project name                                                     refSF4
 GLOBAL| Preferred FFT library                                             FFTW3
 GLOBAL| Preferred diagonalization lib.                                     ELPA
 GLOBAL| Run type                                                         ENERGY
 GLOBAL| All-to-all communication in single precision                          F
 GLOBAL| FFTs using library dependent lengths                                  F
 GLOBAL| Global print level                                                  LOW
 GLOBAL| MPI I/O enabled                                                       T
 GLOBAL| Total number of message passing processes                            36
 GLOBAL| Number of threads for this process                                    1
 GLOBAL| This output is from process                                           0
 GLOBAL| CPU model name                          AMD EPYC 7401 24-Core Processor
 GLOBAL| CPUID                                                              1002

 MEMORY| system memory details [Kb]
 MEMORY|                        rank 0           min           max       average
 MEMORY| MemTotal            263987256     263987256     263987256     263987256
 MEMORY| MemFree             258459244     258459244     258459244     258459244
 MEMORY| Buffers                    32            32            32            32
 MEMORY| Cached                1966216       1966216       1966216       1966216
 MEMORY| Slab                   771156        771156        771156        771156
 MEMORY| SReclaimable           280908        280908        280908        280908
 MEMORY| MemLikelyFree       260706400     260706400     260706400     260706400


 GENERATE|  Preliminary Number of Bonds generated:                             0
 GENERATE|  Achieved consistency in connectivity generation.

 *******************************************************************************
 *******************************************************************************
 **                                                                           **
 **     #####                         ##              ##                      **
 **    ##   ##            ##          ##              ##                      **
 **   ##     ##                       ##            ######                    **
 **   ##     ##  ##   ##  ##   #####  ##  ##   ####   ##    #####    #####    **
 **   ##     ##  ##   ##  ##  ##      ## ##   ##      ##   ##   ##  ##   ##   **
 **   ##  ## ##  ##   ##  ##  ##      ####     ###    ##   ######   ######    **
 **    ##  ###   ##   ##  ##  ##      ## ##      ##   ##   ##       ##        **
 **     #######   #####   ##   #####  ##  ##  ####    ##    #####   ##        **
 **           ##                                                    ##        **
 **                                                                           **
 **                                                ... make the atoms dance   **
 **                                                                           **
 **            Copyright (C) by CP2K developers group (2000 - 2020)           **
 **                      J. Chem. Phys. 152, 194103 (2020)                    **
 **                                                                           **
 *******************************************************************************


 TOTAL NUMBERS AND MAXIMUM NUMBERS

  Total number of            - Atomic kinds:                                   2
                             - Atoms:                                          5
                             - Shell sets:                                    60
                             - Shells:                                       108
                             - Primitive Cartesian functions:                 60
                             - Cartesian basis functions:                    380
                             - Spherical basis functions:                    324

  Maximum angular momentum of- Orbital basis functions:                        4
                             - Local part of the GTH pseudopotential:          2
                             - Non-local part of the GTH pseudopotential:      2


 SCF PARAMETERS         Density guess:                                    ATOMIC
                        --------------------------------------------------------
                        max_scf:                                              10
                        max_scf_history:                                       0
                        max_diis:                                              4
                        --------------------------------------------------------
                        eps_scf:                                        1.00E-07
                        eps_scf_history:                                0.00E+00
                        eps_diis:                                       1.00E-01
                        eps_eigval:                                     1.00E-05
                        --------------------------------------------------------
                        level_shift [a.u.]:                                 0.00
                        --------------------------------------------------------
                        Outer loop SCF in use 
                        No variables optimised in outer loop
                        eps_scf                                         1.00E-07
                        max_scf                                               10
                        No outer loop optimization
                        step_size                                       5.00E-01

 Number of electrons:                                                         34
 Number of occupied orbitals:                                                 17
 Number of molecular orbitals:                                                17

 Number of orbital functions:                                                324
 Number of independent orbital functions:                                    324

 Extrapolation method: initial_guess


 SCF WAVEFUNCTION OPTIMIZATION

  ----------------------------------- OT ---------------------------------------
  Minimizer      : DIIS                : direct inversion
                                         in the iterative subspace
                                         using   7 DIIS vectors
                                         safer DIIS on
  Preconditioner : FULL_ALL            : diagonalization, state selective
  Precond_solver : DEFAULT
  stepsize       :    0.15000000                  energy_gap     :    0.08000000
  eps_taylor     :   0.10000E-15                  max_taylor     :             4
  ----------------------------------- OT ---------------------------------------

  Step     Update method      Time    Convergence         Total energy    Change
  ------------------------------------------------------------------------------
     1 OT DIIS     0.15E+00   28.0     0.09778224      -103.8500249504 -1.04E+02
     2 OT DIIS     0.15E+00    1.4     0.07205106      -104.1684482011 -3.18E-01
     3 OT DIIS     0.15E+00    1.3     0.05556441      -105.1633474782 -9.95E-01
     4 OT DIIS     0.15E+00    1.3     0.04352177      -105.8268612287 -6.64E-01
     5 OT DIIS     0.15E+00    1.3     0.04168203      -105.8596629734 -3.28E-02
     6 OT SD       0.15E+00    1.3     0.04870185      -106.0379440562 -1.78E-01
     7 OT DIIS     0.15E+00    1.3     0.06148037      -105.3128760713  7.25E-01
     8 OT DIIS     0.15E+00    1.3     0.03208187      -106.2335720131 -9.21E-01
     9 OT DIIS     0.15E+00    1.3     0.03758769      -106.3585059437 -1.25E-01
    10 OT DIIS     0.15E+00    1.3     0.03121062      -106.4768600100 -1.18E-01

  Leaving inner SCF loop after reaching    10 steps.


  Electronic density on regular grids:        -34.0000000354       -0.0000000354
  Core density on regular grids:               34.0000000000       -0.0000000000
  Total charge density on r-space grids:       -0.0000000354
  Total charge density g-space grids:          -0.0000000354

  Overlap energy of the core charge distribution:               0.00000000367598
  Self energy of the core charge distribution:               -286.31827716744590
  Core Hamiltonian energy:                                     78.86785518334231
  Hartree energy:                                             121.78607786204068
  Exchange-correlation energy:                                -16.00599991715696
  Hartree-Fock Exchange energy:                                -4.80651597449271

  Total energy:                                              -106.47686001003660

  outer SCF iter =    1 RMS gradient =   0.31E-01 energy =       -106.4768600100

  ----------------------------------- OT ---------------------------------------
  Minimizer      : DIIS                : direct inversion
                                         in the iterative subspace
                                         using   7 DIIS vectors
                                         safer DIIS on
  Preconditioner : FULL_ALL            : diagonalization, state selective
  Precond_solver : DEFAULT
  stepsize       :    0.15000000                  energy_gap     :    0.08000000
  eps_taylor     :   0.10000E-15                  max_taylor     :             4
  ----------------------------------- OT ---------------------------------------

  Step     Update method      Time    Convergence         Total energy    Change
  ------------------------------------------------------------------------------
     1 OT DIIS     0.15E+00    2.6     0.04110725      -106.5042714559 -2.74E-02
     2 OT DIIS     0.15E+00    1.3     0.03448834      -106.6634120402 -1.59E-01
     3 OT DIIS     0.15E+00    1.3     0.00704919      -107.0220237847 -3.59E-01
     4 OT DIIS     0.15E+00    1.3     0.00355656      -107.0391213793 -1.71E-02
     5 OT DIIS     0.15E+00    1.3     0.00149094      -107.0433948780 -4.27E-03
     6 OT DIIS     0.15E+00    1.3     0.00107363      -107.0438951400 -5.00E-04
     7 OT DIIS     0.15E+00    1.3     0.00033852      -107.0441579278 -2.63E-04
     8 OT DIIS     0.15E+00    1.3     0.00008945      -107.0441846817 -2.68E-05
     9 OT DIIS     0.15E+00    1.3     0.00002926      -107.0441878563 -3.17E-06
    10 OT DIIS     0.15E+00    1.3     0.00001731      -107.0441883399 -4.84E-07

  Leaving inner SCF loop after reaching    10 steps.


  Electronic density on regular grids:        -34.0000000372       -0.0000000372
  Core density on regular grids:               34.0000000000       -0.0000000000
  Total charge density on r-space grids:       -0.0000000372
  Total charge density g-space grids:          -0.0000000372

  Overlap energy of the core charge distribution:               0.00000000367598
  Self energy of the core charge distribution:               -286.31827716744590
  Core Hamiltonian energy:                                     77.96476431450466
  Hartree energy:                                             122.14616271837696
  Exchange-correlation energy:                                -15.99804489929054
  Hartree-Fock Exchange energy:                                -4.83879330976370

  Total energy:                                              -107.04418833994256

  outer SCF iter =    2 RMS gradient =   0.17E-04 energy =       -107.0441883399

  ----------------------------------- OT ---------------------------------------
  Minimizer      : DIIS                : direct inversion
                                         in the iterative subspace
                                         using   7 DIIS vectors
                                         safer DIIS on
  Preconditioner : FULL_ALL            : diagonalization, state selective
  Precond_solver : DEFAULT
  stepsize       :    0.15000000                  energy_gap     :    0.08000000
  eps_taylor     :   0.10000E-15                  max_taylor     :             4
  ----------------------------------- OT ---------------------------------------

  Step     Update method      Time    Convergence         Total energy    Change
  ------------------------------------------------------------------------------
     1 OT DIIS     0.15E+00    2.6     0.00000703      -107.0441883837 -4.38E-08
     2 OT DIIS     0.15E+00    1.3     0.00000400      -107.0441884036 -1.99E-08
     3 OT DIIS     0.15E+00    1.3     0.00000178      -107.0441884088 -5.18E-09
     4 OT DIIS     0.15E+00    1.3     0.00000028      -107.0441884108 -2.05E-09
     5 OT DIIS     0.15E+00    1.3     0.00000010      -107.0441884109 -5.19E-11
     6 OT DIIS     0.15E+00    1.3     0.00000004      -107.0441884109 -3.64E-12

  *** SCF run converged in     6 steps ***


  Electronic density on regular grids:        -34.0000000372       -0.0000000372
  Core density on regular grids:               34.0000000000       -0.0000000000
  Total charge density on r-space grids:       -0.0000000372
  Total charge density g-space grids:          -0.0000000372

  Overlap energy of the core charge distribution:               0.00000000367598
  Self energy of the core charge distribution:               -286.31827716744590
  Core Hamiltonian energy:                                     77.96499265495254
  Hartree energy:                                             122.14598415408518
  Exchange-correlation energy:                                -15.99808010833947
  Hartree-Fock Exchange energy:                                -4.83880794783157

  Total energy:                                              -107.04418841090326

  outer SCF iter =    3 RMS gradient =   0.41E-07 energy =       -107.0441884109
  outer SCF loop converged in   3 iterations or   26 steps


 ENERGY| Total FORCE_EVAL ( QS ) energy [a.u.]:             -107.044188410903260

 -------------------------------------------------------------------------------
 -                                                                             -
 -                                DBCSR STATISTICS                             -
 -                                                                             -
 -------------------------------------------------------------------------------
 COUNTER                                    TOTAL       BLAS       SMM       ACC
 flops    17 x    17 x    17              1709724       0.0%    100.0%      0.0%
 flops    17 x    17 x   116              7174136       0.0%    100.0%      0.0%
 flops   116 x    17 x    17              8917384       0.0%    100.0%      0.0%
 flops    52 x   116 x    17             11074752       0.0%    100.0%      0.0%
 flops   116 x    52 x    17             11074752       0.0%    100.0%      0.0%
 flops   116 x   116 x    17             12352608       0.0%    100.0%      0.0%
 flops    17 x    17 x    52             12863968       0.0%    100.0%      0.0%
 flops    52 x    17 x    17             15989792       0.0%    100.0%      0.0%
 flops    52 x    52 x    17             24822720       0.0%    100.0%      0.0%
 flops   116 x    17 x   116             59475520       0.0%    100.0%      0.0%
 flops   116 x    17 x    52            106645760       0.0%    100.0%      0.0%
 flops    52 x    17 x   116            106645760       0.0%    100.0%      0.0%
 flops    52 x    17 x    52            191226880       0.0%    100.0%      0.0%
 flops inhomo. stacks                           0       0.0%      0.0%      0.0%
 flops total                       569.973756E+06       0.0%    100.0%      0.0%
 flops max/rank                    209.139100E+06       0.0%    100.0%      0.0%
 matmuls inhomo. stacks                         0       0.0%      0.0%      0.0%
 matmuls total                               5029       0.0%    100.0%      0.0%
 number of processed stacks                  5029       0.0%    100.0%      0.0%
 average stack size                                     0.0       1.0       0.0
 marketing flops                   607.579072E+06
 -------------------------------------------------------------------------------
 # multiplications                            574
 max memory usage/rank               1.295528E+09
 # max total images/rank                        1
 # max 3D layers                                1
 # MPI messages exchanged                  206640
 MPI messages size (bytes):
  total size                       668.425472E+06
  min size                           0.000000E+00
  max size                         107.648000E+03
  average size                       3.234734E+03
 MPI breakdown and total messages size (bytes):
             size <=      128              174710                        0
       128 < size <=     8192               13025                 80665000
      8192 < size <=    32768               13055                266858080
     32768 < size <=   131072                5850                320902400
    131072 < size <=  4194304                   0                        0
   4194304 < size <= 16777216                   0                        0
  16777216 < size                               0                        0
 -------------------------------------------------------------------------------
 -                                                                             -
 -                      DBCSR MESSAGE PASSING PERFORMANCE                      -
 -                                                                             -
 -------------------------------------------------------------------------------
 ROUTINE             CALLS      AVE VOLUME [Bytes]
 MP_Bcast               14                     12.
 MP_Allreduce         3070                      8.
 MP_Alltoall          2404                   4786.
 MP_ISend            13764                   4294.
 MP_IRecv            13764                   2587.
 -------------------------------------------------------------------------------

 -------------------------------------------------------------------------------
 -                                                                             -
 -                                GRID STATISTICS                              -
 -                                                                             -
 -------------------------------------------------------------------------------
 LP    KERNEL    OPERATION                                     COUNT     PERCENT
 0     general   collocate                                       180       0.17%
 2     ortho     integrate                                     22282      20.86%
 2     ortho     collocate                                     23139      21.66%
 3     ortho     integrate                                     18824      17.62%
 3     ortho     collocate                                     19548      18.30%
 4     ortho     integrate                                      4134       3.87%
 4     ortho     collocate                                      4293       4.02%
 5     ortho     integrate                                      4992       4.67%
 5     ortho     collocate                                      5184       4.85%
 6     ortho     integrate                                      1664       1.56%
 6     ortho     collocate                                      1728       1.62%
 8     ortho     integrate                                       416       0.39%
 8     ortho     collocate                                       432       0.40%
 -------------------------------------------------------------------------------

 MEMORY| Estimated peak process memory [MiB]                                1236

 -------------------------------------------------------------------------------
 -                                                                             -
 -                         MESSAGE PASSING PERFORMANCE                         -
 -                                                                             -
 -------------------------------------------------------------------------------

 ROUTINE             CALLS      AVE VOLUME [Bytes]
 MP_Group                5
 MP_Bcast              580                 314968.
 MP_Allreduce         1557                    947.
 MP_Sync               137
 MP_Alltoall           514                6270279.
 MP_ISendRecv         7455                 112858.
 MP_Wait              9777
 MP_ISend             2160                 291600.
 MP_IRecv             2160                 291600.
 MP_Recv                10                   7776.
 -------------------------------------------------------------------------------


 -------------------------------------------------------------------------------
 -                                                                             -
 -                           R E F E R E N C E S                               -
 -                                                                             -
 -------------------------------------------------------------------------------
 
 CP2K version 8.0 (Development Version), the CP2K developers group (2020).
 CP2K is freely available from https://www.cp2k.org/ .

 Kuehne,Thomas D.; Iannuzzi,Marcella; Del Ben,Mauro;
 Rybkin,Vladimir V.; Seewald,Patrick; Stein,Frederick; Laino,Teodoro;
 Khaliullin,Rustam Z.; Schuett,Ole; Schiffmann,Florian; Golze,Dorothea;
 Wilhelm,Jan; Chulkov,Sergey; Bani-Hashemian,Mohammad Hossein;
 Weber,Valery; Borstnik,Urban; Taillefumier,Mathieu;
 Jakobovits,Alice Shoshana; Lazzaro,Alfio; Pabst,Hans; Mueller,Tiziano;
 Schade,Robert; Guidon,Manuel; Andermatt,Samuel; Holmberg,Nico;
 Schenter,Gregory K.; Hehn,Anna; Bussy,Augustin; Belleflamme,Fabian;
 Tabacchi,Gloria; Gloess,Andreas; Lass,Michael; Bethune,Iain;
 Mundy,Christopher J.; Plessl,Christian; Watkins,Matt;
 VandeVondele,Joost; Krack,Matthias; Hutter,Juerg. 
 The Journal of Chemical Physics, 152 (19), (2020). 
 CP2K: An electronic structure and molecular dynamics software package -
 Quickstep: Efficient and accurate electronic structure calculations.
 https://doi.org/10.1063/5.0007045

 Schuett, Ole; Messmer, Peter; Hutter, Juerg; VandeVondele, Joost. 
 Electronic Structure Calculations on Graphics Processing Units, John
 Wiley & Sons, Ltd, 173-190 (2016). 
 GPU-Accelerated Sparse Matrix-Matrix Multiplication for
 Linear Scaling Density Functional Theory.
 https://doi.org/10.1002/9781118670712.ch8

 Borstnik, U; VandeVondele, J; Weber, V; Hutter, J. 
 PARALLEL COMPUTING, 40 (5-6), 47-58 (2014). 
 Sparse matrix multiplication: The distributed block-compressed sparse
 row library.
 https://doi.org/10.1016/j.parco.2014.03.012

 Hutter, J; Iannuzzi, M; Schiffmann, F; VandeVondele, J. 
 WIREs Comput Mol Sci., 4 (1), 15-25 (2014). 
 CP2K: atomistic simulations of condensed matter systems.
 https://doi.org/10.1002/wcms.1159

 Marek, A; Blum, V; Johanni, R; Havu, V; Lang, B; Auckenthaler, T;
 Heinecke, A; Bungartz, H; Lederer, H. 
 Journal of Physics: Condensed Matter, 26 (21), (2014). 
 The ELPA library: scalable parallel eigenvalue solutions for
 electronic structure
 theory and computational science.
 https://doi.org/10.1088/0953-8984/26/21/213201

 Guidon, M; Hutter, J; VandeVondele, J. 
 JOURNAL OF CHEMICAL THEORY AND COMPUTATION, 5 (11), 3010-3021 (2009). 
 Robust Periodic Hartree-Fock Exchange for Large-Scale Simulations Using
 Gaussian Basis Sets.
 https://doi.org/10.1021/ct900494g

 Guidon, M; Schiffmann, F; Hutter, J; VandeVondele, J. 
 JOURNAL OF CHEMICAL PHYSICS, 128 (21), 214104 (2008). 
 Ab initio molecular dynamics using hybrid density functionals.
 https://doi.org/10.1063/1.2931945

 Krack, M. 
 THEORETICAL CHEMISTRY ACCOUNTS, 114 (1-3), 145-152 (2005). 
 Pseudopotentials for H to Kr optimized for gradient-corrected
 exchange-correlation functionals.
 https://doi.org/10.1007/s00214-005-0655-y

 VandeVondele, J; Krack, M; Mohamed, F; Parrinello, M; Chassaing, T;
 Hutter, J. COMPUTER PHYSICS COMMUNICATIONS, 167 (2), 103-128 (2005). 
 QUICKSTEP: Fast and accurate density functional calculations using a
 mixed Gaussian and plane waves approach.
 https://doi.org/10.1016/j.cpc.2004.12.014

 Frigo, M; Johnson, SG. 
 PROCEEDINGS OF THE IEEE, 93 (2), 216-231 (2005). 
 The design and implementation of FFTW3.
 https://doi.org/10.1109/JPROC.2004.840301

 VandeVondele, J; Hutter, J. 
 JOURNAL OF CHEMICAL PHYSICS, 118 (10), 4365-4369 (2003). 
 An efficient orbital transformation method for electronic structure
 calculations.
 https://doi.org/10.1063/1.1543154

 Martyna, GJ; Tuckerman, ME. 
 JOURNAL OF CHEMICAL PHYSICS, 110 (6), 2810-2821 (1999). 
 A reciprocal space based method for treating long range interactions in
 ab initio and force-field-based calculations in clusters.
 https://doi.org/10.1063/1.477923

 Hartwigsen, C; Goedecker, S; Hutter, J. 
 PHYSICAL REVIEW B, 58 (7), 3641-3662 (1998). 
 Relativistic separable dual-space Gaussian pseudopotentials from H to Rn.
 https://doi.org/10.1103/PhysRevB.58.3641

 Lippert, G; Hutter, J; Parrinello, M. 
 MOLECULAR PHYSICS, 92 (3), 477-487 (1997). 
 A hybrid Gaussian and plane wave density functional scheme.
 https://doi.org/10.1080/002689797170220

 Perdew, JP; Burke, K; Ernzerhof, M. 
 PHYSICAL REVIEW LETTERS, 77 (18), 3865-3868 (1996). 
 Generalized gradient approximation made simple.
 https://doi.org/10.1103/PhysRevLett.77.3865

 Goedecker, S; Teter, M; Hutter, J. 
 PHYSICAL REVIEW B, 54 (3), 1703-1710 (1996). 
 Separable dual-space Gaussian pseudopotentials.
 https://doi.org/10.1103/PhysRevB.54.1703


 -------------------------------------------------------------------------------
 -                                                                             -
 -                                T I M I N G                                  -
 -                                                                             -
 -------------------------------------------------------------------------------
 SUBROUTINE                       CALLS  ASD         SELF TIME        TOTAL TIME
                                MAXIMUM       AVERAGE  MAXIMUM  AVERAGE  MAXIMUM
 CP2K                                 1  1.0    0.035    0.068   60.687   60.698
 qs_energies                          1  2.0    0.000    0.000   60.392   60.403
 scf_env_do_scf                       1  3.0    0.000    0.000   60.164   60.175
 qs_ks_update_qs_env                 29  5.0    0.000    0.000   56.000   56.011
 rebuild_ks_matrix                   26  6.0    0.000    0.000   55.996   56.007
 qs_ks_build_kohn_sham_matrix        26  7.0    0.004    0.005   55.996   56.007
 hfx_ks_matrix                       26  8.0    0.001    0.001   46.254   46.261
 integrate_four_center               26  9.0    0.022    0.024   46.252   46.260
 integrate_four_center_main          26 10.0    0.004    0.005   10.907   30.443
 integrate_four_center_bin         3276 11.0   10.903   30.440   10.903   30.440
 init_scf_loop                        3  4.0    0.000    0.000   30.323   30.328
 scf_env_do_scf_inner_loop           26  4.0    0.001    0.003   29.840   29.845
 mp_sync                            137 10.7   19.552   21.520   19.552   21.520
 calc_screening_functions             1 10.0   12.925   13.372   13.664   14.112
 pw_transfer                        501  9.6    0.044    0.056    6.393    7.317
 fft_wrap_pw1pw2                    449 10.7    0.006    0.007    6.299    7.233
 fft_wrap_pw1pw2_300                289 11.8    0.317    0.385    5.976    6.888
 fft3d_ps                           449 12.7    2.224    2.558    5.083    6.142
 qs_vxc_create                       26  8.0    0.001    0.001    5.928    5.944
 xc_vxc_pw_create                    26  9.0    0.045    0.047    5.927    5.943
 xc_rho_set_and_dset_create          26 10.0    0.025    0.029    3.227    3.699
 qs_rho_update_rho                   27  5.0    0.000    0.000    3.602    3.603
 calculate_rho_elec                  27  6.0    0.020    0.020    3.602    3.602
 mp_alltoall_z22v                   449 14.7    2.330    3.533    2.330    3.533
 rs_pw_transfer                     213  9.5    0.004    0.005    2.875    3.107
 sum_up_and_integrate                26  8.0    0.011    0.013    2.928    2.930
 integrate_v_rspace_low              26  9.0    0.145    0.884    2.917    2.920
 density_rs2pw                       27  7.0    0.001    0.002    2.671    2.889
 yz_to_x                            214 13.1    0.214    0.257    1.625    2.663
 potential_pw2rs                     26 10.0    0.002    0.002    2.015    2.018
 xc_functional_eval                  26 11.0    0.000    0.000    1.485    1.959
 pbe_lda_eval                        26 12.0    1.485    1.959    1.485    1.959
 grid_collocate_task_list            27  7.0    0.551    1.402    0.551    1.402
 x_to_yz                            235 14.2    0.302    0.341    1.221    1.400
 rs_pw_transfer_RS2PW_300            28  8.9    0.370    0.504    1.126    1.357
 calc_pair_dist_radii                 1 10.0    1.079    1.097    1.269    1.290
 mp_waitany                        2160 11.4    0.878    1.258    0.878    1.258
 -------------------------------------------------------------------------------

 The number of warnings for this run is : 0
 
 -------------------------------------------------------------------------------
  **** **** ******  **  PROGRAM ENDED AT                 2020-11-30 17:39:41.131
 ***** ** ***  *** **   PROGRAM RAN ON                                   tcopt10
 **    ****   ******    PROGRAM RAN BY                                    hutter
 ***** **    ** ** **   PROGRAM PROCESS ID                                 44602
  **** **  *******  **  PROGRAM STOPPED IN /data/hutter/GITHUB/BASIS/MOLOPT/PBE0
                                           /alsipscl
