 DBCSR| CPU Multiplication driver                                           XSMM
 DBCSR| Multrec recursion limit                                              512
 DBCSR| Multiplication stack size                                           1000
 DBCSR| Maximum elements for images                                    UNLIMITED
 DBCSR| Multiplicative factor virtual images                                   1
 DBCSR| Use multiplication densification                                       T
 DBCSR| Multiplication size stacks                                             3
 DBCSR| Use memory pool for CPU allocation                                     F
 DBCSR| Number of 3D layers                                               SINGLE
 DBCSR| Use MPI memory allocation                                              F
 DBCSR| Use RMA algorithm                                                      F
 DBCSR| Use Communication thread                                               T
 DBCSR| Communication thread load                                             87
 DBCSR| Split modifier for TAS multiplication algorithm                  1.0E+00


  **** **** ******  **  PROGRAM STARTED AT               2020-11-30 16:51:13.408
 ***** ** ***  *** **   PROGRAM STARTED ON                               tcopt10
 **    ****   ******    PROGRAM STARTED BY                                hutter
 ***** **    ** ** **   PROGRAM PROCESS ID                                 36608
  **** **  *******  **  PROGRAM STARTED IN /data/hutter/GITHUB/BASIS/MOLOPT/PBE0
                                           /alsipscl

 CP2K| version string:                    CP2K version 8.0 (Development Version)
 CP2K| source code revision number:                                  git:afc71fa
 CP2K| cp2kflags: omp libint fftw3 libxc elpa parallel mpi3 scalapack xsmm spgli
 CP2K|            b sirius
 CP2K| is freely available from                            https://www.cp2k.org/
 CP2K| Program compiled at                          Tue Nov 17 10:27:14 CET 2020
 CP2K| Program compiled on                                               tcopt10
 CP2K| Program compiled for                                                local
 CP2K| Data directory path                 /data/hutter/GITHUB/CURRENT/cp2k/data
 CP2K| Input file name                                               SF6-ref.inp

 GLOBAL| Force Environment number                                              1
 GLOBAL| Basis set file name                                  ../PBE0_UCSEGBASIS
 GLOBAL| Potential file name                                        ../POTENTIAL
 GLOBAL| MM Potential file name                                     MM_POTENTIAL
 GLOBAL| Coordinate file name                                      __STD_INPUT__
 GLOBAL| Method name                                                        CP2K
 GLOBAL| Project name                                                     refSF6
 GLOBAL| Preferred FFT library                                             FFTW3
 GLOBAL| Preferred diagonalization lib.                                     ELPA
 GLOBAL| Run type                                                         ENERGY
 GLOBAL| All-to-all communication in single precision                          F
 GLOBAL| FFTs using library dependent lengths                                  F
 GLOBAL| Global print level                                                  LOW
 GLOBAL| MPI I/O enabled                                                       T
 GLOBAL| Total number of message passing processes                            36
 GLOBAL| Number of threads for this process                                    1
 GLOBAL| This output is from process                                           0
 GLOBAL| CPU model name                          AMD EPYC 7401 24-Core Processor
 GLOBAL| CPUID                                                              1002

 MEMORY| system memory details [Kb]
 MEMORY|                        rank 0           min           max       average
 MEMORY| MemTotal            263987256     263987256     263987256     263987256
 MEMORY| MemFree             258260704     258260704     258260704     258260704
 MEMORY| Buffers                    32            32            32            32
 MEMORY| Cached                1945868       1945868       1945868       1945868
 MEMORY| Slab                   769772        769772        769772        769772
 MEMORY| SReclaimable           277252        277252        277252        277252
 MEMORY| MemLikelyFree       260483856     260483856     260483856     260483856


 GENERATE|  Preliminary Number of Bonds generated:                             0
 GENERATE|  Achieved consistency in connectivity generation.

 *******************************************************************************
 *   ___                                                                       *
 *  /   \                                                                      *
 * [ABORT]                                                                     *
 *  \___/  The requested atomic potential <GTH-PBE-q6> for element <S> was not *
 *    |                 found in the potential file <../POTENTIAL>             *
 *  O/|                                                                        *
 * /| |                                                                        *
 * / \                                  subsys/external_potential_types.F:2325 *
 *******************************************************************************


 ===== Routine Calling Stack ===== 

            3 read_qs_kind
            2 create_qs_kind_set
            1 CP2K
 DBCSR| CPU Multiplication driver                                           XSMM
 DBCSR| Multrec recursion limit                                              512
 DBCSR| Multiplication stack size                                           1000
 DBCSR| Maximum elements for images                                    UNLIMITED
 DBCSR| Multiplicative factor virtual images                                   1
 DBCSR| Use multiplication densification                                       T
 DBCSR| Multiplication size stacks                                             3
 DBCSR| Use memory pool for CPU allocation                                     F
 DBCSR| Number of 3D layers                                               SINGLE
 DBCSR| Use MPI memory allocation                                              F
 DBCSR| Use RMA algorithm                                                      F
 DBCSR| Use Communication thread                                               T
 DBCSR| Communication thread load                                             87
 DBCSR| Split modifier for TAS multiplication algorithm                  1.0E+00


  **** **** ******  **  PROGRAM STARTED AT               2020-11-30 17:39:41.368
 ***** ** ***  *** **   PROGRAM STARTED ON                               tcopt10
 **    ****   ******    PROGRAM STARTED BY                                hutter
 ***** **    ** ** **   PROGRAM PROCESS ID                                 44849
  **** **  *******  **  PROGRAM STARTED IN /data/hutter/GITHUB/BASIS/MOLOPT/PBE0
                                           /alsipscl

 CP2K| version string:                    CP2K version 8.0 (Development Version)
 CP2K| source code revision number:                                  git:afc71fa
 CP2K| cp2kflags: omp libint fftw3 libxc elpa parallel mpi3 scalapack xsmm spgli
 CP2K|            b sirius
 CP2K| is freely available from                            https://www.cp2k.org/
 CP2K| Program compiled at                          Tue Nov 17 10:27:14 CET 2020
 CP2K| Program compiled on                                               tcopt10
 CP2K| Program compiled for                                                local
 CP2K| Data directory path                 /data/hutter/GITHUB/CURRENT/cp2k/data
 CP2K| Input file name                                               SF6-ref.inp

 GLOBAL| Force Environment number                                              1
 GLOBAL| Basis set file name                                  ../PBE0_UCSEGBASIS
 GLOBAL| Potential file name                                        ../POTENTIAL
 GLOBAL| MM Potential file name                                     MM_POTENTIAL
 GLOBAL| Coordinate file name                                      __STD_INPUT__
 GLOBAL| Method name                                                        CP2K
 GLOBAL| Project name                                                     refSF6
 GLOBAL| Preferred FFT library                                             FFTW3
 GLOBAL| Preferred diagonalization lib.                                     ELPA
 GLOBAL| Run type                                                         ENERGY
 GLOBAL| All-to-all communication in single precision                          F
 GLOBAL| FFTs using library dependent lengths                                  F
 GLOBAL| Global print level                                                  LOW
 GLOBAL| MPI I/O enabled                                                       T
 GLOBAL| Total number of message passing processes                            36
 GLOBAL| Number of threads for this process                                    1
 GLOBAL| This output is from process                                           0
 GLOBAL| CPU model name                          AMD EPYC 7401 24-Core Processor
 GLOBAL| CPUID                                                              1002

 MEMORY| system memory details [Kb]
 MEMORY|                        rank 0           min           max       average
 MEMORY| MemTotal            263987256     263987256     263987256     263987256
 MEMORY| MemFree             258448592     258448592     258448592     258448592
 MEMORY| Buffers                    32            32            32            32
 MEMORY| Cached                1967896       1967896       1967896       1967896
 MEMORY| Slab                   772652        772652        772652        772652
 MEMORY| SReclaimable           281660        281660        281660        281660
 MEMORY| MemLikelyFree       260698180     260698180     260698180     260698180


 GENERATE|  Preliminary Number of Bonds generated:                             0
 GENERATE|  Achieved consistency in connectivity generation.

 *******************************************************************************
 *******************************************************************************
 **                                                                           **
 **     #####                         ##              ##                      **
 **    ##   ##            ##          ##              ##                      **
 **   ##     ##                       ##            ######                    **
 **   ##     ##  ##   ##  ##   #####  ##  ##   ####   ##    #####    #####    **
 **   ##     ##  ##   ##  ##  ##      ## ##   ##      ##   ##   ##  ##   ##   **
 **   ##  ## ##  ##   ##  ##  ##      ####     ###    ##   ######   ######    **
 **    ##  ###   ##   ##  ##  ##      ## ##      ##   ##   ##       ##        **
 **     #######   #####   ##   #####  ##  ##  ####    ##    #####   ##        **
 **           ##                                                    ##        **
 **                                                                           **
 **                                                ... make the atoms dance   **
 **                                                                           **
 **            Copyright (C) by CP2K developers group (2000 - 2020)           **
 **                      J. Chem. Phys. 152, 194103 (2020)                    **
 **                                                                           **
 *******************************************************************************


 TOTAL NUMBERS AND MAXIMUM NUMBERS

  Total number of            - Atomic kinds:                                   2
                             - Atoms:                                          7
                             - Shell sets:                                    84
                             - Shells:                                       148
                             - Primitive Cartesian functions:                 84
                             - Cartesian basis functions:                    492
                             - Spherical basis functions:                    428

  Maximum angular momentum of- Orbital basis functions:                        4
                             - Local part of the GTH pseudopotential:          2
                             - Non-local part of the GTH pseudopotential:      2


 SCF PARAMETERS         Density guess:                                    ATOMIC
                        --------------------------------------------------------
                        max_scf:                                              10
                        max_scf_history:                                       0
                        max_diis:                                              4
                        --------------------------------------------------------
                        eps_scf:                                        1.00E-07
                        eps_scf_history:                                0.00E+00
                        eps_diis:                                       1.00E-01
                        eps_eigval:                                     1.00E-05
                        --------------------------------------------------------
                        level_shift [a.u.]:                                 0.00
                        --------------------------------------------------------
                        Outer loop SCF in use 
                        No variables optimised in outer loop
                        eps_scf                                         1.00E-07
                        max_scf                                               10
                        No outer loop optimization
                        step_size                                       5.00E-01

 Number of electrons:                                                         48
 Number of occupied orbitals:                                                 24
 Number of molecular orbitals:                                                24

 Number of orbital functions:                                                428
 Number of independent orbital functions:                                    428

 Extrapolation method: initial_guess


 SCF WAVEFUNCTION OPTIMIZATION

  ----------------------------------- OT ---------------------------------------
  Minimizer      : DIIS                : direct inversion
                                         in the iterative subspace
                                         using   7 DIIS vectors
                                         safer DIIS on
  Preconditioner : FULL_ALL            : diagonalization, state selective
  Precond_solver : DEFAULT
  stepsize       :    0.15000000                  energy_gap     :    0.08000000
  eps_taylor     :   0.10000E-15                  max_taylor     :             4
  ----------------------------------- OT ---------------------------------------

  Step     Update method      Time    Convergence         Total energy    Change
  ------------------------------------------------------------------------------
     1 OT DIIS     0.15E+00   29.7     0.06205644      -151.8704837187 -1.52E+02
     2 OT DIIS     0.15E+00    1.7     0.07672302      -153.2342218107 -1.36E+00
     3 OT DIIS     0.15E+00    1.5     0.03509068      -154.5554089632 -1.32E+00
     4 OT DIIS     0.15E+00    1.6     0.01730437      -155.2228954675 -6.67E-01
     5 OT DIIS     0.15E+00    1.5     0.01076092      -155.3992436567 -1.76E-01
     6 OT DIIS     0.15E+00    1.5     0.00671344      -155.4521427862 -5.29E-02
     7 OT DIIS     0.15E+00    1.5     0.00360410      -155.4664061932 -1.43E-02
     8 OT DIIS     0.15E+00    1.5     0.00315378      -155.4688622442 -2.46E-03
     9 OT DIIS     0.15E+00    1.5     0.00158071      -155.4720021637 -3.14E-03
    10 OT DIIS     0.15E+00    1.5     0.00090457      -155.4728390294 -8.37E-04

  Leaving inner SCF loop after reaching    10 steps.


  Electronic density on regular grids:        -48.0000002145       -0.0000002145
  Core density on regular grids:               48.0000000000        0.0000000000
  Total charge density on r-space grids:       -0.0000002145
  Total charge density g-space grids:          -0.0000002145

  Overlap energy of the core charge distribution:               0.00000001097471
  Self energy of the core charge distribution:               -417.50786945806203
  Core Hamiltonian energy:                                    114.62110539497368
  Hartree energy:                                             177.72351553338569
  Exchange-correlation energy:                                -23.25359162805997
  Hartree-Fock Exchange energy:                                -7.05599888262191

  Total energy:                                              -155.47283902940984

  outer SCF iter =    1 RMS gradient =   0.90E-03 energy =       -155.4728390294

  ----------------------------------- OT ---------------------------------------
  Minimizer      : DIIS                : direct inversion
                                         in the iterative subspace
                                         using   7 DIIS vectors
                                         safer DIIS on
  Preconditioner : FULL_ALL            : diagonalization, state selective
  Precond_solver : DEFAULT
  stepsize       :    0.15000000                  energy_gap     :    0.08000000
  eps_taylor     :   0.10000E-15                  max_taylor     :             4
  ----------------------------------- OT ---------------------------------------

  Step     Update method      Time    Convergence         Total energy    Change
  ------------------------------------------------------------------------------
     1 OT DIIS     0.15E+00    3.1     0.00039807      -155.4732818019 -4.43E-04
     2 OT DIIS     0.15E+00    1.5     0.00017910      -155.4734491951 -1.67E-04
     3 OT DIIS     0.15E+00    1.5     0.00007685      -155.4734867771 -3.76E-05
     4 OT DIIS     0.15E+00    1.5     0.00001006      -155.4734914536 -4.68E-06
     5 OT DIIS     0.15E+00    1.5     0.00000293      -155.4734915987 -1.45E-07
     6 OT DIIS     0.15E+00    1.5     0.00000107      -155.4734916070 -8.34E-09
     7 OT DIIS     0.15E+00    1.5     0.00000021      -155.4734916080 -9.77E-10
     8 OT DIIS     0.15E+00    1.5     0.00000007      -155.4734916081 -5.85E-11

  *** SCF run converged in     8 steps ***


  Electronic density on regular grids:        -48.0000002146       -0.0000002146
  Core density on regular grids:               48.0000000000        0.0000000000
  Total charge density on r-space grids:       -0.0000002146
  Total charge density g-space grids:          -0.0000002146

  Overlap energy of the core charge distribution:               0.00000001097471
  Self energy of the core charge distribution:               -417.50786945806203
  Core Hamiltonian energy:                                    114.62043561174089
  Hartree energy:                                             177.72333648014853
  Exchange-correlation energy:                                -23.25336875495967
  Hartree-Fock Exchange energy:                                -7.05602549792587

  Total energy:                                              -155.47349160808344

  outer SCF iter =    2 RMS gradient =   0.68E-07 energy =       -155.4734916081
  outer SCF loop converged in   2 iterations or   18 steps


 ENERGY| Total FORCE_EVAL ( QS ) energy [a.u.]:             -155.473491608083435

 -------------------------------------------------------------------------------
 -                                                                             -
 -                                DBCSR STATISTICS                             -
 -                                                                             -
 -------------------------------------------------------------------------------
 COUNTER                                    TOTAL       BLAS       SMM       ACC
 flops    24 x    24 x    24              3538944       0.0%    100.0%      0.0%
 flops    24 x    24 x   104              8865792       0.0%    100.0%      0.0%
 flops    24 x    24 x   116              9888768       0.0%    100.0%      0.0%
 flops   104 x    24 x    24             11022336       0.0%    100.0%      0.0%
 flops   116 x   116 x    24             12271872       0.0%    100.0%      0.0%
 flops   116 x    24 x    24             12294144       0.0%    100.0%      0.0%
 flops    52 x   116 x    24             16503552       0.0%    100.0%      0.0%
 flops   116 x    52 x    24             16503552       0.0%    100.0%      0.0%
 flops    24 x    24 x    52             17731584       0.0%    100.0%      0.0%
 flops   104 x    24 x   104             20766720       0.0%    100.0%      0.0%
 flops    52 x    24 x    24             22044672       0.0%    100.0%      0.0%
 flops   116 x    24 x   104             23162880       0.0%    100.0%      0.0%
 flops   104 x    24 x   116             23162880       0.0%    100.0%      0.0%
 flops   104 x    24 x    52             41533440       0.0%    100.0%      0.0%
 flops    52 x    24 x   104             41533440       0.0%    100.0%      0.0%
 flops    52 x    52 x    24             51787008       0.0%    100.0%      0.0%
 flops   116 x    24 x   116             58129920       0.0%    100.0%      0.0%
 flops   116 x    24 x    52            133186560       0.0%    100.0%      0.0%
 flops    52 x    24 x   116            133186560       0.0%    100.0%      0.0%
 flops    52 x    24 x    52            316692480       0.0%    100.0%      0.0%
 flops inhomo. stacks                           0       0.0%      0.0%      0.0%
 flops total                       973.807104E+06       0.0%    100.0%      0.0%
 flops max/rank                    279.070464E+06       0.0%    100.0%      0.0%
 matmuls inhomo. stacks                         0       0.0%      0.0%      0.0%
 matmuls total                               5546       0.0%    100.0%      0.0%
 number of processed stacks                  4858       0.0%    100.0%      0.0%
 average stack size                                     0.0       1.1       0.0
 marketing flops                     1.044792E+09
 -------------------------------------------------------------------------------
 # multiplications                            405
 max memory usage/rank               1.450533E+09
 # max total images/rank                        1
 # max 3D layers                                1
 # MPI messages exchanged                  145800
 MPI messages size (bytes):
  total size                       818.684160E+06
  min size                           0.000000E+00
  max size                         107.648000E+03
  average size                       5.615118E+03
 MPI breakdown and total messages size (bytes):
             size <=      128              116820                        0
       128 < size <=     8192                1740                  8017920
      8192 < size <=    32768               18240                306954240
     32768 < size <=   131072                9000                503712000
    131072 < size <=  4194304                   0                        0
   4194304 < size <= 16777216                   0                        0
  16777216 < size                               0                        0
 -------------------------------------------------------------------------------
 -                                                                             -
 -                      DBCSR MESSAGE PASSING PERFORMANCE                      -
 -                                                                             -
 -------------------------------------------------------------------------------
 ROUTINE             CALLS      AVE VOLUME [Bytes]
 MP_Bcast               21                     12.
 MP_Allreduce         2193                      8.
 MP_Alltoall          1634                   5521.
 MP_ISend             9712                   4832.
 MP_IRecv             9712                   4208.
 -------------------------------------------------------------------------------

 -------------------------------------------------------------------------------
 -                                                                             -
 -                                GRID STATISTICS                              -
 -                                                                             -
 -------------------------------------------------------------------------------
 LP    KERNEL    OPERATION                                     COUNT     PERCENT
 0     general   collocate                                       252       0.18%
 2     ortho     integrate                                     27720      20.28%
 2     ortho     collocate                                     29260      21.41%
 3     ortho     integrate                                     26028      19.04%
 3     ortho     collocate                                     27474      20.10%
 4     ortho     integrate                                      5994       4.39%
 4     ortho     collocate                                      6327       4.63%
 5     ortho     integrate                                      4608       3.37%
 5     ortho     collocate                                      4864       3.56%
 6     ortho     integrate                                      1728       1.26%
 6     ortho     collocate                                      1824       1.33%
 8     ortho     integrate                                       288       0.21%
 8     ortho     collocate                                       304       0.22%
 -------------------------------------------------------------------------------

 MEMORY| Estimated peak process memory [MiB]                                1384

 -------------------------------------------------------------------------------
 -                                                                             -
 -                         MESSAGE PASSING PERFORMANCE                         -
 -                                                                             -
 -------------------------------------------------------------------------------

 ROUTINE             CALLS      AVE VOLUME [Bytes]
 MP_Group                5
 MP_Bcast              482                 378862.
 MP_Allreduce         1309                   1141.
 MP_Sync                97
 MP_Alltoall           362                6207428.
 MP_ISendRecv         5215                 112415.
 MP_Wait              6849
 MP_ISend             1520                 291600.
 MP_IRecv             1520                 291600.
 MP_Recv                 5                  13696.
 -------------------------------------------------------------------------------


 -------------------------------------------------------------------------------
 -                                                                             -
 -                           R E F E R E N C E S                               -
 -                                                                             -
 -------------------------------------------------------------------------------
 
 CP2K version 8.0 (Development Version), the CP2K developers group (2020).
 CP2K is freely available from https://www.cp2k.org/ .

 Kuehne,Thomas D.; Iannuzzi,Marcella; Del Ben,Mauro;
 Rybkin,Vladimir V.; Seewald,Patrick; Stein,Frederick; Laino,Teodoro;
 Khaliullin,Rustam Z.; Schuett,Ole; Schiffmann,Florian; Golze,Dorothea;
 Wilhelm,Jan; Chulkov,Sergey; Bani-Hashemian,Mohammad Hossein;
 Weber,Valery; Borstnik,Urban; Taillefumier,Mathieu;
 Jakobovits,Alice Shoshana; Lazzaro,Alfio; Pabst,Hans; Mueller,Tiziano;
 Schade,Robert; Guidon,Manuel; Andermatt,Samuel; Holmberg,Nico;
 Schenter,Gregory K.; Hehn,Anna; Bussy,Augustin; Belleflamme,Fabian;
 Tabacchi,Gloria; Gloess,Andreas; Lass,Michael; Bethune,Iain;
 Mundy,Christopher J.; Plessl,Christian; Watkins,Matt;
 VandeVondele,Joost; Krack,Matthias; Hutter,Juerg. 
 The Journal of Chemical Physics, 152 (19), (2020). 
 CP2K: An electronic structure and molecular dynamics software package -
 Quickstep: Efficient and accurate electronic structure calculations.
 https://doi.org/10.1063/5.0007045

 Schuett, Ole; Messmer, Peter; Hutter, Juerg; VandeVondele, Joost. 
 Electronic Structure Calculations on Graphics Processing Units, John
 Wiley & Sons, Ltd, 173-190 (2016). 
 GPU-Accelerated Sparse Matrix-Matrix Multiplication for
 Linear Scaling Density Functional Theory.
 https://doi.org/10.1002/9781118670712.ch8

 Borstnik, U; VandeVondele, J; Weber, V; Hutter, J. 
 PARALLEL COMPUTING, 40 (5-6), 47-58 (2014). 
 Sparse matrix multiplication: The distributed block-compressed sparse
 row library.
 https://doi.org/10.1016/j.parco.2014.03.012

 Hutter, J; Iannuzzi, M; Schiffmann, F; VandeVondele, J. 
 WIREs Comput Mol Sci., 4 (1), 15-25 (2014). 
 CP2K: atomistic simulations of condensed matter systems.
 https://doi.org/10.1002/wcms.1159

 Marek, A; Blum, V; Johanni, R; Havu, V; Lang, B; Auckenthaler, T;
 Heinecke, A; Bungartz, H; Lederer, H. 
 Journal of Physics: Condensed Matter, 26 (21), (2014). 
 The ELPA library: scalable parallel eigenvalue solutions for
 electronic structure
 theory and computational science.
 https://doi.org/10.1088/0953-8984/26/21/213201

 Guidon, M; Hutter, J; VandeVondele, J. 
 JOURNAL OF CHEMICAL THEORY AND COMPUTATION, 5 (11), 3010-3021 (2009). 
 Robust Periodic Hartree-Fock Exchange for Large-Scale Simulations Using
 Gaussian Basis Sets.
 https://doi.org/10.1021/ct900494g

 Guidon, M; Schiffmann, F; Hutter, J; VandeVondele, J. 
 JOURNAL OF CHEMICAL PHYSICS, 128 (21), 214104 (2008). 
 Ab initio molecular dynamics using hybrid density functionals.
 https://doi.org/10.1063/1.2931945

 Krack, M. 
 THEORETICAL CHEMISTRY ACCOUNTS, 114 (1-3), 145-152 (2005). 
 Pseudopotentials for H to Kr optimized for gradient-corrected
 exchange-correlation functionals.
 https://doi.org/10.1007/s00214-005-0655-y

 VandeVondele, J; Krack, M; Mohamed, F; Parrinello, M; Chassaing, T;
 Hutter, J. COMPUTER PHYSICS COMMUNICATIONS, 167 (2), 103-128 (2005). 
 QUICKSTEP: Fast and accurate density functional calculations using a
 mixed Gaussian and plane waves approach.
 https://doi.org/10.1016/j.cpc.2004.12.014

 Frigo, M; Johnson, SG. 
 PROCEEDINGS OF THE IEEE, 93 (2), 216-231 (2005). 
 The design and implementation of FFTW3.
 https://doi.org/10.1109/JPROC.2004.840301

 VandeVondele, J; Hutter, J. 
 JOURNAL OF CHEMICAL PHYSICS, 118 (10), 4365-4369 (2003). 
 An efficient orbital transformation method for electronic structure
 calculations.
 https://doi.org/10.1063/1.1543154

 Martyna, GJ; Tuckerman, ME. 
 JOURNAL OF CHEMICAL PHYSICS, 110 (6), 2810-2821 (1999). 
 A reciprocal space based method for treating long range interactions in
 ab initio and force-field-based calculations in clusters.
 https://doi.org/10.1063/1.477923

 Hartwigsen, C; Goedecker, S; Hutter, J. 
 PHYSICAL REVIEW B, 58 (7), 3641-3662 (1998). 
 Relativistic separable dual-space Gaussian pseudopotentials from H to Rn.
 https://doi.org/10.1103/PhysRevB.58.3641

 Lippert, G; Hutter, J; Parrinello, M. 
 MOLECULAR PHYSICS, 92 (3), 477-487 (1997). 
 A hybrid Gaussian and plane wave density functional scheme.
 https://doi.org/10.1080/002689797170220

 Perdew, JP; Burke, K; Ernzerhof, M. 
 PHYSICAL REVIEW LETTERS, 77 (18), 3865-3868 (1996). 
 Generalized gradient approximation made simple.
 https://doi.org/10.1103/PhysRevLett.77.3865

 Goedecker, S; Teter, M; Hutter, J. 
 PHYSICAL REVIEW B, 54 (3), 1703-1710 (1996). 
 Separable dual-space Gaussian pseudopotentials.
 https://doi.org/10.1103/PhysRevB.54.1703


 -------------------------------------------------------------------------------
 -                                                                             -
 -                                T I M I N G                                  -
 -                                                                             -
 -------------------------------------------------------------------------------
 SUBROUTINE                       CALLS  ASD         SELF TIME        TOTAL TIME
                                MAXIMUM       AVERAGE  MAXIMUM  AVERAGE  MAXIMUM
 CP2K                                 1  1.0    0.086    0.110   56.309   56.311
 qs_energies                          1  2.0    0.000    0.000   55.975   55.977
 scf_env_do_scf                       1  3.0    0.000    0.000   55.731   55.733
 qs_ks_update_qs_env                 20  5.0    0.000    0.000   52.696   52.699
 rebuild_ks_matrix                   18  6.0    0.000    0.000   52.694   52.698
 qs_ks_build_kohn_sham_matrix        18  7.0    0.003    0.003   52.694   52.698
 hfx_ks_matrix                       18  8.0    0.001    0.001   45.861   45.863
 integrate_four_center               18  9.0    0.018    0.020   45.859   45.861
 init_scf_loop                        2  4.0    0.000    0.000   31.047   31.049
 integrate_four_center_main          18 10.0    0.003    0.004   21.459   30.025
 integrate_four_center_bin         2106 11.0   21.456   30.022   21.456   30.022
 scf_env_do_scf_inner_loop           18  4.0    0.001    0.002   24.683   24.683
 calc_screening_functions             1 10.0   12.921   13.474   13.660   14.206
 mp_sync                             97 10.7    8.581    9.765    8.581    9.765
 pw_transfer                        349  9.6    0.031    0.040    4.374    5.038
 fft_wrap_pw1pw2                    313 10.7    0.004    0.005    4.309    4.984
 fft_wrap_pw1pw2_300                201 11.8    0.221    0.261    4.048    4.716
 fft3d_ps                           313 12.7    1.556    1.671    3.458    4.191
 qs_vxc_create                       18  8.0    0.000    0.001    4.012    4.023
 xc_vxc_pw_create                    18  9.0    0.031    0.033    4.011    4.022
 qs_rho_update_rho                   19  5.0    0.000    0.000    2.629    2.630
 calculate_rho_elec                  19  6.0    0.014    0.014    2.629    2.630
 xc_rho_set_and_dset_create          18 10.0    0.017    0.020    2.228    2.517
 mp_alltoall_z22v                   313 14.7    1.529    2.357    1.529    2.357
 rs_pw_transfer                     149  9.4    0.003    0.004    2.059    2.221
 sum_up_and_integrate                18  8.0    0.007    0.009    2.160    2.162
 integrate_v_rspace_low              18  9.0    0.167    0.748    2.153    2.155
 density_rs2pw                       19  7.0    0.001    0.001    1.912    2.070
 yz_to_x                            150 13.1    0.154    0.180    1.034    1.763
 potential_pw2rs                     18 10.0    0.001    0.002    1.390    1.392
 xc_functional_eval                  18 11.0    0.000    0.000    1.018    1.308
 pbe_lda_eval                        18 12.0    1.018    1.308    1.018    1.308
 calc_pair_dist_radii                 1 10.0    1.078    1.085    1.269    1.276
 -------------------------------------------------------------------------------

 The number of warnings for this run is : 0
 
 -------------------------------------------------------------------------------
  **** **** ******  **  PROGRAM ENDED AT                 2020-11-30 17:40:38.413
 ***** ** ***  *** **   PROGRAM RAN ON                                   tcopt10
 **    ****   ******    PROGRAM RAN BY                                    hutter
 ***** **    ** ** **   PROGRAM PROCESS ID                                 44849
  **** **  *******  **  PROGRAM STOPPED IN /data/hutter/GITHUB/BASIS/MOLOPT/PBE0
                                           /alsipscl
