 DBCSR| CPU Multiplication driver                                           XSMM
 DBCSR| Multrec recursion limit                                              512
 DBCSR| Multiplication stack size                                           1000
 DBCSR| Maximum elements for images                                    UNLIMITED
 DBCSR| Multiplicative factor virtual images                                   1
 DBCSR| Use multiplication densification                                       T
 DBCSR| Multiplication size stacks                                             3
 DBCSR| Use memory pool for CPU allocation                                     F
 DBCSR| Number of 3D layers                                               SINGLE
 DBCSR| Use MPI memory allocation                                              F
 DBCSR| Use RMA algorithm                                                      F
 DBCSR| Use Communication thread                                               T
 DBCSR| Communication thread load                                             87
 DBCSR| Split modifier for TAS multiplication algorithm                  1.0E+00


  **** **** ******  **  PROGRAM STARTED AT               2020-11-30 16:51:15.078
 ***** ** ***  *** **   PROGRAM STARTED ON                               tcopt10
 **    ****   ******    PROGRAM STARTED BY                                hutter
 ***** **    ** ** **   PROGRAM PROCESS ID                                 36908
  **** **  *******  **  PROGRAM STARTED IN /data/hutter/GITHUB/BASIS/MOLOPT/PBE0
                                           /alsipscl

 CP2K| version string:                    CP2K version 8.0 (Development Version)
 CP2K| source code revision number:                                  git:afc71fa
 CP2K| cp2kflags: omp libint fftw3 libxc elpa parallel mpi3 scalapack xsmm spgli
 CP2K|            b sirius
 CP2K| is freely available from                            https://www.cp2k.org/
 CP2K| Program compiled at                          Tue Nov 17 10:27:14 CET 2020
 CP2K| Program compiled on                                               tcopt10
 CP2K| Program compiled for                                                local
 CP2K| Data directory path                 /data/hutter/GITHUB/CURRENT/cp2k/data
 CP2K| Input file name                                              SiF4-ref.inp

 GLOBAL| Force Environment number                                              1
 GLOBAL| Basis set file name                                  ../PBE0_UCSEGBASIS
 GLOBAL| Potential file name                                        ../POTENTIAL
 GLOBAL| MM Potential file name                                     MM_POTENTIAL
 GLOBAL| Coordinate file name                                      __STD_INPUT__
 GLOBAL| Method name                                                        CP2K
 GLOBAL| Project name                                                    refSiF4
 GLOBAL| Preferred FFT library                                             FFTW3
 GLOBAL| Preferred diagonalization lib.                                     ELPA
 GLOBAL| Run type                                                         ENERGY
 GLOBAL| All-to-all communication in single precision                          F
 GLOBAL| FFTs using library dependent lengths                                  F
 GLOBAL| Global print level                                                  LOW
 GLOBAL| MPI I/O enabled                                                       T
 GLOBAL| Total number of message passing processes                            36
 GLOBAL| Number of threads for this process                                    1
 GLOBAL| This output is from process                                           0
 GLOBAL| CPU model name                          AMD EPYC 7401 24-Core Processor
 GLOBAL| CPUID                                                              1002

 MEMORY| system memory details [Kb]
 MEMORY|                        rank 0           min           max       average
 MEMORY| MemTotal            263987256     263987256     263987256     263987256
 MEMORY| MemFree             258275064     258275064     258275064     258275064
 MEMORY| Buffers                    32            32            32            32
 MEMORY| Cached                1946924       1946924       1946924       1946924
 MEMORY| Slab                   770056        770056        770056        770056
 MEMORY| SReclaimable           277316        277316        277316        277316
 MEMORY| MemLikelyFree       260499336     260499336     260499336     260499336


 GENERATE|  Preliminary Number of Bonds generated:                             0
 GENERATE|  Achieved consistency in connectivity generation.

 *******************************************************************************
 *   ___                                                                       *
 *  /   \                                                                      *
 * [ABORT]                                                                     *
 *  \___/    The requested atomic potential <GTH-PBE-q4> for element <Si> was  *
 *    |               not found in the potential file <../POTENTIAL>           *
 *  O/|                                                                        *
 * /| |                                                                        *
 * / \                                  subsys/external_potential_types.F:2325 *
 *******************************************************************************


 ===== Routine Calling Stack ===== 

            3 read_qs_kind
            2 create_qs_kind_set
            1 CP2K
 DBCSR| CPU Multiplication driver                                           XSMM
 DBCSR| Multrec recursion limit                                              512
 DBCSR| Multiplication stack size                                           1000
 DBCSR| Maximum elements for images                                    UNLIMITED
 DBCSR| Multiplicative factor virtual images                                   1
 DBCSR| Use multiplication densification                                       T
 DBCSR| Multiplication size stacks                                             3
 DBCSR| Use memory pool for CPU allocation                                     F
 DBCSR| Number of 3D layers                                               SINGLE
 DBCSR| Use MPI memory allocation                                              F
 DBCSR| Use RMA algorithm                                                      F
 DBCSR| Use Communication thread                                               T
 DBCSR| Communication thread load                                             87
 DBCSR| Split modifier for TAS multiplication algorithm                  1.0E+00


  **** **** ******  **  PROGRAM STARTED AT               2020-11-30 17:43:08.857
 ***** ** ***  *** **   PROGRAM STARTED ON                               tcopt10
 **    ****   ******    PROGRAM STARTED BY                                hutter
 ***** **    ** ** **   PROGRAM PROCESS ID                                 45423
  **** **  *******  **  PROGRAM STARTED IN /data/hutter/GITHUB/BASIS/MOLOPT/PBE0
                                           /alsipscl

 CP2K| version string:                    CP2K version 8.0 (Development Version)
 CP2K| source code revision number:                                  git:afc71fa
 CP2K| cp2kflags: omp libint fftw3 libxc elpa parallel mpi3 scalapack xsmm spgli
 CP2K|            b sirius
 CP2K| is freely available from                            https://www.cp2k.org/
 CP2K| Program compiled at                          Tue Nov 17 10:27:14 CET 2020
 CP2K| Program compiled on                                               tcopt10
 CP2K| Program compiled for                                                local
 CP2K| Data directory path                 /data/hutter/GITHUB/CURRENT/cp2k/data
 CP2K| Input file name                                              SiF4-ref.inp

 GLOBAL| Force Environment number                                              1
 GLOBAL| Basis set file name                                  ../PBE0_UCSEGBASIS
 GLOBAL| Potential file name                                        ../POTENTIAL
 GLOBAL| MM Potential file name                                     MM_POTENTIAL
 GLOBAL| Coordinate file name                                      __STD_INPUT__
 GLOBAL| Method name                                                        CP2K
 GLOBAL| Project name                                                    refSiF4
 GLOBAL| Preferred FFT library                                             FFTW3
 GLOBAL| Preferred diagonalization lib.                                     ELPA
 GLOBAL| Run type                                                         ENERGY
 GLOBAL| All-to-all communication in single precision                          F
 GLOBAL| FFTs using library dependent lengths                                  F
 GLOBAL| Global print level                                                  LOW
 GLOBAL| MPI I/O enabled                                                       T
 GLOBAL| Total number of message passing processes                            36
 GLOBAL| Number of threads for this process                                    1
 GLOBAL| This output is from process                                           0
 GLOBAL| CPU model name                          AMD EPYC 7401 24-Core Processor
 GLOBAL| CPUID                                                              1002

 MEMORY| system memory details [Kb]
 MEMORY|                        rank 0           min           max       average
 MEMORY| MemTotal            263987256     263987256     263987256     263987256
 MEMORY| MemFree             258466292     258466292     258466292     258466292
 MEMORY| Buffers                    32            32            32            32
 MEMORY| Cached                1969900       1969900       1969900       1969900
 MEMORY| Slab                   772512        772512        772512        772512
 MEMORY| SReclaimable           280668        280668        280668        280668
 MEMORY| MemLikelyFree       260716892     260716892     260716892     260716892


 GENERATE|  Preliminary Number of Bonds generated:                             0
 GENERATE|  Achieved consistency in connectivity generation.

 *******************************************************************************
 *******************************************************************************
 **                                                                           **
 **     #####                         ##              ##                      **
 **    ##   ##            ##          ##              ##                      **
 **   ##     ##                       ##            ######                    **
 **   ##     ##  ##   ##  ##   #####  ##  ##   ####   ##    #####    #####    **
 **   ##     ##  ##   ##  ##  ##      ## ##   ##      ##   ##   ##  ##   ##   **
 **   ##  ## ##  ##   ##  ##  ##      ####     ###    ##   ######   ######    **
 **    ##  ###   ##   ##  ##  ##      ## ##      ##   ##   ##       ##        **
 **     #######   #####   ##   #####  ##  ##  ####    ##    #####   ##        **
 **           ##                                                    ##        **
 **                                                                           **
 **                                                ... make the atoms dance   **
 **                                                                           **
 **            Copyright (C) by CP2K developers group (2000 - 2020)           **
 **                      J. Chem. Phys. 152, 194103 (2020)                    **
 **                                                                           **
 *******************************************************************************


 TOTAL NUMBERS AND MAXIMUM NUMBERS

  Total number of            - Atomic kinds:                                   2
                             - Atoms:                                          5
                             - Shell sets:                                    60
                             - Shells:                                       108
                             - Primitive Cartesian functions:                 60
                             - Cartesian basis functions:                    380
                             - Spherical basis functions:                    324

  Maximum angular momentum of- Orbital basis functions:                        4
                             - Local part of the GTH pseudopotential:          2
                             - Non-local part of the GTH pseudopotential:      2


 SCF PARAMETERS         Density guess:                                    ATOMIC
                        --------------------------------------------------------
                        max_scf:                                              10
                        max_scf_history:                                       0
                        max_diis:                                              4
                        --------------------------------------------------------
                        eps_scf:                                        1.00E-07
                        eps_scf_history:                                0.00E+00
                        eps_diis:                                       1.00E-01
                        eps_eigval:                                     1.00E-05
                        --------------------------------------------------------
                        level_shift [a.u.]:                                 0.00
                        --------------------------------------------------------
                        Outer loop SCF in use 
                        No variables optimised in outer loop
                        eps_scf                                         1.00E-07
                        max_scf                                               10
                        No outer loop optimization
                        step_size                                       5.00E-01

 Number of electrons:                                                         32
 Number of occupied orbitals:                                                 16
 Number of molecular orbitals:                                                16

 Number of orbital functions:                                                324
 Number of independent orbital functions:                                    324

 Extrapolation method: initial_guess


 SCF WAVEFUNCTION OPTIMIZATION

  ----------------------------------- OT ---------------------------------------
  Minimizer      : DIIS                : direct inversion
                                         in the iterative subspace
                                         using   7 DIIS vectors
                                         safer DIIS on
  Preconditioner : FULL_ALL            : diagonalization, state selective
  Precond_solver : DEFAULT
  stepsize       :    0.15000000                  energy_gap     :    0.08000000
  eps_taylor     :   0.10000E-15                  max_taylor     :             4
  ----------------------------------- OT ---------------------------------------

  Step     Update method      Time    Convergence         Total energy    Change
  ------------------------------------------------------------------------------
     1 OT DIIS     0.15E+00   28.3     0.05944072       -98.4866306177 -9.85E+01
     2 OT DIIS     0.15E+00    1.4     0.10747117       -99.0821820004 -5.96E-01
     3 OT DIIS     0.15E+00    1.2     0.04014289       -99.8862564227 -8.04E-01
     4 OT DIIS     0.15E+00    1.2     0.03505876      -100.3808743826 -4.95E-01
     5 OT DIIS     0.15E+00    1.3     0.03061945      -100.6375474816 -2.57E-01
     6 OT DIIS     0.15E+00    1.2     0.02107899      -100.8631357445 -2.26E-01
     7 OT DIIS     0.15E+00    1.2     0.02228659      -100.9572958665 -9.42E-02
     8 OT DIIS     0.15E+00    1.2     0.00816061      -101.0427377701 -8.54E-02
     9 OT DIIS     0.15E+00    1.2     0.00494363      -101.0546456181 -1.19E-02
    10 OT DIIS     0.15E+00    1.3     0.00801180      -101.0492107056  5.43E-03

  Leaving inner SCF loop after reaching    10 steps.


  Electronic density on regular grids:        -32.0000001239       -0.0000001239
  Core density on regular grids:               32.0000000000       -0.0000000000
  Total charge density on r-space grids:       -0.0000001239
  Total charge density g-space grids:          -0.0000001239

  Overlap energy of the core charge distribution:               0.00000003130344
  Self energy of the core charge distribution:               -272.49933249826455
  Core Hamiltonian energy:                                     75.24641169244279
  Hartree energy:                                             116.21109862411195
  Exchange-correlation energy:                                -15.33116735190931
  Hartree-Fock Exchange energy:                                -4.67622120328551

  Total energy:                                              -101.04921070560118

  outer SCF iter =    1 RMS gradient =   0.80E-02 energy =       -101.0492107056

  ----------------------------------- OT ---------------------------------------
  Minimizer      : DIIS                : direct inversion
                                         in the iterative subspace
                                         using   7 DIIS vectors
                                         safer DIIS on
  Preconditioner : FULL_ALL            : diagonalization, state selective
  Precond_solver : DEFAULT
  stepsize       :    0.15000000                  energy_gap     :    0.08000000
  eps_taylor     :   0.10000E-15                  max_taylor     :             4
  ----------------------------------- OT ---------------------------------------

  Step     Update method      Time    Convergence         Total energy    Change
  ------------------------------------------------------------------------------
     1 OT DIIS     0.15E+00    2.5     0.00169577      -101.0633781237 -1.42E-02
     2 OT DIIS     0.15E+00    1.2     0.00077854      -101.0649105760 -1.53E-03
     3 OT DIIS     0.15E+00    1.2     0.00033232      -101.0652697267 -3.59E-04
     4 OT DIIS     0.15E+00    1.3     0.00003156      -101.0653176274 -4.79E-05
     5 OT DIIS     0.15E+00    1.2     0.00000573      -101.0653183095 -6.82E-07
     6 OT DIIS     0.15E+00    1.2     0.00000150      -101.0653183315 -2.20E-08
     7 OT DIIS     0.15E+00    1.2     0.00000048      -101.0653183323 -7.62E-10
     8 OT DIIS     0.15E+00    1.3     0.00000010      -101.0653183324 -1.36E-10

  *** SCF run converged in     8 steps ***


  Electronic density on regular grids:        -32.0000001219       -0.0000001219
  Core density on regular grids:               32.0000000000       -0.0000000000
  Total charge density on r-space grids:       -0.0000001219
  Total charge density g-space grids:          -0.0000001219

  Overlap energy of the core charge distribution:               0.00000003130344
  Self energy of the core charge distribution:               -272.49933249826455
  Core Hamiltonian energy:                                     75.09350491086133
  Hartree energy:                                             116.32171847771666
  Exchange-correlation energy:                                -15.31201945940468
  Hartree-Fock Exchange energy:                                -4.66918979460800

  Total energy:                                              -101.06531833239580

  outer SCF iter =    2 RMS gradient =   0.99E-07 energy =       -101.0653183324
  outer SCF loop converged in   2 iterations or   18 steps


 ENERGY| Total FORCE_EVAL ( QS ) energy [a.u.]:             -101.065318332395805

 -------------------------------------------------------------------------------
 -                                                                             -
 -                                DBCSR STATISTICS                             -
 -                                                                             -
 -------------------------------------------------------------------------------
 COUNTER                                    TOTAL       BLAS       SMM       ACC
 flops    16 x    16 x    16              1048576       0.0%    100.0%      0.0%
 flops    16 x    16 x   116              4395008       0.0%    100.0%      0.0%
 flops   116 x    16 x    16              5464064       0.0%    100.0%      0.0%
 flops    52 x   116 x    16              7334912       0.0%    100.0%      0.0%
 flops   116 x    52 x    16              7334912       0.0%    100.0%      0.0%
 flops    16 x    16 x    52              7880704       0.0%    100.0%      0.0%
 flops   116 x   116 x    16              8181248       0.0%    100.0%      0.0%
 flops    52 x    16 x    16              9797632       0.0%    100.0%      0.0%
 flops    52 x    52 x    16             16440320       0.0%    100.0%      0.0%
 flops   116 x    16 x   116             38753280       0.0%    100.0%      0.0%
 flops   116 x    16 x    52             69488640       0.0%    100.0%      0.0%
 flops    52 x    16 x   116             69488640       0.0%    100.0%      0.0%
 flops    52 x    16 x    52            124600320       0.0%    100.0%      0.0%
 flops inhomo. stacks                           0       0.0%      0.0%      0.0%
 flops total                       370.208256E+06       0.0%    100.0%      0.0%
 flops max/rank                    135.211520E+06       0.0%    100.0%      0.0%
 matmuls inhomo. stacks                         0       0.0%      0.0%      0.0%
 matmuls total                               3493       0.0%    100.0%      0.0%
 number of processed stacks                  3493       0.0%    100.0%      0.0%
 average stack size                                     0.0       1.0       0.0
 marketing flops                   395.074304E+06
 -------------------------------------------------------------------------------
 # multiplications                            405
 max memory usage/rank               1.314337E+09
 # max total images/rank                        1
 # max 3D layers                                1
 # MPI messages exchanged                  145800
 MPI messages size (bytes):
  total size                       457.785600E+06
  min size                           0.000000E+00
  max size                         107.648000E+03
  average size                       3.139819E+03
 MPI breakdown and total messages size (bytes):
             size <=      128              123610                        0
       128 < size <=     8192                9100                 52551680
      8192 < size <=    32768                9040                183070720
     32768 < size <=   131072                4050                222163200
    131072 < size <=  4194304                   0                        0
   4194304 < size <= 16777216                   0                        0
  16777216 < size                               0                        0
 -------------------------------------------------------------------------------
 -                                                                             -
 -                      DBCSR MESSAGE PASSING PERFORMANCE                      -
 -                                                                             -
 -------------------------------------------------------------------------------
 ROUTINE             CALLS      AVE VOLUME [Bytes]
 MP_Bcast               14                     12.
 MP_Allreduce         2179                      8.
 MP_Alltoall          1634                   4641.
 MP_ISend             9712                   4132.
 MP_IRecv             9712                   2498.
 -------------------------------------------------------------------------------

 -------------------------------------------------------------------------------
 -                                                                             -
 -                                GRID STATISTICS                              -
 -                                                                             -
 -------------------------------------------------------------------------------
 LP    KERNEL    OPERATION                                     COUNT     PERCENT
 0     general   collocate                                       180       0.24%
 2     ortho     integrate                                     15444      20.59%
 2     ortho     collocate                                     16302      21.74%
 3     ortho     integrate                                     13176      17.57%
 3     ortho     collocate                                     13908      18.55%
 4     ortho     integrate                                      2880       3.84%
 4     ortho     collocate                                      3040       4.05%
 5     ortho     integrate                                      3456       4.61%
 5     ortho     collocate                                      3648       4.86%
 6     ortho     integrate                                      1152       1.54%
 6     ortho     collocate                                      1216       1.62%
 8     ortho     integrate                                       288       0.38%
 8     ortho     collocate                                       304       0.41%
 -------------------------------------------------------------------------------

 MEMORY| Estimated peak process memory [MiB]                                1254

 -------------------------------------------------------------------------------
 -                                                                             -
 -                         MESSAGE PASSING PERFORMANCE                         -
 -                                                                             -
 -------------------------------------------------------------------------------

 ROUTINE             CALLS      AVE VOLUME [Bytes]
 MP_Group                5
 MP_Bcast              394                 463434.
 MP_Allreduce         1089                   1326.
 MP_Sync                97
 MP_Alltoall           362                6229430.
 MP_ISendRecv         5215                 112415.
 MP_Wait              7077
 MP_ISend             1672                 277004.
 MP_IRecv             1672                 277004.
 MP_Recv                 5                   7776.
 -------------------------------------------------------------------------------


 -------------------------------------------------------------------------------
 -                                                                             -
 -                           R E F E R E N C E S                               -
 -                                                                             -
 -------------------------------------------------------------------------------
 
 CP2K version 8.0 (Development Version), the CP2K developers group (2020).
 CP2K is freely available from https://www.cp2k.org/ .

 Kuehne,Thomas D.; Iannuzzi,Marcella; Del Ben,Mauro;
 Rybkin,Vladimir V.; Seewald,Patrick; Stein,Frederick; Laino,Teodoro;
 Khaliullin,Rustam Z.; Schuett,Ole; Schiffmann,Florian; Golze,Dorothea;
 Wilhelm,Jan; Chulkov,Sergey; Bani-Hashemian,Mohammad Hossein;
 Weber,Valery; Borstnik,Urban; Taillefumier,Mathieu;
 Jakobovits,Alice Shoshana; Lazzaro,Alfio; Pabst,Hans; Mueller,Tiziano;
 Schade,Robert; Guidon,Manuel; Andermatt,Samuel; Holmberg,Nico;
 Schenter,Gregory K.; Hehn,Anna; Bussy,Augustin; Belleflamme,Fabian;
 Tabacchi,Gloria; Gloess,Andreas; Lass,Michael; Bethune,Iain;
 Mundy,Christopher J.; Plessl,Christian; Watkins,Matt;
 VandeVondele,Joost; Krack,Matthias; Hutter,Juerg. 
 The Journal of Chemical Physics, 152 (19), (2020). 
 CP2K: An electronic structure and molecular dynamics software package -
 Quickstep: Efficient and accurate electronic structure calculations.
 https://doi.org/10.1063/5.0007045

 Schuett, Ole; Messmer, Peter; Hutter, Juerg; VandeVondele, Joost. 
 Electronic Structure Calculations on Graphics Processing Units, John
 Wiley & Sons, Ltd, 173-190 (2016). 
 GPU-Accelerated Sparse Matrix-Matrix Multiplication for
 Linear Scaling Density Functional Theory.
 https://doi.org/10.1002/9781118670712.ch8

 Borstnik, U; VandeVondele, J; Weber, V; Hutter, J. 
 PARALLEL COMPUTING, 40 (5-6), 47-58 (2014). 
 Sparse matrix multiplication: The distributed block-compressed sparse
 row library.
 https://doi.org/10.1016/j.parco.2014.03.012

 Hutter, J; Iannuzzi, M; Schiffmann, F; VandeVondele, J. 
 WIREs Comput Mol Sci., 4 (1), 15-25 (2014). 
 CP2K: atomistic simulations of condensed matter systems.
 https://doi.org/10.1002/wcms.1159

 Marek, A; Blum, V; Johanni, R; Havu, V; Lang, B; Auckenthaler, T;
 Heinecke, A; Bungartz, H; Lederer, H. 
 Journal of Physics: Condensed Matter, 26 (21), (2014). 
 The ELPA library: scalable parallel eigenvalue solutions for
 electronic structure
 theory and computational science.
 https://doi.org/10.1088/0953-8984/26/21/213201

 Guidon, M; Hutter, J; VandeVondele, J. 
 JOURNAL OF CHEMICAL THEORY AND COMPUTATION, 5 (11), 3010-3021 (2009). 
 Robust Periodic Hartree-Fock Exchange for Large-Scale Simulations Using
 Gaussian Basis Sets.
 https://doi.org/10.1021/ct900494g

 Guidon, M; Schiffmann, F; Hutter, J; VandeVondele, J. 
 JOURNAL OF CHEMICAL PHYSICS, 128 (21), 214104 (2008). 
 Ab initio molecular dynamics using hybrid density functionals.
 https://doi.org/10.1063/1.2931945

 Krack, M. 
 THEORETICAL CHEMISTRY ACCOUNTS, 114 (1-3), 145-152 (2005). 
 Pseudopotentials for H to Kr optimized for gradient-corrected
 exchange-correlation functionals.
 https://doi.org/10.1007/s00214-005-0655-y

 VandeVondele, J; Krack, M; Mohamed, F; Parrinello, M; Chassaing, T;
 Hutter, J. COMPUTER PHYSICS COMMUNICATIONS, 167 (2), 103-128 (2005). 
 QUICKSTEP: Fast and accurate density functional calculations using a
 mixed Gaussian and plane waves approach.
 https://doi.org/10.1016/j.cpc.2004.12.014

 Frigo, M; Johnson, SG. 
 PROCEEDINGS OF THE IEEE, 93 (2), 216-231 (2005). 
 The design and implementation of FFTW3.
 https://doi.org/10.1109/JPROC.2004.840301

 VandeVondele, J; Hutter, J. 
 JOURNAL OF CHEMICAL PHYSICS, 118 (10), 4365-4369 (2003). 
 An efficient orbital transformation method for electronic structure
 calculations.
 https://doi.org/10.1063/1.1543154

 Martyna, GJ; Tuckerman, ME. 
 JOURNAL OF CHEMICAL PHYSICS, 110 (6), 2810-2821 (1999). 
 A reciprocal space based method for treating long range interactions in
 ab initio and force-field-based calculations in clusters.
 https://doi.org/10.1063/1.477923

 Hartwigsen, C; Goedecker, S; Hutter, J. 
 PHYSICAL REVIEW B, 58 (7), 3641-3662 (1998). 
 Relativistic separable dual-space Gaussian pseudopotentials from H to Rn.
 https://doi.org/10.1103/PhysRevB.58.3641

 Lippert, G; Hutter, J; Parrinello, M. 
 MOLECULAR PHYSICS, 92 (3), 477-487 (1997). 
 A hybrid Gaussian and plane wave density functional scheme.
 https://doi.org/10.1080/002689797170220

 Perdew, JP; Burke, K; Ernzerhof, M. 
 PHYSICAL REVIEW LETTERS, 77 (18), 3865-3868 (1996). 
 Generalized gradient approximation made simple.
 https://doi.org/10.1103/PhysRevLett.77.3865

 Goedecker, S; Teter, M; Hutter, J. 
 PHYSICAL REVIEW B, 54 (3), 1703-1710 (1996). 
 Separable dual-space Gaussian pseudopotentials.
 https://doi.org/10.1103/PhysRevB.54.1703


 -------------------------------------------------------------------------------
 -                                                                             -
 -                                T I M I N G                                  -
 -                                                                             -
 -------------------------------------------------------------------------------
 SUBROUTINE                       CALLS  ASD         SELF TIME        TOTAL TIME
                                MAXIMUM       AVERAGE  MAXIMUM  AVERAGE  MAXIMUM
 CP2K                                 1  1.0    0.035    0.068   50.169   50.176
 qs_energies                          1  2.0    0.000    0.000   49.877   49.884
 scf_env_do_scf                       1  3.0    0.000    0.000   49.657   49.664
 qs_ks_update_qs_env                 20  5.0    0.000    0.000   47.005   47.012
 rebuild_ks_matrix                   18  6.0    0.000    0.000   47.003   47.010
 qs_ks_build_kohn_sham_matrix        18  7.0    0.003    0.003   47.003   47.010
 hfx_ks_matrix                       18  8.0    0.001    0.001   40.551   40.556
 integrate_four_center               18  9.0    0.016    0.018   40.550   40.555
 init_scf_loop                        2  4.0    0.000    0.000   29.432   29.436
 integrate_four_center_main          18 10.0    0.003    0.004    8.401   24.834
 integrate_four_center_bin         2250 11.0    8.399   24.832    8.399   24.832
 scf_env_do_scf_inner_loop           18  4.0    0.001    0.002   20.224   20.227
 mp_sync                             97 10.7   16.444   18.098   16.444   18.098
 calc_screening_functions             1 10.0   12.964   13.429   13.689   14.150
 pw_transfer                        349  9.6    0.030    0.037    4.434    5.067
 fft_wrap_pw1pw2                    313 10.7    0.004    0.005    4.369    5.013
 fft_wrap_pw1pw2_300                201 11.8    0.223    0.271    4.113    4.749
 fft3d_ps                           313 12.7    1.563    1.654    3.513    4.226
 qs_vxc_create                       18  8.0    0.000    0.001    4.104    4.114
 xc_vxc_pw_create                    18  9.0    0.032    0.033    4.104    4.113
 xc_rho_set_and_dset_create          18 10.0    0.017    0.020    2.281    2.584
 mp_alltoall_z22v                   313 14.7    1.577    2.377    1.577    2.377
 qs_rho_update_rho                   19  5.0    0.000    0.000    2.308    2.309
 calculate_rho_elec                  19  6.0    0.014    0.014    2.308    2.309
 rs_pw_transfer                     149  9.4    0.003    0.003    1.815    1.955
 density_rs2pw                       19  7.0    0.001    0.001    1.647    1.793
 yz_to_x                            150 13.1    0.153    0.180    1.075    1.765
 sum_up_and_integrate                18  8.0    0.007    0.010    1.679    1.681
 integrate_v_rspace_low              18  9.0    0.101    0.242    1.671    1.674
 potential_pw2rs                     18 10.0    0.001    0.002    1.416    1.418
 xc_functional_eval                  18 11.0    0.000    0.000    1.066    1.371
 pbe_lda_eval                        18 12.0    1.066    1.370    1.066    1.370
 calc_pair_dist_radii                 1 10.0    1.084    1.092    1.273    1.282
 -------------------------------------------------------------------------------

 The number of warnings for this run is : 0
 
 -------------------------------------------------------------------------------
  **** **** ******  **  PROGRAM ENDED AT                 2020-11-30 17:43:59.756
 ***** ** ***  *** **   PROGRAM RAN ON                                   tcopt10
 **    ****   ******    PROGRAM RAN BY                                    hutter
 ***** **    ** ** **   PROGRAM PROCESS ID                                 45423
  **** **  *******  **  PROGRAM STOPPED IN /data/hutter/GITHUB/BASIS/MOLOPT/PBE0
                                           /alsipscl
