 DBCSR| CPU Multiplication driver                                           XSMM
 DBCSR| Multrec recursion limit                                              512
 DBCSR| Multiplication stack size                                           1000
 DBCSR| Maximum elements for images                                    UNLIMITED
 DBCSR| Multiplicative factor virtual images                                   1
 DBCSR| Use multiplication densification                                       T
 DBCSR| Multiplication size stacks                                             3
 DBCSR| Use memory pool for CPU allocation                                     F
 DBCSR| Number of 3D layers                                               SINGLE
 DBCSR| Use MPI memory allocation                                              F
 DBCSR| Use RMA algorithm                                                      F
 DBCSR| Use Communication thread                                               T
 DBCSR| Communication thread load                                             87
 DBCSR| Split modifier for TAS multiplication algorithm                  1.0E+00


  **** **** ******  **  PROGRAM STARTED AT               2020-11-30 16:51:15.905
 ***** ** ***  *** **   PROGRAM STARTED ON                               tcopt10
 **    ****   ******    PROGRAM STARTED BY                                hutter
 ***** **    ** ** **   PROGRAM PROCESS ID                                 37057
  **** **  *******  **  PROGRAM STARTED IN /data/hutter/GITHUB/BASIS/MOLOPT/PBE0
                                           /alsipscl

 CP2K| version string:                    CP2K version 8.0 (Development Version)
 CP2K| source code revision number:                                  git:afc71fa
 CP2K| cp2kflags: omp libint fftw3 libxc elpa parallel mpi3 scalapack xsmm spgli
 CP2K|            b sirius
 CP2K| is freely available from                            https://www.cp2k.org/
 CP2K| Program compiled at                          Tue Nov 17 10:27:14 CET 2020
 CP2K| Program compiled on                                               tcopt10
 CP2K| Program compiled for                                                local
 CP2K| Data directory path                 /data/hutter/GITHUB/CURRENT/cp2k/data
 CP2K| Input file name                                              SiO2-ref.inp

 GLOBAL| Force Environment number                                              1
 GLOBAL| Basis set file name                                  ../PBE0_UCSEGBASIS
 GLOBAL| Potential file name                                        ../POTENTIAL
 GLOBAL| MM Potential file name                                     MM_POTENTIAL
 GLOBAL| Coordinate file name                                      __STD_INPUT__
 GLOBAL| Method name                                                        CP2K
 GLOBAL| Project name                                                    refSiO2
 GLOBAL| Preferred FFT library                                             FFTW3
 GLOBAL| Preferred diagonalization lib.                                     ELPA
 GLOBAL| Run type                                                         ENERGY
 GLOBAL| All-to-all communication in single precision                          F
 GLOBAL| FFTs using library dependent lengths                                  F
 GLOBAL| Global print level                                                  LOW
 GLOBAL| MPI I/O enabled                                                       T
 GLOBAL| Total number of message passing processes                            36
 GLOBAL| Number of threads for this process                                    1
 GLOBAL| This output is from process                                           0
 GLOBAL| CPU model name                          AMD EPYC 7401 24-Core Processor
 GLOBAL| CPUID                                                              1002

 MEMORY| system memory details [Kb]
 MEMORY|                        rank 0           min           max       average
 MEMORY| MemTotal            263987256     263987256     263987256     263987256
 MEMORY| MemFree             258254420     258254420     258254420     258254420
 MEMORY| Buffers                    32            32            32            32
 MEMORY| Cached                1946804       1946804       1946804       1946804
 MEMORY| Slab                   770112        770112        770112        770112
 MEMORY| SReclaimable           277380        277380        277380        277380
 MEMORY| MemLikelyFree       260478636     260478636     260478636     260478636


 GENERATE|  Preliminary Number of Bonds generated:                             0
 GENERATE|  Achieved consistency in connectivity generation.

 *******************************************************************************
 *   ___                                                                       *
 *  /   \                                                                      *
 * [ABORT]                                                                     *
 *  \___/    The requested atomic potential <GTH-PBE-q4> for element <Si> was  *
 *    |               not found in the potential file <../POTENTIAL>           *
 *  O/|                                                                        *
 * /| |                                                                        *
 * / \                                  subsys/external_potential_types.F:2325 *
 *******************************************************************************


 ===== Routine Calling Stack ===== 

            3 read_qs_kind
            2 create_qs_kind_set
            1 CP2K
 DBCSR| CPU Multiplication driver                                           XSMM
 DBCSR| Multrec recursion limit                                              512
 DBCSR| Multiplication stack size                                           1000
 DBCSR| Maximum elements for images                                    UNLIMITED
 DBCSR| Multiplicative factor virtual images                                   1
 DBCSR| Use multiplication densification                                       T
 DBCSR| Multiplication size stacks                                             3
 DBCSR| Use memory pool for CPU allocation                                     F
 DBCSR| Number of 3D layers                                               SINGLE
 DBCSR| Use MPI memory allocation                                              F
 DBCSR| Use RMA algorithm                                                      F
 DBCSR| Use Communication thread                                               T
 DBCSR| Communication thread load                                             87
 DBCSR| Split modifier for TAS multiplication algorithm                  1.0E+00


  **** **** ******  **  PROGRAM STARTED AT               2020-11-30 17:44:00.001
 ***** ** ***  *** **   PROGRAM STARTED ON                               tcopt10
 **    ****   ******    PROGRAM STARTED BY                                hutter
 ***** **    ** ** **   PROGRAM PROCESS ID                                 45637
  **** **  *******  **  PROGRAM STARTED IN /data/hutter/GITHUB/BASIS/MOLOPT/PBE0
                                           /alsipscl

 CP2K| version string:                    CP2K version 8.0 (Development Version)
 CP2K| source code revision number:                                  git:afc71fa
 CP2K| cp2kflags: omp libint fftw3 libxc elpa parallel mpi3 scalapack xsmm spgli
 CP2K|            b sirius
 CP2K| is freely available from                            https://www.cp2k.org/
 CP2K| Program compiled at                          Tue Nov 17 10:27:14 CET 2020
 CP2K| Program compiled on                                               tcopt10
 CP2K| Program compiled for                                                local
 CP2K| Data directory path                 /data/hutter/GITHUB/CURRENT/cp2k/data
 CP2K| Input file name                                              SiO2-ref.inp

 GLOBAL| Force Environment number                                              1
 GLOBAL| Basis set file name                                  ../PBE0_UCSEGBASIS
 GLOBAL| Potential file name                                        ../POTENTIAL
 GLOBAL| MM Potential file name                                     MM_POTENTIAL
 GLOBAL| Coordinate file name                                      __STD_INPUT__
 GLOBAL| Method name                                                        CP2K
 GLOBAL| Project name                                                    refSiO2
 GLOBAL| Preferred FFT library                                             FFTW3
 GLOBAL| Preferred diagonalization lib.                                     ELPA
 GLOBAL| Run type                                                         ENERGY
 GLOBAL| All-to-all communication in single precision                          F
 GLOBAL| FFTs using library dependent lengths                                  F
 GLOBAL| Global print level                                                  LOW
 GLOBAL| MPI I/O enabled                                                       T
 GLOBAL| Total number of message passing processes                            36
 GLOBAL| Number of threads for this process                                    1
 GLOBAL| This output is from process                                           0
 GLOBAL| CPU model name                          AMD EPYC 7401 24-Core Processor
 GLOBAL| CPUID                                                              1002

 MEMORY| system memory details [Kb]
 MEMORY|                        rank 0           min           max       average
 MEMORY| MemTotal            263987256     263987256     263987256     263987256
 MEMORY| MemFree             258455588     258455588     258455588     258455588
 MEMORY| Buffers                    32            32            32            32
 MEMORY| Cached                1970904       1970904       1970904       1970904
 MEMORY| Slab                   772600        772600        772600        772600
 MEMORY| SReclaimable           280252        280252        280252        280252
 MEMORY| MemLikelyFree       260706776     260706776     260706776     260706776


 GENERATE|  Preliminary Number of Bonds generated:                             0
 GENERATE|  Achieved consistency in connectivity generation.

 *******************************************************************************
 *******************************************************************************
 **                                                                           **
 **     #####                         ##              ##                      **
 **    ##   ##            ##          ##              ##                      **
 **   ##     ##                       ##            ######                    **
 **   ##     ##  ##   ##  ##   #####  ##  ##   ####   ##    #####    #####    **
 **   ##     ##  ##   ##  ##  ##      ## ##   ##      ##   ##   ##  ##   ##   **
 **   ##  ## ##  ##   ##  ##  ##      ####     ###    ##   ######   ######    **
 **    ##  ###   ##   ##  ##  ##      ## ##      ##   ##   ##       ##        **
 **     #######   #####   ##   #####  ##  ##  ####    ##    #####   ##        **
 **           ##                                                    ##        **
 **                                                                           **
 **                                                ... make the atoms dance   **
 **                                                                           **
 **            Copyright (C) by CP2K developers group (2000 - 2020)           **
 **                      J. Chem. Phys. 152, 194103 (2020)                    **
 **                                                                           **
 *******************************************************************************


 TOTAL NUMBERS AND MAXIMUM NUMBERS

  Total number of            - Atomic kinds:                                   2
                             - Atoms:                                          3
                             - Shell sets:                                    36
                             - Shells:                                        68
                             - Primitive Cartesian functions:                 36
                             - Cartesian basis functions:                    268
                             - Spherical basis functions:                    220

  Maximum angular momentum of- Orbital basis functions:                        4
                             - Local part of the GTH pseudopotential:          2
                             - Non-local part of the GTH pseudopotential:      2


 SCF PARAMETERS         Density guess:                                    ATOMIC
                        --------------------------------------------------------
                        max_scf:                                              10
                        max_scf_history:                                       0
                        max_diis:                                              4
                        --------------------------------------------------------
                        eps_scf:                                        1.00E-07
                        eps_scf_history:                                0.00E+00
                        eps_diis:                                       1.00E-01
                        eps_eigval:                                     1.00E-05
                        --------------------------------------------------------
                        level_shift [a.u.]:                                 0.00
                        --------------------------------------------------------
                        Outer loop SCF in use 
                        No variables optimised in outer loop
                        eps_scf                                         1.00E-07
                        max_scf                                               10
                        No outer loop optimization
                        step_size                                       5.00E-01

 Number of electrons:                                                         16
 Number of occupied orbitals:                                                  8
 Number of molecular orbitals:                                                 8

 Number of orbital functions:                                                220
 Number of independent orbital functions:                                    220

 Extrapolation method: initial_guess


 SCF WAVEFUNCTION OPTIMIZATION

  ----------------------------------- OT ---------------------------------------
  Minimizer      : DIIS                : direct inversion
                                         in the iterative subspace
                                         using   7 DIIS vectors
                                         safer DIIS on
  Preconditioner : FULL_ALL            : diagonalization, state selective
  Precond_solver : DEFAULT
  stepsize       :    0.15000000                  energy_gap     :    0.08000000
  eps_taylor     :   0.10000E-15                  max_taylor     :             4
  ----------------------------------- OT ---------------------------------------

  Step     Update method      Time    Convergence         Total energy    Change
  ------------------------------------------------------------------------------
     1 OT DIIS     0.15E+00   27.4     0.12236316       -34.5964354483 -3.46E+01
     2 OT DIIS     0.15E+00    1.3     0.28793463       -33.1257751122  1.47E+00
     3 OT DIIS     0.15E+00    1.3     0.07344806       -34.9683417590 -1.84E+00
     4 OT DIIS     0.15E+00    1.2     0.05714364       -35.2094533546 -2.41E-01
     5 OT DIIS     0.15E+00    1.2     0.05472265       -35.3845301469 -1.75E-01
     6 OT DIIS     0.15E+00    1.2     0.04397084       -35.4739638340 -8.94E-02
     7 OT DIIS     0.15E+00    1.2     0.04508915       -35.5186437089 -4.47E-02
     8 OT SD       0.15E+00    1.2     0.04616833       -35.5278467687 -9.20E-03
     9 OT DIIS     0.15E+00    1.2     0.07157453       -35.4084889138  1.19E-01
    10 OT SD       0.15E+00    1.2     0.03575806       -35.5115604397 -1.03E-01

  Leaving inner SCF loop after reaching    10 steps.


  Electronic density on regular grids:        -16.0000000000        0.0000000000
  Core density on regular grids:               16.0000000000        0.0000000000
  Total charge density on r-space grids:        0.0000000000
  Total charge density g-space grids:           0.0000000000

  Overlap energy of the core charge distribution:               0.00000019000762
  Self energy of the core charge distribution:                -92.44682786069653
  Core Hamiltonian energy:                                     26.29863427194257
  Hartree energy:                                              38.75648403688611
  Exchange-correlation energy:                                 -6.27923809426637
  Hartree-Fock Exchange energy:                                -1.84061298356030

  Total energy:                                               -35.51156043968690

  outer SCF iter =    1 RMS gradient =   0.36E-01 energy =        -35.5115604397

  ----------------------------------- OT ---------------------------------------
  Minimizer      : DIIS                : direct inversion
                                         in the iterative subspace
                                         using   7 DIIS vectors
                                         safer DIIS on
  Preconditioner : FULL_ALL            : diagonalization, state selective
  Precond_solver : DEFAULT
  stepsize       :    0.15000000                  energy_gap     :    0.08000000
  eps_taylor     :   0.10000E-15                  max_taylor     :             4
  ----------------------------------- OT ---------------------------------------

  Step     Update method      Time    Convergence         Total energy    Change
  ------------------------------------------------------------------------------
     1 OT DIIS     0.15E+00    2.5     0.08173885       -35.5322425107 -2.07E-02
     2 OT DIIS     0.15E+00    1.2     0.17911977       -34.9270823273  6.05E-01
     3 OT DIIS     0.15E+00    1.2     0.04955762       -35.5449836949 -6.18E-01
     4 OT DIIS     0.15E+00    1.2     0.02758699       -35.7520136149 -2.07E-01
     5 OT DIIS     0.15E+00    1.3     0.02641969       -35.8369975609 -8.50E-02
     6 OT DIIS     0.15E+00    1.2     0.02295508       -35.8888244423 -5.18E-02
     7 OT DIIS     0.15E+00    1.2     0.01385970       -35.9397382416 -5.09E-02
     8 OT DIIS     0.15E+00    1.2     0.00852364       -35.9465870058 -6.85E-03
     9 OT DIIS     0.15E+00    1.3     0.00587176       -35.9489910644 -2.40E-03
    10 OT DIIS     0.15E+00    1.2     0.00906668       -35.9457918770  3.20E-03

  Leaving inner SCF loop after reaching    10 steps.


  Electronic density on regular grids:        -15.9999999997        0.0000000003
  Core density on regular grids:               16.0000000000        0.0000000000
  Total charge density on r-space grids:        0.0000000003
  Total charge density g-space grids:           0.0000000003

  Overlap energy of the core charge distribution:               0.00000019000762
  Self energy of the core charge distribution:                -92.44682786069653
  Core Hamiltonian energy:                                     25.64192734145249
  Hartree energy:                                              39.00684356009170
  Exchange-correlation energy:                                 -6.27781697516103
  Hartree-Fock Exchange energy:                                -1.86991813270562

  Total energy:                                               -35.94579187701139

  outer SCF iter =    2 RMS gradient =   0.91E-02 energy =        -35.9457918770

  ----------------------------------- OT ---------------------------------------
  Minimizer      : DIIS                : direct inversion
                                         in the iterative subspace
                                         using   7 DIIS vectors
                                         safer DIIS on
  Preconditioner : FULL_ALL            : diagonalization, state selective
  Precond_solver : DEFAULT
  stepsize       :    0.15000000                  energy_gap     :    0.08000000
  eps_taylor     :   0.10000E-15                  max_taylor     :             4
  ----------------------------------- OT ---------------------------------------

  Step     Update method      Time    Convergence         Total energy    Change
  ------------------------------------------------------------------------------
     1 OT DIIS     0.15E+00    2.5     0.00176564       -35.9510555632 -5.26E-03
     2 OT DIIS     0.15E+00    1.2     0.00173980       -35.9512403755 -1.85E-04
     3 OT DIIS     0.15E+00    1.3     0.00046092       -35.9514302003 -1.90E-04
     4 OT DIIS     0.15E+00    1.2     0.00025679       -35.9514669269 -3.67E-05
     5 OT DIIS     0.15E+00    1.2     0.00004578       -35.9514727914 -5.86E-06
     6 OT DIIS     0.15E+00    1.2     0.00001420       -35.9514732380 -4.47E-07
     7 OT DIIS     0.15E+00    1.2     0.00000265       -35.9514732949 -5.69E-08
     8 OT DIIS     0.15E+00    1.2     0.00000061       -35.9514732967 -1.85E-09
     9 OT DIIS     0.15E+00    1.2     0.00000022       -35.9514732968 -8.73E-11
    10 OT DIIS     0.15E+00    1.2     0.00000003       -35.9514732968 -1.57E-11

  *** SCF run converged in    10 steps ***


  Electronic density on regular grids:        -15.9999999996        0.0000000004
  Core density on regular grids:               16.0000000000        0.0000000000
  Total charge density on r-space grids:        0.0000000004
  Total charge density g-space grids:           0.0000000004

  Overlap energy of the core charge distribution:               0.00000019000762
  Self energy of the core charge distribution:                -92.44682786069653
  Core Hamiltonian energy:                                     25.43531771012936
  Hartree energy:                                              39.15611609847275
  Exchange-correlation energy:                                 -6.24073048048847
  Hartree-Fock Exchange energy:                                -1.85534895424536

  Total energy:                                               -35.95147329682062

  outer SCF iter =    3 RMS gradient =   0.32E-07 energy =        -35.9514732968
  outer SCF loop converged in   3 iterations or   30 steps


 ENERGY| Total FORCE_EVAL ( QS ) energy [a.u.]:              -35.951473296820623

 -------------------------------------------------------------------------------
 -                                                                             -
 -                                DBCSR STATISTICS                             -
 -                                                                             -
 -------------------------------------------------------------------------------
 COUNTER                                    TOTAL       BLAS       SMM       ACC
 flops     8 x     8 x     8               266240       0.0%    100.0%      0.0%
 flops     8 x     8 x    52              1637376       0.0%    100.0%      0.0%
 flops     8 x     8 x   116              1826304       0.0%    100.0%      0.0%
 flops    52 x     8 x     8              2036736       0.0%    100.0%      0.0%
 flops   116 x     8 x     8              2271744       0.0%    100.0%      0.0%
 flops    52 x   116 x     8              2991872       0.0%    100.0%      0.0%
 flops   116 x    52 x     8              2991872       0.0%    100.0%      0.0%
 flops    52 x    52 x     8              4023552       0.0%    100.0%      0.0%
 flops   116 x   116 x     8              6674176       0.0%    100.0%      0.0%
 flops    52 x     8 x    52             25266176       0.0%    100.0%      0.0%
 flops   116 x     8 x    52             28181504       0.0%    100.0%      0.0%
 flops    52 x     8 x   116             28181504       0.0%    100.0%      0.0%
 flops   116 x     8 x   116             31433216       0.0%    100.0%      0.0%
 flops inhomo. stacks                           0       0.0%      0.0%      0.0%
 flops total                       137.782272E+06       0.0%    100.0%      0.0%
 flops max/rank                     72.290560E+06       0.0%    100.0%      0.0%
 matmuls inhomo. stacks                         0       0.0%      0.0%      0.0%
 matmuls total                               2588       0.0%    100.0%      0.0%
 number of processed stacks                  2588       0.0%    100.0%      0.0%
 average stack size                                     0.0       1.0       0.0
 marketing flops                   145.192016E+06
 -------------------------------------------------------------------------------
 # multiplications                            716
 max memory usage/rank               1.303437E+09
 # max total images/rank                        1
 # max 3D layers                                1
 # MPI messages exchanged                  257760
 MPI messages size (bytes):
  total size                       327.111680E+06
  min size                           0.000000E+00
  max size                         107.648000E+03
  average size                       1.269055E+03
 MPI breakdown and total messages size (bytes):
             size <=      128              238720                        0
       128 < size <=     8192               12470                 44455680
      8192 < size <=    32768                2920                 63165440
     32768 < size <=   131072                3650                219490560
    131072 < size <=  4194304                   0                        0
   4194304 < size <= 16777216                   0                        0
  16777216 < size                               0                        0
 -------------------------------------------------------------------------------
 -                                                                             -
 -                      DBCSR MESSAGE PASSING PERFORMANCE                      -
 -                                                                             -
 -------------------------------------------------------------------------------
 ROUTINE             CALLS      AVE VOLUME [Bytes]
 MP_Bcast               14                     12.
 MP_Allreduce         3820                      8.
 MP_Alltoall          2744                   3716.
 MP_ISend            17172                   2227.
 MP_IRecv            17172                   1028.
 -------------------------------------------------------------------------------

 -------------------------------------------------------------------------------
 -                                                                             -
 -                                GRID STATISTICS                              -
 -                                                                             -
 -------------------------------------------------------------------------------
 LP    KERNEL    OPERATION                                     COUNT     PERCENT
 0     general   collocate                                       108       0.21%
 2     ortho     integrate                                     10920      21.37%
 2     ortho     collocate                                     11284      22.08%
 3     ortho     integrate                                      7440      14.56%
 3     ortho     collocate                                      7688      15.04%
 4     ortho     integrate                                      1440       2.82%
 4     ortho     collocate                                      1488       2.91%
 5     ortho     integrate                                      3840       7.51%
 5     ortho     collocate                                      3968       7.76%
 6     ortho     integrate                                       960       1.88%
 6     ortho     collocate                                       992       1.94%
 8     ortho     integrate                                       480       0.94%
 8     ortho     collocate                                       496       0.97%
 -------------------------------------------------------------------------------

 MEMORY| Estimated peak process memory [MiB]                                1244

 -------------------------------------------------------------------------------
 -                                                                             -
 -                         MESSAGE PASSING PERFORMANCE                         -
 -                                                                             -
 -------------------------------------------------------------------------------

 ROUTINE             CALLS      AVE VOLUME [Bytes]
 MP_Group                5
 MP_Bcast              432                 422903.
 MP_Allreduce         1200                   1179.
 MP_Sync               183
 MP_Alltoall           590                6352964.
 MP_ISendRecv         8575                 112992.
 MP_Wait             11613
 MP_comm_split          26
 MP_ISend             2728                 277004.
 MP_IRecv             2728                 277004.
 MP_Recv                 6                   3520.
 -------------------------------------------------------------------------------


 -------------------------------------------------------------------------------
 -                                                                             -
 -                           R E F E R E N C E S                               -
 -                                                                             -
 -------------------------------------------------------------------------------
 
 CP2K version 8.0 (Development Version), the CP2K developers group (2020).
 CP2K is freely available from https://www.cp2k.org/ .

 Kuehne,Thomas D.; Iannuzzi,Marcella; Del Ben,Mauro;
 Rybkin,Vladimir V.; Seewald,Patrick; Stein,Frederick; Laino,Teodoro;
 Khaliullin,Rustam Z.; Schuett,Ole; Schiffmann,Florian; Golze,Dorothea;
 Wilhelm,Jan; Chulkov,Sergey; Bani-Hashemian,Mohammad Hossein;
 Weber,Valery; Borstnik,Urban; Taillefumier,Mathieu;
 Jakobovits,Alice Shoshana; Lazzaro,Alfio; Pabst,Hans; Mueller,Tiziano;
 Schade,Robert; Guidon,Manuel; Andermatt,Samuel; Holmberg,Nico;
 Schenter,Gregory K.; Hehn,Anna; Bussy,Augustin; Belleflamme,Fabian;
 Tabacchi,Gloria; Gloess,Andreas; Lass,Michael; Bethune,Iain;
 Mundy,Christopher J.; Plessl,Christian; Watkins,Matt;
 VandeVondele,Joost; Krack,Matthias; Hutter,Juerg. 
 The Journal of Chemical Physics, 152 (19), (2020). 
 CP2K: An electronic structure and molecular dynamics software package -
 Quickstep: Efficient and accurate electronic structure calculations.
 https://doi.org/10.1063/5.0007045

 Schuett, Ole; Messmer, Peter; Hutter, Juerg; VandeVondele, Joost. 
 Electronic Structure Calculations on Graphics Processing Units, John
 Wiley & Sons, Ltd, 173-190 (2016). 
 GPU-Accelerated Sparse Matrix-Matrix Multiplication for
 Linear Scaling Density Functional Theory.
 https://doi.org/10.1002/9781118670712.ch8

 Borstnik, U; VandeVondele, J; Weber, V; Hutter, J. 
 PARALLEL COMPUTING, 40 (5-6), 47-58 (2014). 
 Sparse matrix multiplication: The distributed block-compressed sparse
 row library.
 https://doi.org/10.1016/j.parco.2014.03.012

 Hutter, J; Iannuzzi, M; Schiffmann, F; VandeVondele, J. 
 WIREs Comput Mol Sci., 4 (1), 15-25 (2014). 
 CP2K: atomistic simulations of condensed matter systems.
 https://doi.org/10.1002/wcms.1159

 Marek, A; Blum, V; Johanni, R; Havu, V; Lang, B; Auckenthaler, T;
 Heinecke, A; Bungartz, H; Lederer, H. 
 Journal of Physics: Condensed Matter, 26 (21), (2014). 
 The ELPA library: scalable parallel eigenvalue solutions for
 electronic structure
 theory and computational science.
 https://doi.org/10.1088/0953-8984/26/21/213201

 Guidon, M; Hutter, J; VandeVondele, J. 
 JOURNAL OF CHEMICAL THEORY AND COMPUTATION, 5 (11), 3010-3021 (2009). 
 Robust Periodic Hartree-Fock Exchange for Large-Scale Simulations Using
 Gaussian Basis Sets.
 https://doi.org/10.1021/ct900494g

 Guidon, M; Schiffmann, F; Hutter, J; VandeVondele, J. 
 JOURNAL OF CHEMICAL PHYSICS, 128 (21), 214104 (2008). 
 Ab initio molecular dynamics using hybrid density functionals.
 https://doi.org/10.1063/1.2931945

 Krack, M. 
 THEORETICAL CHEMISTRY ACCOUNTS, 114 (1-3), 145-152 (2005). 
 Pseudopotentials for H to Kr optimized for gradient-corrected
 exchange-correlation functionals.
 https://doi.org/10.1007/s00214-005-0655-y

 VandeVondele, J; Krack, M; Mohamed, F; Parrinello, M; Chassaing, T;
 Hutter, J. COMPUTER PHYSICS COMMUNICATIONS, 167 (2), 103-128 (2005). 
 QUICKSTEP: Fast and accurate density functional calculations using a
 mixed Gaussian and plane waves approach.
 https://doi.org/10.1016/j.cpc.2004.12.014

 Frigo, M; Johnson, SG. 
 PROCEEDINGS OF THE IEEE, 93 (2), 216-231 (2005). 
 The design and implementation of FFTW3.
 https://doi.org/10.1109/JPROC.2004.840301

 VandeVondele, J; Hutter, J. 
 JOURNAL OF CHEMICAL PHYSICS, 118 (10), 4365-4369 (2003). 
 An efficient orbital transformation method for electronic structure
 calculations.
 https://doi.org/10.1063/1.1543154

 Martyna, GJ; Tuckerman, ME. 
 JOURNAL OF CHEMICAL PHYSICS, 110 (6), 2810-2821 (1999). 
 A reciprocal space based method for treating long range interactions in
 ab initio and force-field-based calculations in clusters.
 https://doi.org/10.1063/1.477923

 Hartwigsen, C; Goedecker, S; Hutter, J. 
 PHYSICAL REVIEW B, 58 (7), 3641-3662 (1998). 
 Relativistic separable dual-space Gaussian pseudopotentials from H to Rn.
 https://doi.org/10.1103/PhysRevB.58.3641

 Lippert, G; Hutter, J; Parrinello, M. 
 MOLECULAR PHYSICS, 92 (3), 477-487 (1997). 
 A hybrid Gaussian and plane wave density functional scheme.
 https://doi.org/10.1080/002689797170220

 Perdew, JP; Burke, K; Ernzerhof, M. 
 PHYSICAL REVIEW LETTERS, 77 (18), 3865-3868 (1996). 
 Generalized gradient approximation made simple.
 https://doi.org/10.1103/PhysRevLett.77.3865

 Goedecker, S; Teter, M; Hutter, J. 
 PHYSICAL REVIEW B, 54 (3), 1703-1710 (1996). 
 Separable dual-space Gaussian pseudopotentials.
 https://doi.org/10.1103/PhysRevB.54.1703


 -------------------------------------------------------------------------------
 -                                                                             -
 -                                T I M I N G                                  -
 -                                                                             -
 -------------------------------------------------------------------------------
 SUBROUTINE                       CALLS  ASD         SELF TIME        TOTAL TIME
                                MAXIMUM       AVERAGE  MAXIMUM  AVERAGE  MAXIMUM
 CP2K                                 1  1.0    0.013    0.058   63.831   63.832
 qs_energies                          1  2.0    0.000    0.000   63.549   63.550
 scf_env_do_scf                       1  3.0    0.000    0.000   63.333   63.334
 qs_ks_update_qs_env                 33  5.0    0.000    0.001   58.990   58.993
 rebuild_ks_matrix                   30  6.0    0.000    0.000   58.986   58.989
 qs_ks_build_kohn_sham_matrix        30  7.0    0.005    0.006   58.986   58.989
 hfx_ks_matrix                       30  8.0    0.001    0.001   48.472   48.491
 integrate_four_center               30  9.0    0.032    0.053   48.470   48.489
 scf_env_do_scf_inner_loop           30  4.0    0.001    0.003   33.681   33.682
 mp_sync                            183 10.8   28.911   32.587   28.911   32.587
 integrate_four_center_main          30 10.0    0.004    0.005    3.668   32.557
 integrate_four_center_bin         3810 11.0    3.664   32.554    3.664   32.554
 init_scf_loop                        3  4.0    0.000    0.000   29.651   29.651
 calc_screening_functions             1 10.0   12.940   13.439   13.650   14.168
 pw_transfer                        577  9.6    0.051    0.061    7.292    8.450
 fft_wrap_pw1pw2                    517 10.7    0.007    0.008    7.183    8.347
 fft_wrap_pw1pw2_300                333 11.8    0.361    0.433    6.807    7.930
 fft3d_ps                           517 12.7    2.548    2.705    5.779    7.141
 qs_vxc_create                       30  8.0    0.001    0.001    6.857    6.873
 xc_vxc_pw_create                    30  9.0    0.052    0.056    6.857    6.873
 xc_rho_set_and_dset_create          30 10.0    0.028    0.034    3.781    4.325
 mp_alltoall_z22v                   517 14.7    2.626    4.132    2.626    4.132
 qs_rho_update_rho                   31  5.0    0.000    0.000    3.763    3.763
 calculate_rho_elec                  31  6.0    0.023    0.023    3.763    3.763
 rs_pw_transfer                     245  9.5    0.005    0.007    3.058    3.226
 yz_to_x                            246 13.1    0.244    0.292    1.791    3.069
 density_rs2pw                       31  7.0    0.002    0.003    2.732    2.896
 sum_up_and_integrate                30  8.0    0.011    0.019    2.639    2.652
 integrate_v_rspace_low              30  9.0    0.086    0.225    2.627    2.644
 potential_pw2rs                     30 10.0    0.002    0.003    2.378    2.391
 xc_functional_eval                  30 11.0    0.000    0.001    1.775    2.315
 pbe_lda_eval                        30 12.0    1.775    2.314    1.775    2.314
 x_to_yz                            271 14.2    0.347    0.390    1.425    1.611
 mp_waitall_1                     54709 13.8    1.136    1.430    1.136    1.430
 calc_pair_dist_radii                 1 10.0    1.101    1.134    1.286    1.319
 -------------------------------------------------------------------------------

 The number of warnings for this run is : 0
 
 -------------------------------------------------------------------------------
  **** **** ******  **  PROGRAM ENDED AT                 2020-11-30 17:45:04.565
 ***** ** ***  *** **   PROGRAM RAN ON                                   tcopt10
 **    ****   ******    PROGRAM RAN BY                                    hutter
 ***** **    ** ** **   PROGRAM PROCESS ID                                 45637
  **** **  *******  **  PROGRAM STOPPED IN /data/hutter/GITHUB/BASIS/MOLOPT/PBE0
                                           /alsipscl
