 DBCSR| CPU Multiplication driver                                           XSMM
 DBCSR| Multrec recursion limit                                              512
 DBCSR| Multiplication stack size                                           1000
 DBCSR| Maximum elements for images                                    UNLIMITED
 DBCSR| Multiplicative factor virtual images                                   1
 DBCSR| Use multiplication densification                                       T
 DBCSR| Multiplication size stacks                                             3
 DBCSR| Use memory pool for CPU allocation                                     F
 DBCSR| Number of 3D layers                                               SINGLE
 DBCSR| Use MPI memory allocation                                              F
 DBCSR| Use RMA algorithm                                                      F
 DBCSR| Use Communication thread                                               T
 DBCSR| Communication thread load                                             87
 DBCSR| Split modifier for TAS multiplication algorithm                  1.0E+00


  **** **** ******  **  PROGRAM STARTED AT               2020-11-30 13:21:22.924
 ***** ** ***  *** **   PROGRAM STARTED ON                               tcopt10
 **    ****   ******    PROGRAM STARTED BY                                hutter
 ***** **    ** ** **   PROGRAM PROCESS ID                                 87726
  **** **  *******  **  PROGRAM STARTED IN /data/hutter/GITHUB/BASIS/MOLOPT/PBE0
                                           /hbcnof

 CP2K| version string:                    CP2K version 8.0 (Development Version)
 CP2K| source code revision number:                                  git:afc71fa
 CP2K| cp2kflags: omp libint fftw3 libxc elpa parallel mpi3 scalapack xsmm spgli
 CP2K|            b sirius
 CP2K| is freely available from                            https://www.cp2k.org/
 CP2K| Program compiled at                          Tue Nov 17 10:27:14 CET 2020
 CP2K| Program compiled on                                               tcopt10
 CP2K| Program compiled for                                                local
 CP2K| Data directory path                 /data/hutter/GITHUB/CURRENT/cp2k/data
 CP2K| Input file name                                              B4H4-ref.inp

 GLOBAL| Force Environment number                                              1
 GLOBAL| Basis set file name                                  ../PBE0_UCSEGBASIS
 GLOBAL| Potential file name                                        ../POTENTIAL
 GLOBAL| MM Potential file name                                     MM_POTENTIAL
 GLOBAL| Coordinate file name                                      __STD_INPUT__
 GLOBAL| Method name                                                        CP2K
 GLOBAL| Project name                                                    refB4H4
 GLOBAL| Preferred FFT library                                             FFTW3
 GLOBAL| Preferred diagonalization lib.                                     ELPA
 GLOBAL| Run type                                                         ENERGY
 GLOBAL| All-to-all communication in single precision                          F
 GLOBAL| FFTs using library dependent lengths                                  F
 GLOBAL| Global print level                                                  LOW
 GLOBAL| MPI I/O enabled                                                       T
 GLOBAL| Total number of message passing processes                            36
 GLOBAL| Number of threads for this process                                    1
 GLOBAL| This output is from process                                           0
 GLOBAL| CPU model name                          AMD EPYC 7401 24-Core Processor
 GLOBAL| CPUID                                                              1002

 MEMORY| system memory details [Kb]
 MEMORY|                        rank 0           min           max       average
 MEMORY| MemTotal            263987256     263987256     263987256     263987256
 MEMORY| MemFree             242390436     242390436     242390436     242390436
 MEMORY| Buffers                   148           148           148           148
 MEMORY| Cached               17705604      17705604      17705604      17705604
 MEMORY| Slab                   938452        938452        938452        938452
 MEMORY| SReclaimable           420896        420896        420896        420896
 MEMORY| MemLikelyFree       260517084     260517084     260517084     260517084


 GENERATE|  Preliminary Number of Bonds generated:                             6
 GENERATE|  Achieved consistency in connectivity generation.
 GENERATE|  Number of Bonds generated:                                         6
 GENERATE|  Preliminary Number of Bends generated:                            12
 GENERATE|  Number of Bends generated:                                        12
 GENERATE|  Number of UB generated:                                           12
 GENERATE|  Preliminary Number of Torsions generated:                         12
 GENERATE|  Number of Torsions generated:                                     12
 GENERATE|  Number of Impropers generated:                                     4

 *******************************************************************************
 *******************************************************************************
 **                                                                           **
 **     #####                         ##              ##                      **
 **    ##   ##            ##          ##              ##                      **
 **   ##     ##                       ##            ######                    **
 **   ##     ##  ##   ##  ##   #####  ##  ##   ####   ##    #####    #####    **
 **   ##     ##  ##   ##  ##  ##      ## ##   ##      ##   ##   ##  ##   ##   **
 **   ##  ## ##  ##   ##  ##  ##      ####     ###    ##   ######   ######    **
 **    ##  ###   ##   ##  ##  ##      ## ##      ##   ##   ##       ##        **
 **     #######   #####   ##   #####  ##  ##  ####    ##    #####   ##        **
 **           ##                                                    ##        **
 **                                                                           **
 **                                                ... make the atoms dance   **
 **                                                                           **
 **            Copyright (C) by CP2K developers group (2000 - 2020)           **
 **                      J. Chem. Phys. 152, 194103 (2020)                    **
 **                                                                           **
 *******************************************************************************


 TOTAL NUMBERS AND MAXIMUM NUMBERS

  Total number of            - Atomic kinds:                                   2
                             - Atoms:                                          8
                             - Shell sets:                                    96
                             - Shells:                                       160
                             - Primitive Cartesian functions:                 96
                             - Cartesian basis functions:                    560
                             - Spherical basis functions:                    480

  Maximum angular momentum of- Orbital basis functions:                        3
                             - Local part of the GTH pseudopotential:          2
                             - Non-local part of the GTH pseudopotential:      0


 SCF PARAMETERS         Density guess:                                    ATOMIC
                        --------------------------------------------------------
                        max_scf:                                              10
                        max_scf_history:                                       0
                        max_diis:                                              4
                        --------------------------------------------------------
                        eps_scf:                                        1.00E-07
                        eps_scf_history:                                0.00E+00
                        eps_diis:                                       1.00E-01
                        eps_eigval:                                     1.00E-05
                        --------------------------------------------------------
                        level_shift [a.u.]:                                 0.00
                        --------------------------------------------------------
                        Outer loop SCF in use 
                        No variables optimised in outer loop
                        eps_scf                                         1.00E-07
                        max_scf                                               10
                        No outer loop optimization
                        step_size                                       5.00E-01

 Number of electrons:                                                         16
 Number of occupied orbitals:                                                  8
 Number of molecular orbitals:                                                 8

 Number of orbital functions:                                                480
 Number of independent orbital functions:                                    480

 Extrapolation method: initial_guess


 SCF WAVEFUNCTION OPTIMIZATION

  ----------------------------------- OT ---------------------------------------
  Minimizer      : DIIS                : direct inversion
                                         in the iterative subspace
                                         using   7 DIIS vectors
                                         safer DIIS on
  Preconditioner : FULL_ALL            : diagonalization, state selective
  Precond_solver : DEFAULT
  stepsize       :    0.15000000                  energy_gap     :    0.08000000
  eps_taylor     :   0.10000E-15                  max_taylor     :             4
  ----------------------------------- OT ---------------------------------------

  Step     Update method      Time    Convergence         Total energy    Change
  ------------------------------------------------------------------------------
     1 OT DIIS     0.15E+00   16.8     0.07357801       -11.8962505306 -1.19E+01
     2 OT DIIS     0.15E+00    2.1     0.06619497       -12.6474137922 -7.51E-01
     3 OT DIIS     0.15E+00    1.9     0.02310487       -13.2298112106 -5.82E-01
     4 OT DIIS     0.15E+00    1.9     0.01671309       -13.3469896345 -1.17E-01
     5 OT DIIS     0.15E+00    1.9     0.01270169       -13.4117424907 -6.48E-02
     6 OT DIIS     0.15E+00    1.9     0.00976812       -13.4721701300 -6.04E-02
     7 OT DIIS     0.15E+00    1.9     0.00633273       -13.5170365039 -4.49E-02
     8 OT DIIS     0.15E+00    1.9     0.00488093       -13.5333300354 -1.63E-02
     9 OT DIIS     0.15E+00    1.9     0.00453253       -13.5329671354  3.63E-04
    10 OT DIIS     0.15E+00    1.9     0.00143287       -13.5377979989 -4.83E-03

  Leaving inner SCF loop after reaching    10 steps.


  Electronic density on regular grids:        -16.0000000000       -0.0000000000
  Core density on regular grids:               16.0000000000       -0.0000000000
  Total charge density on r-space grids:       -0.0000000001
  Total charge density g-space grids:          -0.0000000001

  Overlap energy of the core charge distribution:               0.00000218305162
  Self energy of the core charge distribution:                -30.94786054646266
  Core Hamiltonian energy:                                      9.81022672365374
  Hartree energy:                                              13.13485723772195
  Exchange-correlation energy:                                 -4.28113377438794
  Hartree-Fock Exchange energy:                                -1.25388982242758

  Total energy:                                               -13.53779799885086

  outer SCF iter =    1 RMS gradient =   0.14E-02 energy =        -13.5377979989

  ----------------------------------- OT ---------------------------------------
  Minimizer      : DIIS                : direct inversion
                                         in the iterative subspace
                                         using   7 DIIS vectors
                                         safer DIIS on
  Preconditioner : FULL_ALL            : diagonalization, state selective
  Precond_solver : DEFAULT
  stepsize       :    0.15000000                  energy_gap     :    0.08000000
  eps_taylor     :   0.10000E-15                  max_taylor     :             4
  ----------------------------------- OT ---------------------------------------

  Step     Update method      Time    Convergence         Total energy    Change
  ------------------------------------------------------------------------------
     1 OT DIIS     0.15E+00    3.9     0.00141837       -13.5381277713 -3.30E-04
     2 OT DIIS     0.15E+00    1.9     0.00078943       -13.5387476520 -6.20E-04
     3 OT DIIS     0.15E+00    1.9     0.00040735       -13.5389228561 -1.75E-04
     4 OT DIIS     0.15E+00    1.9     0.00007965       -13.5390219686 -9.91E-05
     5 OT DIIS     0.15E+00    1.9     0.00002994       -13.5390257035 -3.73E-06
     6 OT DIIS     0.15E+00    1.9     0.00000651       -13.5390262635 -5.60E-07
     7 OT DIIS     0.15E+00    1.9     0.00000275       -13.5390262846 -2.11E-08
     8 OT DIIS     0.15E+00    1.9     0.00000086       -13.5390262870 -2.42E-09
     9 OT DIIS     0.15E+00    1.9     0.00000031       -13.5390262874 -3.76E-10
    10 OT DIIS     0.15E+00    1.9     0.00000005       -13.5390262875 -5.66E-11

  *** SCF run converged in    10 steps ***


  Electronic density on regular grids:        -16.0000000000       -0.0000000000
  Core density on regular grids:               16.0000000000       -0.0000000000
  Total charge density on r-space grids:       -0.0000000001
  Total charge density g-space grids:          -0.0000000001

  Overlap energy of the core charge distribution:               0.00000218305162
  Self energy of the core charge distribution:                -30.94786054646266
  Core Hamiltonian energy:                                      9.81008692317298
  Hartree energy:                                              13.13397268888540
  Exchange-correlation energy:                                 -4.28124099844335
  Hartree-Fock Exchange energy:                                -1.25398653766641

  Total energy:                                               -13.53902628746241

  outer SCF iter =    2 RMS gradient =   0.54E-07 energy =        -13.5390262875
  outer SCF loop converged in   2 iterations or   20 steps


 ENERGY| Total FORCE_EVAL ( QS ) energy [a.u.]:              -13.539026287462409

 -------------------------------------------------------------------------------
 -                                                                             -
 -                                DBCSR STATISTICS                             -
 -                                                                             -
 -------------------------------------------------------------------------------
 COUNTER                                    TOTAL       BLAS       SMM       ACC
 flops     8 x     8 x     8               190464       0.0%    100.0%      0.0%
 flops     8 x     8 x   104              2183168       0.0%    100.0%      0.0%
 flops   104 x     8 x     8              2715648       0.0%    100.0%      0.0%
 flops     8 x     8 x    68              2854912       0.0%    100.0%      0.0%
 flops    68 x     8 x     8              3551232       0.0%    100.0%      0.0%
 flops    52 x    52 x     8              9085440       0.0%    100.0%      0.0%
 flops    52 x    68 x     8              9504768       0.0%    100.0%      0.0%
 flops    68 x    52 x     8              9504768       0.0%    100.0%      0.0%
 flops    68 x    68 x     8             15536640       0.0%    100.0%      0.0%
 flops   104 x     8 x   104             30457856       0.0%    100.0%      0.0%
 flops    52 x     8 x    52             37380096       0.0%    100.0%      0.0%
 flops    68 x     8 x   104             39829504       0.0%    100.0%      0.0%
 flops   104 x     8 x    68             39829504       0.0%    100.0%      0.0%
 flops    68 x     8 x    52             48881664       0.0%    100.0%      0.0%
 flops    52 x     8 x    68             48881664       0.0%    100.0%      0.0%
 flops    68 x     8 x    68            116006912       0.0%    100.0%      0.0%
 flops inhomo. stacks                           0       0.0%      0.0%      0.0%
 flops total                       416.394240E+06       0.0%    100.0%      0.0%
 flops max/rank                     80.820480E+06       0.0%    100.0%      0.0%
 matmuls inhomo. stacks                         0       0.0%      0.0%      0.0%
 matmuls total                               7086       0.0%    100.0%      0.0%
 number of processed stacks                  5448       0.0%    100.0%      0.0%
 average stack size                                     0.0       1.3       0.0
 marketing flops                   450.299328E+06
 -------------------------------------------------------------------------------
 # multiplications                            491
 max memory usage/rank               1.567298E+09
 # max total images/rank                        1
 # max 3D layers                                1
 # MPI messages exchanged                  176760
 MPI messages size (bytes):
  total size                       966.743040E+06
  min size                           0.000000E+00
  max size                          86.528000E+03
  average size                       5.469241E+03
 MPI breakdown and total messages size (bytes):
             size <=      128              144570                        0
       128 < size <=     8192               14550                 63575040
      8192 < size <=    32768                   0                        0
     32768 < size <=   131072               17640                903168000
    131072 < size <=  4194304                   0                        0
   4194304 < size <= 16777216                   0                        0
  16777216 < size                               0                        0
 -------------------------------------------------------------------------------
 -                                                                             -
 -                      DBCSR MESSAGE PASSING PERFORMANCE                      -
 -                                                                             -
 -------------------------------------------------------------------------------
 ROUTINE             CALLS      AVE VOLUME [Bytes]
 MP_Bcast               17                     12.
 MP_Allreduce         2635                      8.
 MP_Alltoall          1834                   2793.
 MP_ISend            11776                   2369.
 MP_IRecv            11776                   2509.
 -------------------------------------------------------------------------------

 -------------------------------------------------------------------------------
 -                                                                             -
 -                                GRID STATISTICS                              -
 -                                                                             -
 -------------------------------------------------------------------------------
 LP    KERNEL    OPERATION                                     COUNT     PERCENT
 0     general   collocate                                       288       0.14%
 0     ortho     integrate                                     10760       5.28%
 0     ortho     collocate                                     11298       5.55%
 1     ortho     integrate                                     18800       9.23%
 1     ortho     collocate                                     19740       9.69%
 2     ortho     integrate                                     23040      11.31%
 2     ortho     collocate                                     24192      11.87%
 3     ortho     integrate                                     24880      12.21%
 3     ortho     collocate                                     26124      12.82%
 4     ortho     integrate                                     13440       6.60%
 4     ortho     collocate                                     14112       6.93%
 5     ortho     integrate                                      5120       2.51%
 5     ortho     collocate                                      5376       2.64%
 6     ortho     integrate                                      3200       1.57%
 6     ortho     collocate                                      3360       1.65%
 -------------------------------------------------------------------------------

 MEMORY| Estimated peak process memory [MiB]                                1495

 -------------------------------------------------------------------------------
 -                                                                             -
 -                         MESSAGE PASSING PERFORMANCE                         -
 -                                                                             -
 -------------------------------------------------------------------------------

 ROUTINE             CALLS      AVE VOLUME [Bytes]
 MP_Group                5
 MP_Bcast              268                 695045.
 MP_Allreduce          781                   1795.
 MP_Sync               121
 MP_Alltoall           400                6162012.
 MP_ISendRecv         5775                 102194.
 MP_Wait              7581
 MP_comm_split          14
 MP_ISend             1680                 254016.
 MP_IRecv             1680                 254016.
 MP_Recv                 3                   7680.
 -------------------------------------------------------------------------------


 -------------------------------------------------------------------------------
 -                                                                             -
 -                           R E F E R E N C E S                               -
 -                                                                             -
 -------------------------------------------------------------------------------
 
 CP2K version 8.0 (Development Version), the CP2K developers group (2020).
 CP2K is freely available from https://www.cp2k.org/ .

 Kuehne,Thomas D.; Iannuzzi,Marcella; Del Ben,Mauro;
 Rybkin,Vladimir V.; Seewald,Patrick; Stein,Frederick; Laino,Teodoro;
 Khaliullin,Rustam Z.; Schuett,Ole; Schiffmann,Florian; Golze,Dorothea;
 Wilhelm,Jan; Chulkov,Sergey; Bani-Hashemian,Mohammad Hossein;
 Weber,Valery; Borstnik,Urban; Taillefumier,Mathieu;
 Jakobovits,Alice Shoshana; Lazzaro,Alfio; Pabst,Hans; Mueller,Tiziano;
 Schade,Robert; Guidon,Manuel; Andermatt,Samuel; Holmberg,Nico;
 Schenter,Gregory K.; Hehn,Anna; Bussy,Augustin; Belleflamme,Fabian;
 Tabacchi,Gloria; Gloess,Andreas; Lass,Michael; Bethune,Iain;
 Mundy,Christopher J.; Plessl,Christian; Watkins,Matt;
 VandeVondele,Joost; Krack,Matthias; Hutter,Juerg. 
 The Journal of Chemical Physics, 152 (19), (2020). 
 CP2K: An electronic structure and molecular dynamics software package -
 Quickstep: Efficient and accurate electronic structure calculations.
 https://doi.org/10.1063/5.0007045

 Schuett, Ole; Messmer, Peter; Hutter, Juerg; VandeVondele, Joost. 
 Electronic Structure Calculations on Graphics Processing Units, John
 Wiley & Sons, Ltd, 173-190 (2016). 
 GPU-Accelerated Sparse Matrix-Matrix Multiplication for
 Linear Scaling Density Functional Theory.
 https://doi.org/10.1002/9781118670712.ch8

 Borstnik, U; VandeVondele, J; Weber, V; Hutter, J. 
 PARALLEL COMPUTING, 40 (5-6), 47-58 (2014). 
 Sparse matrix multiplication: The distributed block-compressed sparse
 row library.
 https://doi.org/10.1016/j.parco.2014.03.012

 Hutter, J; Iannuzzi, M; Schiffmann, F; VandeVondele, J. 
 WIREs Comput Mol Sci., 4 (1), 15-25 (2014). 
 CP2K: atomistic simulations of condensed matter systems.
 https://doi.org/10.1002/wcms.1159

 Marek, A; Blum, V; Johanni, R; Havu, V; Lang, B; Auckenthaler, T;
 Heinecke, A; Bungartz, H; Lederer, H. 
 Journal of Physics: Condensed Matter, 26 (21), (2014). 
 The ELPA library: scalable parallel eigenvalue solutions for
 electronic structure
 theory and computational science.
 https://doi.org/10.1088/0953-8984/26/21/213201

 Guidon, M; Hutter, J; VandeVondele, J. 
 JOURNAL OF CHEMICAL THEORY AND COMPUTATION, 5 (11), 3010-3021 (2009). 
 Robust Periodic Hartree-Fock Exchange for Large-Scale Simulations Using
 Gaussian Basis Sets.
 https://doi.org/10.1021/ct900494g

 Guidon, M; Schiffmann, F; Hutter, J; VandeVondele, J. 
 JOURNAL OF CHEMICAL PHYSICS, 128 (21), 214104 (2008). 
 Ab initio molecular dynamics using hybrid density functionals.
 https://doi.org/10.1063/1.2931945

 Krack, M. 
 THEORETICAL CHEMISTRY ACCOUNTS, 114 (1-3), 145-152 (2005). 
 Pseudopotentials for H to Kr optimized for gradient-corrected
 exchange-correlation functionals.
 https://doi.org/10.1007/s00214-005-0655-y

 VandeVondele, J; Krack, M; Mohamed, F; Parrinello, M; Chassaing, T;
 Hutter, J. COMPUTER PHYSICS COMMUNICATIONS, 167 (2), 103-128 (2005). 
 QUICKSTEP: Fast and accurate density functional calculations using a
 mixed Gaussian and plane waves approach.
 https://doi.org/10.1016/j.cpc.2004.12.014

 Frigo, M; Johnson, SG. 
 PROCEEDINGS OF THE IEEE, 93 (2), 216-231 (2005). 
 The design and implementation of FFTW3.
 https://doi.org/10.1109/JPROC.2004.840301

 VandeVondele, J; Hutter, J. 
 JOURNAL OF CHEMICAL PHYSICS, 118 (10), 4365-4369 (2003). 
 An efficient orbital transformation method for electronic structure
 calculations.
 https://doi.org/10.1063/1.1543154

 Martyna, GJ; Tuckerman, ME. 
 JOURNAL OF CHEMICAL PHYSICS, 110 (6), 2810-2821 (1999). 
 A reciprocal space based method for treating long range interactions in
 ab initio and force-field-based calculations in clusters.
 https://doi.org/10.1063/1.477923

 Hartwigsen, C; Goedecker, S; Hutter, J. 
 PHYSICAL REVIEW B, 58 (7), 3641-3662 (1998). 
 Relativistic separable dual-space Gaussian pseudopotentials from H to Rn.
 https://doi.org/10.1103/PhysRevB.58.3641

 Lippert, G; Hutter, J; Parrinello, M. 
 MOLECULAR PHYSICS, 92 (3), 477-487 (1997). 
 A hybrid Gaussian and plane wave density functional scheme.
 https://doi.org/10.1080/002689797170220

 Perdew, JP; Burke, K; Ernzerhof, M. 
 PHYSICAL REVIEW LETTERS, 77 (18), 3865-3868 (1996). 
 Generalized gradient approximation made simple.
 https://doi.org/10.1103/PhysRevLett.77.3865

 Goedecker, S; Teter, M; Hutter, J. 
 PHYSICAL REVIEW B, 54 (3), 1703-1710 (1996). 
 Separable dual-space Gaussian pseudopotentials.
 https://doi.org/10.1103/PhysRevB.54.1703


 -------------------------------------------------------------------------------
 -                                                                             -
 -                                T I M I N G                                  -
 -                                                                             -
 -------------------------------------------------------------------------------
 SUBROUTINE                       CALLS  ASD         SELF TIME        TOTAL TIME
                                MAXIMUM       AVERAGE  MAXIMUM  AVERAGE  MAXIMUM
 CP2K                                 1  1.0    0.140    0.153   54.012   54.012
 qs_energies                          1  2.0    0.000    0.000   53.634   53.635
 scf_env_do_scf                       1  3.0    0.000    0.000   53.427   53.427
 qs_ks_update_qs_env                 22  5.0    0.000    0.000   50.366   50.369
 rebuild_ks_matrix                   20  6.0    0.000    0.000   50.364   50.366
 qs_ks_build_kohn_sham_matrix        20  7.0    0.003    0.004   50.364   50.366
 hfx_ks_matrix                       20  8.0    0.001    0.001   43.129   43.130
 integrate_four_center               20  9.0    0.015    0.017   43.127   43.127
 integrate_four_center_main          20 10.0    0.004    0.005   36.990   38.695
 integrate_four_center_bin         2200 11.0   36.986   38.690   36.986   38.690
 scf_env_do_scf_inner_loop           20  4.0    0.001    0.002   34.856   34.856
 init_scf_loop                        2  4.0    0.000    0.000   18.570   18.570
 pw_transfer                        387  9.6    0.035    0.042    4.768    5.114
 fft_wrap_pw1pw2                    347 10.7    0.005    0.006    4.695    5.052
 fft_wrap_pw1pw2_300                223 11.8    0.248    0.293    4.421    4.773
 qs_vxc_create                       20  8.0    0.000    0.001    4.728    4.740
 xc_vxc_pw_create                    20  9.0    0.036    0.041    4.727    4.739
 fft3d_ps                           347 12.7    1.735    1.874    3.743    4.217
 mp_sync                            121 10.8    2.266    3.956    2.266    3.956
 xc_rho_set_and_dset_create          20 10.0    0.019    0.022    2.866    2.988
 calc_screening_functions             1 10.0    2.001    2.015    2.599    2.615
 qs_rho_update_rho                   21  5.0    0.000    0.000    2.600    2.600
 calculate_rho_elec                  21  6.0    0.015    0.015    2.599    2.600
 mp_alltoall_z22v                   347 14.7    1.590    2.178    1.590    2.178
 rs_pw_transfer                     165  9.4    0.003    0.005    1.801    1.870
 density_rs2pw                       21  7.0    0.001    0.001    1.748    1.812
 sum_up_and_integrate                20  8.0    0.008    0.010    1.780    1.781
 integrate_v_rspace_low              20  9.0    0.267    0.292    1.772    1.775
 xc_functional_eval                  20 11.0    0.000    0.000    1.508    1.629
 pbe_lda_eval                        20 12.0    1.508    1.628    1.508    1.628
 potential_pw2rs                     20 10.0    0.002    0.002    1.465    1.468
 yz_to_x                            166 13.1    0.173    0.207    1.008    1.445
 x_to_yz                            181 14.2    0.234    0.265    0.989    1.120
 -------------------------------------------------------------------------------

 The number of warnings for this run is : 0
 
 -------------------------------------------------------------------------------
  **** **** ******  **  PROGRAM ENDED AT                 2020-11-30 13:22:17.641
 ***** ** ***  *** **   PROGRAM RAN ON                                   tcopt10
 **    ****   ******    PROGRAM RAN BY                                    hutter
 ***** **    ** ** **   PROGRAM PROCESS ID                                 87726
  **** **  *******  **  PROGRAM STOPPED IN /data/hutter/GITHUB/BASIS/MOLOPT/PBE0
                                           /hbcnof
