 DBCSR| CPU Multiplication driver                                           XSMM
 DBCSR| Multrec recursion limit                                              512
 DBCSR| Multiplication stack size                                           1000
 DBCSR| Maximum elements for images                                    UNLIMITED
 DBCSR| Multiplicative factor virtual images                                   1
 DBCSR| Use multiplication densification                                       T
 DBCSR| Multiplication size stacks                                             3
 DBCSR| Use memory pool for CPU allocation                                     F
 DBCSR| Number of 3D layers                                               SINGLE
 DBCSR| Use MPI memory allocation                                              F
 DBCSR| Use RMA algorithm                                                      F
 DBCSR| Use Communication thread                                               T
 DBCSR| Communication thread load                                             87
 DBCSR| Split modifier for TAS multiplication algorithm                  1.0E+00


  **** **** ******  **  PROGRAM STARTED AT               2020-11-30 13:06:05.180
 ***** ** ***  *** **   PROGRAM STARTED ON                               tcopt10
 **    ****   ******    PROGRAM STARTED BY                                hutter
 ***** **    ** ** **   PROGRAM PROCESS ID                                 84939
  **** **  *******  **  PROGRAM STARTED IN /data/hutter/GITHUB/BASIS/MOLOPT/PBE0
                                           /hbcnof

 CP2K| version string:                    CP2K version 8.0 (Development Version)
 CP2K| source code revision number:                                  git:afc71fa
 CP2K| cp2kflags: omp libint fftw3 libxc elpa parallel mpi3 scalapack xsmm spgli
 CP2K|            b sirius
 CP2K| is freely available from                            https://www.cp2k.org/
 CP2K| Program compiled at                          Tue Nov 17 10:27:14 CET 2020
 CP2K| Program compiled on                                               tcopt10
 CP2K| Program compiled for                                                local
 CP2K| Data directory path                 /data/hutter/GITHUB/CURRENT/cp2k/data
 CP2K| Input file name                                               BF3-ref.inp

 GLOBAL| Force Environment number                                              1
 GLOBAL| Basis set file name                                  ../PBE0_UCSEGBASIS
 GLOBAL| Potential file name                                        ../POTENTIAL
 GLOBAL| MM Potential file name                                     MM_POTENTIAL
 GLOBAL| Coordinate file name                                      __STD_INPUT__
 GLOBAL| Method name                                                        CP2K
 GLOBAL| Project name                                                     refBF3
 GLOBAL| Preferred FFT library                                             FFTW3
 GLOBAL| Preferred diagonalization lib.                                     ELPA
 GLOBAL| Run type                                                         ENERGY
 GLOBAL| All-to-all communication in single precision                          F
 GLOBAL| FFTs using library dependent lengths                                  F
 GLOBAL| Global print level                                                  LOW
 GLOBAL| MPI I/O enabled                                                       T
 GLOBAL| Total number of message passing processes                            36
 GLOBAL| Number of threads for this process                                    1
 GLOBAL| This output is from process                                           0
 GLOBAL| CPU model name                          AMD EPYC 7401 24-Core Processor
 GLOBAL| CPUID                                                              1002

 MEMORY| system memory details [Kb]
 MEMORY|                        rank 0           min           max       average
 MEMORY| MemTotal            263987256     263987256     263987256     263987256
 MEMORY| MemFree             242277640     242277640     242277640     242277640
 MEMORY| Buffers                   148           148           148           148
 MEMORY| Cached               17824128      17824128      17824128      17824128
 MEMORY| Slab                   937424        937424        937424        937424
 MEMORY| SReclaimable           420312        420312        420312        420312
 MEMORY| MemLikelyFree       260522228     260522228     260522228     260522228


 GENERATE|  Preliminary Number of Bonds generated:                             0
 GENERATE|  Achieved consistency in connectivity generation.

 *******************************************************************************
 *******************************************************************************
 **                                                                           **
 **     #####                         ##              ##                      **
 **    ##   ##            ##          ##              ##                      **
 **   ##     ##                       ##            ######                    **
 **   ##     ##  ##   ##  ##   #####  ##  ##   ####   ##    #####    #####    **
 **   ##     ##  ##   ##  ##  ##      ## ##   ##      ##   ##   ##  ##   ##   **
 **   ##  ## ##  ##   ##  ##  ##      ####     ###    ##   ######   ######    **
 **    ##  ###   ##   ##  ##  ##      ## ##      ##   ##   ##       ##        **
 **     #######   #####   ##   #####  ##  ##  ####    ##    #####   ##        **
 **           ##                                                    ##        **
 **                                                                           **
 **                                                ... make the atoms dance   **
 **                                                                           **
 **            Copyright (C) by CP2K developers group (2000 - 2020)           **
 **                      J. Chem. Phys. 152, 194103 (2020)                    **
 **                                                                           **
 *******************************************************************************


 TOTAL NUMBERS AND MAXIMUM NUMBERS

  Total number of            - Atomic kinds:                                   2
                             - Atoms:                                          4
                             - Shell sets:                                    48
                             - Shells:                                        80
                             - Primitive Cartesian functions:                 48
                             - Cartesian basis functions:                    224
                             - Spherical basis functions:                    208

  Maximum angular momentum of- Orbital basis functions:                        2
                             - Local part of the GTH pseudopotential:          2
                             - Non-local part of the GTH pseudopotential:      0


 SCF PARAMETERS         Density guess:                                    ATOMIC
                        --------------------------------------------------------
                        max_scf:                                              10
                        max_scf_history:                                       0
                        max_diis:                                              4
                        --------------------------------------------------------
                        eps_scf:                                        1.00E-07
                        eps_scf_history:                                0.00E+00
                        eps_diis:                                       1.00E-01
                        eps_eigval:                                     1.00E-05
                        --------------------------------------------------------
                        level_shift [a.u.]:                                 0.00
                        --------------------------------------------------------
                        Outer loop SCF in use 
                        No variables optimised in outer loop
                        eps_scf                                         1.00E-07
                        max_scf                                               10
                        No outer loop optimization
                        step_size                                       5.00E-01

 Number of electrons:                                                         24
 Number of occupied orbitals:                                                 12
 Number of molecular orbitals:                                                12

 Number of orbital functions:                                                208
 Number of independent orbital functions:                                    208

 Extrapolation method: initial_guess


 SCF WAVEFUNCTION OPTIMIZATION

  ----------------------------------- OT ---------------------------------------
  Minimizer      : DIIS                : direct inversion
                                         in the iterative subspace
                                         using   7 DIIS vectors
                                         safer DIIS on
  Preconditioner : FULL_ALL            : diagonalization, state selective
  Precond_solver : DEFAULT
  stepsize       :    0.15000000                  energy_gap     :    0.08000000
  eps_taylor     :   0.10000E-15                  max_taylor     :             4
  ----------------------------------- OT ---------------------------------------

  Step     Update method      Time    Convergence         Total energy    Change
  ------------------------------------------------------------------------------
     1 OT DIIS     0.15E+00    3.4     0.07574171       -73.7193242172 -7.37E+01
     2 OT DIIS     0.15E+00    0.6     0.06592381       -75.0854933013 -1.37E+00
     3 OT DIIS     0.15E+00    0.6     0.01897268       -75.5669500558 -4.81E-01
     4 OT DIIS     0.15E+00    0.6     0.01921869       -75.6123180928 -4.54E-02
     5 OT DIIS     0.15E+00    0.6     0.01757874       -75.6145385095 -2.22E-03
     6 OT DIIS     0.15E+00    0.6     0.00263725       -75.6387944835 -2.43E-02
     7 OT DIIS     0.15E+00    0.6     0.00131927       -75.6399867030 -1.19E-03
     8 OT DIIS     0.15E+00    0.6     0.00045117       -75.6403135115 -3.27E-04
     9 OT DIIS     0.15E+00    0.6     0.00017539       -75.6403694031 -5.59E-05
    10 OT DIIS     0.15E+00    0.6     0.00009365       -75.6403779528 -8.55E-06

  Leaving inner SCF loop after reaching    10 steps.


  Electronic density on regular grids:        -23.9999999042        0.0000000958
  Core density on regular grids:               24.0000000000       -0.0000000000
  Total charge density on r-space grids:        0.0000000957
  Total charge density g-space grids:           0.0000000957

  Overlap energy of the core charge distribution:               0.00000084531712
  Self energy of the core charge distribution:               -203.11436470814013
  Core Hamiltonian energy:                                     56.75648782602753
  Hartree energy:                                              85.82247426009235
  Exchange-correlation energy:                                -11.57606253600759
  Hartree-Fock Exchange energy:                                -3.52891364005786

  Total energy:                                               -75.64037795276857

  outer SCF iter =    1 RMS gradient =   0.94E-04 energy =        -75.6403779528

  ----------------------------------- OT ---------------------------------------
  Minimizer      : DIIS                : direct inversion
                                         in the iterative subspace
                                         using   7 DIIS vectors
                                         safer DIIS on
  Preconditioner : FULL_ALL            : diagonalization, state selective
  Precond_solver : DEFAULT
  stepsize       :    0.15000000                  energy_gap     :    0.08000000
  eps_taylor     :   0.10000E-15                  max_taylor     :             4
  ----------------------------------- OT ---------------------------------------

  Step     Update method      Time    Convergence         Total energy    Change
  ------------------------------------------------------------------------------
     1 OT DIIS     0.15E+00    1.3     0.00003803       -75.6403801582 -2.21E-06
     2 OT DIIS     0.15E+00    0.6     0.00001647       -75.6403805238 -3.66E-07
     3 OT DIIS     0.15E+00    0.6     0.00000653       -75.6403805995 -7.57E-08
     4 OT DIIS     0.15E+00    0.6     0.00000061       -75.6403806079 -8.44E-09
     5 OT DIIS     0.15E+00    0.6     0.00000023       -75.6403806080 -1.03E-10
     6 OT DIIS     0.15E+00    0.6     0.00000006       -75.6403806080 -1.33E-11

  *** SCF run converged in     6 steps ***


  Electronic density on regular grids:        -23.9999999042        0.0000000958
  Core density on regular grids:               24.0000000000       -0.0000000000
  Total charge density on r-space grids:        0.0000000958
  Total charge density g-space grids:           0.0000000958

  Overlap energy of the core charge distribution:               0.00000084531712
  Self energy of the core charge distribution:               -203.11436470814013
  Core Hamiltonian energy:                                     56.75540087273222
  Hartree energy:                                              85.82330089832175
  Exchange-correlation energy:                                -11.57588168908018
  Hartree-Fock Exchange energy:                                -3.52883682718448

  Total energy:                                               -75.64038060803369

  outer SCF iter =    2 RMS gradient =   0.57E-07 energy =        -75.6403806080
  outer SCF loop converged in   2 iterations or   16 steps


 ENERGY| Total FORCE_EVAL ( QS ) energy [a.u.]:              -75.640380608033695

 -------------------------------------------------------------------------------
 -                                                                             -
 -                                DBCSR STATISTICS                             -
 -                                                                             -
 -------------------------------------------------------------------------------
 COUNTER                                    TOTAL       BLAS       SMM       ACC
 flops    12 x    12 x    12               311040       0.0%    100.0%      0.0%
 flops    12 x    12 x    52              3953664       0.0%    100.0%      0.0%
 flops    52 x    12 x    12              4912128       0.0%    100.0%      0.0%
 flops    52 x    52 x    12             11032320       0.0%    100.0%      0.0%
 flops    52 x    12 x    52             85143552       0.0%    100.0%      0.0%
 flops inhomo. stacks                           0       0.0%      0.0%      0.0%
 flops total                       105.352704E+06       0.0%    100.0%      0.0%
 flops max/rank                     27.881856E+06       0.0%    100.0%      0.0%
 matmuls inhomo. stacks                         0       0.0%      0.0%      0.0%
 matmuls total                               2164       0.0%    100.0%      0.0%
 number of processed stacks                  2164       0.0%    100.0%      0.0%
 average stack size                                     0.0       1.0       0.0
 marketing flops                   112.091952E+06
 -------------------------------------------------------------------------------
 # multiplications                            339
 max memory usage/rank             387.858432E+06
 # max total images/rank                        1
 # max 3D layers                                1
 # MPI messages exchanged                  122040
 MPI messages size (bytes):
  total size                       176.362240E+06
  min size                           0.000000E+00
  max size                          21.632000E+03
  average size                       1.445118E+03
 MPI breakdown and total messages size (bytes):
             size <=      128              107570                        0
       128 < size <=     8192                7910                 34456320
      8192 < size <=    32768                6560                141905920
     32768 < size <=   131072                   0                        0
    131072 < size <=  4194304                   0                        0
   4194304 < size <= 16777216                   0                        0
  16777216 < size                               0                        0
 -------------------------------------------------------------------------------
 -                                                                             -
 -                      DBCSR MESSAGE PASSING PERFORMANCE                      -
 -                                                                             -
 -------------------------------------------------------------------------------
 ROUTINE             CALLS      AVE VOLUME [Bytes]
 MP_Bcast                6                     12.
 MP_Allreduce         1813                      8.
 MP_Alltoall          1474                   2915.
 MP_ISend             8128                   1564.
 MP_IRecv             8128                   1105.
 -------------------------------------------------------------------------------

 -------------------------------------------------------------------------------
 -                                                                             -
 -                                GRID STATISTICS                              -
 -                                                                             -
 -------------------------------------------------------------------------------
 LP    KERNEL    OPERATION                                     COUNT     PERCENT
 0     general   collocate                                       144       0.32%
 2     ortho     integrate                                      9520      20.88%
 2     ortho     collocate                                     10115      22.19%
 3     ortho     integrate                                      9952      21.83%
 3     ortho     collocate                                     10574      23.20%
 4     ortho     integrate                                      2560       5.62%
 4     ortho     collocate                                      2720       5.97%
 -------------------------------------------------------------------------------

 MEMORY| Estimated peak process memory [MiB]                                 371

 -------------------------------------------------------------------------------
 -                                                                             -
 -                         MESSAGE PASSING PERFORMANCE                         -
 -                                                                             -
 -------------------------------------------------------------------------------

 ROUTINE             CALLS      AVE VOLUME [Bytes]
 MP_Group                5
 MP_Bcast              327                 569558.
 MP_Allreduce          921                   1545.
 MP_Sync                87
 MP_Alltoall           326                6094685.
 MP_ISendRecv         3500                  29372.
 MP_Wait              6579
 MP_ISend             2812                 175637.
 MP_IRecv             2812                 175637.
 MP_Recv                 5                   3328.
 -------------------------------------------------------------------------------


 -------------------------------------------------------------------------------
 -                                                                             -
 -                           R E F E R E N C E S                               -
 -                                                                             -
 -------------------------------------------------------------------------------
 
 CP2K version 8.0 (Development Version), the CP2K developers group (2020).
 CP2K is freely available from https://www.cp2k.org/ .

 Kuehne,Thomas D.; Iannuzzi,Marcella; Del Ben,Mauro;
 Rybkin,Vladimir V.; Seewald,Patrick; Stein,Frederick; Laino,Teodoro;
 Khaliullin,Rustam Z.; Schuett,Ole; Schiffmann,Florian; Golze,Dorothea;
 Wilhelm,Jan; Chulkov,Sergey; Bani-Hashemian,Mohammad Hossein;
 Weber,Valery; Borstnik,Urban; Taillefumier,Mathieu;
 Jakobovits,Alice Shoshana; Lazzaro,Alfio; Pabst,Hans; Mueller,Tiziano;
 Schade,Robert; Guidon,Manuel; Andermatt,Samuel; Holmberg,Nico;
 Schenter,Gregory K.; Hehn,Anna; Bussy,Augustin; Belleflamme,Fabian;
 Tabacchi,Gloria; Gloess,Andreas; Lass,Michael; Bethune,Iain;
 Mundy,Christopher J.; Plessl,Christian; Watkins,Matt;
 VandeVondele,Joost; Krack,Matthias; Hutter,Juerg. 
 The Journal of Chemical Physics, 152 (19), (2020). 
 CP2K: An electronic structure and molecular dynamics software package -
 Quickstep: Efficient and accurate electronic structure calculations.
 https://doi.org/10.1063/5.0007045

 Schuett, Ole; Messmer, Peter; Hutter, Juerg; VandeVondele, Joost. 
 Electronic Structure Calculations on Graphics Processing Units, John
 Wiley & Sons, Ltd, 173-190 (2016). 
 GPU-Accelerated Sparse Matrix-Matrix Multiplication for
 Linear Scaling Density Functional Theory.
 https://doi.org/10.1002/9781118670712.ch8

 Borstnik, U; VandeVondele, J; Weber, V; Hutter, J. 
 PARALLEL COMPUTING, 40 (5-6), 47-58 (2014). 
 Sparse matrix multiplication: The distributed block-compressed sparse
 row library.
 https://doi.org/10.1016/j.parco.2014.03.012

 Hutter, J; Iannuzzi, M; Schiffmann, F; VandeVondele, J. 
 WIREs Comput Mol Sci., 4 (1), 15-25 (2014). 
 CP2K: atomistic simulations of condensed matter systems.
 https://doi.org/10.1002/wcms.1159

 Marek, A; Blum, V; Johanni, R; Havu, V; Lang, B; Auckenthaler, T;
 Heinecke, A; Bungartz, H; Lederer, H. 
 Journal of Physics: Condensed Matter, 26 (21), (2014). 
 The ELPA library: scalable parallel eigenvalue solutions for
 electronic structure
 theory and computational science.
 https://doi.org/10.1088/0953-8984/26/21/213201

 Guidon, M; Hutter, J; VandeVondele, J. 
 JOURNAL OF CHEMICAL THEORY AND COMPUTATION, 5 (11), 3010-3021 (2009). 
 Robust Periodic Hartree-Fock Exchange for Large-Scale Simulations Using
 Gaussian Basis Sets.
 https://doi.org/10.1021/ct900494g

 Guidon, M; Schiffmann, F; Hutter, J; VandeVondele, J. 
 JOURNAL OF CHEMICAL PHYSICS, 128 (21), 214104 (2008). 
 Ab initio molecular dynamics using hybrid density functionals.
 https://doi.org/10.1063/1.2931945

 Krack, M. 
 THEORETICAL CHEMISTRY ACCOUNTS, 114 (1-3), 145-152 (2005). 
 Pseudopotentials for H to Kr optimized for gradient-corrected
 exchange-correlation functionals.
 https://doi.org/10.1007/s00214-005-0655-y

 VandeVondele, J; Krack, M; Mohamed, F; Parrinello, M; Chassaing, T;
 Hutter, J. COMPUTER PHYSICS COMMUNICATIONS, 167 (2), 103-128 (2005). 
 QUICKSTEP: Fast and accurate density functional calculations using a
 mixed Gaussian and plane waves approach.
 https://doi.org/10.1016/j.cpc.2004.12.014

 Frigo, M; Johnson, SG. 
 PROCEEDINGS OF THE IEEE, 93 (2), 216-231 (2005). 
 The design and implementation of FFTW3.
 https://doi.org/10.1109/JPROC.2004.840301

 VandeVondele, J; Hutter, J. 
 JOURNAL OF CHEMICAL PHYSICS, 118 (10), 4365-4369 (2003). 
 An efficient orbital transformation method for electronic structure
 calculations.
 https://doi.org/10.1063/1.1543154

 Martyna, GJ; Tuckerman, ME. 
 JOURNAL OF CHEMICAL PHYSICS, 110 (6), 2810-2821 (1999). 
 A reciprocal space based method for treating long range interactions in
 ab initio and force-field-based calculations in clusters.
 https://doi.org/10.1063/1.477923

 Hartwigsen, C; Goedecker, S; Hutter, J. 
 PHYSICAL REVIEW B, 58 (7), 3641-3662 (1998). 
 Relativistic separable dual-space Gaussian pseudopotentials from H to Rn.
 https://doi.org/10.1103/PhysRevB.58.3641

 Lippert, G; Hutter, J; Parrinello, M. 
 MOLECULAR PHYSICS, 92 (3), 477-487 (1997). 
 A hybrid Gaussian and plane wave density functional scheme.
 https://doi.org/10.1080/002689797170220

 Perdew, JP; Burke, K; Ernzerhof, M. 
 PHYSICAL REVIEW LETTERS, 77 (18), 3865-3868 (1996). 
 Generalized gradient approximation made simple.
 https://doi.org/10.1103/PhysRevLett.77.3865

 Goedecker, S; Teter, M; Hutter, J. 
 PHYSICAL REVIEW B, 54 (3), 1703-1710 (1996). 
 Separable dual-space Gaussian pseudopotentials.
 https://doi.org/10.1103/PhysRevB.54.1703


 -------------------------------------------------------------------------------
 -                                                                             -
 -                                T I M I N G                                  -
 -                                                                             -
 -------------------------------------------------------------------------------
 SUBROUTINE                       CALLS  ASD         SELF TIME        TOTAL TIME
                                MAXIMUM       AVERAGE  MAXIMUM  AVERAGE  MAXIMUM
 CP2K                                 1  1.0    0.012    0.015   12.984   12.985
 qs_energies                          1  2.0    0.000    0.000   12.745   12.745
 scf_env_do_scf                       1  3.0    0.000    0.000   12.543   12.543
 qs_ks_update_qs_env                 18  5.0    0.000    0.000   10.252   10.252
 rebuild_ks_matrix                   16  6.0    0.000    0.000   10.250   10.251
 qs_ks_build_kohn_sham_matrix        16  7.0    0.003    0.003   10.250   10.251
 scf_env_do_scf_inner_loop           16  4.0    0.001    0.002    8.642    8.642
 pw_transfer                        311  9.6    0.027    0.033    4.029    4.569
 fft_wrap_pw1pw2                    279 10.7    0.004    0.005    3.971    4.515
 hfx_ks_matrix                       16  8.0    0.001    0.001    4.449    4.449
 integrate_four_center               16  9.0    0.007    0.008    4.447    4.448
 fft_wrap_pw1pw2_300                179 11.8    0.199    0.242    3.716    4.242
 init_scf_loop                        2  4.0    0.000    0.000    3.899    3.900
 fft3d_ps                           279 12.7    1.400    1.488    3.201    3.860
 qs_vxc_create                       16  8.0    0.000    0.001    3.661    3.672
 xc_vxc_pw_create                    16  9.0    0.028    0.030    3.660    3.671
 xc_rho_set_and_dset_create          16 10.0    0.015    0.018    2.038    2.290
 mp_alltoall_z22v                   279 14.7    1.463    2.204    1.463    2.204
 integrate_four_center_main          16 10.0    0.002    0.003    1.548    2.069
 qs_rho_update_rho                   17  5.0    0.000    0.000    2.068    2.068
 calculate_rho_elec                  17  6.0    0.012    0.014    2.068    2.068
 integrate_four_center_bin         2016 11.0    1.546    2.067    1.546    2.067
 density_rs2pw                       17  7.0    0.001    0.001    1.659    1.761
 rs_pw_transfer                     133  9.4    0.003    0.004    1.558    1.668
 yz_to_x                            134 13.1    0.141    0.166    0.990    1.605
 sum_up_and_integrate                16  8.0    0.006    0.008    1.532    1.532
 integrate_v_rspace_low              16  9.0    0.045    0.440    1.525    1.527
 calc_screening_functions             1 10.0    0.688    0.695    1.391    1.425
 xc_functional_eval                  16 11.0    0.000    0.000    0.950    1.203
 pbe_lda_eval                        16 12.0    0.950    1.203    0.950    1.203
 mp_sync                             87 10.7    0.584    1.098    0.584    1.098
 potential_pw2rs                     16 10.0    0.001    0.001    1.078    1.080
 mp_waitany                        2812 11.4    0.742    0.978    0.742    0.978
 powell_optimize                 328980 11.0    0.886    0.913    0.886    0.913
 x_to_yz                            145 14.2    0.188    0.211    0.802    0.909
 rs_pw_transfer_RS2PW_300            18  8.9    0.182    0.275    0.704    0.819
 calc_pair_dist_radii                 1 10.0    0.616    0.621    0.798    0.805
 grid_collocate_task_list            17  7.0    0.242    0.794    0.242    0.794
 mp_alltoall_d11v                   405 11.4    0.445    0.508    0.445    0.508
 rs_distribute_matrix                16 10.0    0.000    0.001    0.401    0.446
 rs_pw_transfer_PW2RS_300            16 12.0    0.199    0.256    0.360    0.414
 pw_gather_p                        134 12.1    0.266    0.351    0.266    0.351
 pw_scatter_p                       145 13.2    0.287    0.332    0.287    0.332
 mp_waitall_1                     25463 13.7    0.189    0.300    0.189    0.300
 rs_pw_transfer_PW2RS_100            16 12.0    0.071    0.089    0.202    0.280
 qs_scf_new_mos                      16  5.0    0.000    0.000    0.268    0.269
 qs_scf_loop_do_ot                   16  6.0    0.000    0.000    0.268    0.269
 -------------------------------------------------------------------------------

 The number of warnings for this run is : 0
 
 -------------------------------------------------------------------------------
  **** **** ******  **  PROGRAM ENDED AT                 2020-11-30 13:06:18.884
 ***** ** ***  *** **   PROGRAM RAN ON                                   tcopt10
 **    ****   ******    PROGRAM RAN BY                                    hutter
 ***** **    ** ** **   PROGRAM PROCESS ID                                 84939
  **** **  *******  **  PROGRAM STOPPED IN /data/hutter/GITHUB/BASIS/MOLOPT/PBE0
                                           /hbcnof
