 DBCSR| CPU Multiplication driver                                           XSMM
 DBCSR| Multrec recursion limit                                              512
 DBCSR| Multiplication stack size                                           1000
 DBCSR| Maximum elements for images                                    UNLIMITED
 DBCSR| Multiplicative factor virtual images                                   1
 DBCSR| Use multiplication densification                                       T
 DBCSR| Multiplication size stacks                                             3
 DBCSR| Use memory pool for CPU allocation                                     F
 DBCSR| Number of 3D layers                                               SINGLE
 DBCSR| Use MPI memory allocation                                              F
 DBCSR| Use RMA algorithm                                                      F
 DBCSR| Use Communication thread                                               T
 DBCSR| Communication thread load                                             87
 DBCSR| Split modifier for TAS multiplication algorithm                  1.0E+00


  **** **** ******  **  PROGRAM STARTED AT               2020-11-30 13:07:34.716
 ***** ** ***  *** **   PROGRAM STARTED ON                               tcopt10
 **    ****   ******    PROGRAM STARTED BY                                hutter
 ***** **    ** ** **   PROGRAM PROCESS ID                                 85651
  **** **  *******  **  PROGRAM STARTED IN /data/hutter/GITHUB/BASIS/MOLOPT/PBE0
                                           /hbcnof

 CP2K| version string:                    CP2K version 8.0 (Development Version)
 CP2K| source code revision number:                                  git:afc71fa
 CP2K| cp2kflags: omp libint fftw3 libxc elpa parallel mpi3 scalapack xsmm spgli
 CP2K|            b sirius
 CP2K| is freely available from                            https://www.cp2k.org/
 CP2K| Program compiled at                          Tue Nov 17 10:27:14 CET 2020
 CP2K| Program compiled on                                               tcopt10
 CP2K| Program compiled for                                                local
 CP2K| Data directory path                 /data/hutter/GITHUB/CURRENT/cp2k/data
 CP2K| Input file name                                             BH3CO-ref.inp

 GLOBAL| Force Environment number                                              1
 GLOBAL| Basis set file name                                  ../PBE0_UCSEGBASIS
 GLOBAL| Potential file name                                        ../POTENTIAL
 GLOBAL| MM Potential file name                                     MM_POTENTIAL
 GLOBAL| Coordinate file name                                      __STD_INPUT__
 GLOBAL| Method name                                                        CP2K
 GLOBAL| Project name                                                   refBH3CO
 GLOBAL| Preferred FFT library                                             FFTW3
 GLOBAL| Preferred diagonalization lib.                                     ELPA
 GLOBAL| Run type                                                         ENERGY
 GLOBAL| All-to-all communication in single precision                          F
 GLOBAL| FFTs using library dependent lengths                                  F
 GLOBAL| Global print level                                                  LOW
 GLOBAL| MPI I/O enabled                                                       T
 GLOBAL| Total number of message passing processes                            36
 GLOBAL| Number of threads for this process                                    1
 GLOBAL| This output is from process                                           0
 GLOBAL| CPU model name                          AMD EPYC 7401 24-Core Processor
 GLOBAL| CPUID                                                              1002

 MEMORY| system memory details [Kb]
 MEMORY|                        rank 0           min           max       average
 MEMORY| MemTotal            263987256     263987256     263987256     263987256
 MEMORY| MemFree             242285772     242285772     242285772     242285772
 MEMORY| Buffers                   148           148           148           148
 MEMORY| Cached               17825072      17825072      17825072      17825072
 MEMORY| Slab                   938692        938692        938692        938692
 MEMORY| SReclaimable           421080        421080        421080        421080
 MEMORY| MemLikelyFree       260532072     260532072     260532072     260532072


 GENERATE|  Preliminary Number of Bonds generated:                             2
 GENERATE|  Achieved consistency in connectivity generation.
 GENERATE|  Number of Bonds generated:                                         2
 GENERATE|  Preliminary Number of Bends generated:                             1
 GENERATE|  Number of Bends generated:                                         1
 GENERATE|  Number of UB generated:                                            1
 GENERATE|  Preliminary Number of Torsions generated:                          0

 *******************************************************************************
 *******************************************************************************
 **                                                                           **
 **     #####                         ##              ##                      **
 **    ##   ##            ##          ##              ##                      **
 **   ##     ##                       ##            ######                    **
 **   ##     ##  ##   ##  ##   #####  ##  ##   ####   ##    #####    #####    **
 **   ##     ##  ##   ##  ##  ##      ## ##   ##      ##   ##   ##  ##   ##   **
 **   ##  ## ##  ##   ##  ##  ##      ####     ###    ##   ######   ######    **
 **    ##  ###   ##   ##  ##  ##      ## ##      ##   ##   ##       ##        **
 **     #######   #####   ##   #####  ##  ##  ####    ##    #####   ##        **
 **           ##                                                    ##        **
 **                                                                           **
 **                                                ... make the atoms dance   **
 **                                                                           **
 **            Copyright (C) by CP2K developers group (2000 - 2020)           **
 **                      J. Chem. Phys. 152, 194103 (2020)                    **
 **                                                                           **
 *******************************************************************************


 TOTAL NUMBERS AND MAXIMUM NUMBERS

  Total number of            - Atomic kinds:                                   4
                             - Atoms:                                          6
                             - Shell sets:                                    72
                             - Shells:                                       128
                             - Primitive Cartesian functions:                 72
                             - Cartesian basis functions:                    520
                             - Spherical basis functions:                    424

  Maximum angular momentum of- Orbital basis functions:                        4
                             - Local part of the GTH pseudopotential:          2
                             - Non-local part of the GTH pseudopotential:      0


 SCF PARAMETERS         Density guess:                                    ATOMIC
                        --------------------------------------------------------
                        max_scf:                                              10
                        max_scf_history:                                       0
                        max_diis:                                              4
                        --------------------------------------------------------
                        eps_scf:                                        1.00E-07
                        eps_scf_history:                                0.00E+00
                        eps_diis:                                       1.00E-01
                        eps_eigval:                                     1.00E-05
                        --------------------------------------------------------
                        level_shift [a.u.]:                                 0.00
                        --------------------------------------------------------
                        Outer loop SCF in use 
                        No variables optimised in outer loop
                        eps_scf                                         1.00E-07
                        max_scf                                               10
                        No outer loop optimization
                        step_size                                       5.00E-01

 Number of electrons:                                                         16
 Number of occupied orbitals:                                                  8
 Number of molecular orbitals:                                                 8

 Number of orbital functions:                                                424
 Number of independent orbital functions:                                    424

 Extrapolation method: initial_guess


 SCF WAVEFUNCTION OPTIMIZATION

  ----------------------------------- OT ---------------------------------------
  Minimizer      : DIIS                : direct inversion
                                         in the iterative subspace
                                         using   7 DIIS vectors
                                         safer DIIS on
  Preconditioner : FULL_ALL            : diagonalization, state selective
  Precond_solver : DEFAULT
  stepsize       :    0.15000000                  energy_gap     :    0.08000000
  eps_taylor     :   0.10000E-15                  max_taylor     :             4
  ----------------------------------- OT ---------------------------------------

  Step     Update method      Time    Convergence         Total energy    Change
  ------------------------------------------------------------------------------
     1 OT DIIS     0.15E+00   46.9     0.06838789       -24.5516139399 -2.46E+01
     2 OT DIIS     0.15E+00    1.6     0.06949564       -25.4843884596 -9.33E-01
     3 OT DIIS     0.15E+00    1.5     0.03758421       -26.0097619450 -5.25E-01
     4 OT DIIS     0.15E+00    1.5     0.02404710       -26.1750036909 -1.65E-01
     5 OT DIIS     0.15E+00    1.5     0.01354305       -26.2418498444 -6.68E-02
     6 OT DIIS     0.15E+00    1.5     0.00770173       -26.2739537885 -3.21E-02
     7 OT DIIS     0.15E+00    1.5     0.00668690       -26.2791627766 -5.21E-03
     8 OT DIIS     0.15E+00    1.5     0.00260678       -26.2891959393 -1.00E-02
     9 OT DIIS     0.15E+00    1.5     0.00133833       -26.2905344272 -1.34E-03
    10 OT DIIS     0.15E+00    1.5     0.00056750       -26.2911822714 -6.48E-04

  Leaving inner SCF loop after reaching    10 steps.


  Electronic density on regular grids:        -16.0000000000       -0.0000000000
  Core density on regular grids:               16.0000000000       -0.0000000000
  Total charge density on r-space grids:       -0.0000000001
  Total charge density g-space grids:          -0.0000000001

  Overlap energy of the core charge distribution:               0.00000370316787
  Self energy of the core charge distribution:                -64.98338783198466
  Core Hamiltonian energy:                                     19.11643842610835
  Hartree energy:                                              26.79153244905415
  Exchange-correlation energy:                                 -5.56168597846553
  Hartree-Fock Exchange energy:                                -1.65408303925746

  Total energy:                                               -26.29118227137728

  outer SCF iter =    1 RMS gradient =   0.57E-03 energy =        -26.2911822714

  ----------------------------------- OT ---------------------------------------
  Minimizer      : DIIS                : direct inversion
                                         in the iterative subspace
                                         using   7 DIIS vectors
                                         safer DIIS on
  Preconditioner : FULL_ALL            : diagonalization, state selective
  Precond_solver : DEFAULT
  stepsize       :    0.15000000                  energy_gap     :    0.08000000
  eps_taylor     :   0.10000E-15                  max_taylor     :             4
  ----------------------------------- OT ---------------------------------------

  Step     Update method      Time    Convergence         Total energy    Change
  ------------------------------------------------------------------------------
     1 OT DIIS     0.15E+00    3.1     0.00024985       -26.2913116924 -1.29E-04
     2 OT DIIS     0.15E+00    1.5     0.00010405       -26.2913336203 -2.19E-05
     3 OT DIIS     0.15E+00    1.5     0.00002271       -26.2913384467 -4.83E-06
     4 OT DIIS     0.15E+00    1.5     0.00000985       -26.2913386407 -1.94E-07
     5 OT DIIS     0.15E+00    1.5     0.00000403       -26.2913386589 -1.82E-08
     6 OT DIIS     0.15E+00    1.5     0.00000125       -26.2913386640 -5.13E-09
     7 OT DIIS     0.15E+00    1.5     0.00000022       -26.2913386646 -6.23E-10
     8 OT DIIS     0.15E+00    1.5     0.00000006       -26.2913386646 -2.24E-11

  *** SCF run converged in     8 steps ***


  Electronic density on regular grids:        -16.0000000001       -0.0000000001
  Core density on regular grids:               16.0000000000       -0.0000000000
  Total charge density on r-space grids:       -0.0000000001
  Total charge density g-space grids:          -0.0000000001

  Overlap energy of the core charge distribution:               0.00000370316787
  Self energy of the core charge distribution:                -64.98338783198466
  Core Hamiltonian energy:                                     19.11518588438682
  Hartree energy:                                              26.79213921647814
  Exchange-correlation energy:                                 -5.56136635000104
  Hartree-Fock Exchange energy:                                -1.65391328667419

  Total energy:                                               -26.29133866462704

  outer SCF iter =    2 RMS gradient =   0.57E-07 energy =        -26.2913386646
  outer SCF loop converged in   2 iterations or   18 steps


 ENERGY| Total FORCE_EVAL ( QS ) energy [a.u.]:              -26.291338664627045

 -------------------------------------------------------------------------------
 -                                                                             -
 -                                DBCSR STATISTICS                             -
 -                                                                             -
 -------------------------------------------------------------------------------
 COUNTER                                    TOTAL       BLAS       SMM       ACC
 flops     8 x     8 x     8               131072       0.0%    100.0%      0.0%
 flops     8 x     8 x    52               985088       0.0%    100.0%      0.0%
 flops     8 x     8 x   116              1098752       0.0%    100.0%      0.0%
 flops    52 x     8 x     8              1224704       0.0%    100.0%      0.0%
 flops   116 x     8 x     8              1366016       0.0%    100.0%      0.0%
 flops     8 x     8 x    68              1932288       0.0%    100.0%      0.0%
 flops    52 x    68 x     8              2149888       0.0%    100.0%      0.0%
 flops    68 x   116 x     8              2397952       0.0%    100.0%      0.0%
 flops    68 x     8 x     8              2402304       0.0%    100.0%      0.0%
 flops    52 x    52 x     8              2466048       0.0%    100.0%      0.0%
 flops    52 x   116 x     8              3667456       0.0%    100.0%      0.0%
 flops   116 x   116 x     8              4090624       0.0%    100.0%      0.0%
 flops    68 x    52 x     8              4299776       0.0%    100.0%      0.0%
 flops   116 x    68 x     8              4795904       0.0%    100.0%      0.0%
 flops    68 x    68 x     8              8434176       0.0%    100.0%      0.0%
 flops    52 x     8 x    52             15575040       0.0%    100.0%      0.0%
 flops   116 x     8 x    52             17372160       0.0%    100.0%      0.0%
 flops    52 x     8 x   116             17372160       0.0%    100.0%      0.0%
 flops   116 x     8 x   116             19376640       0.0%    100.0%      0.0%
 flops    52 x     8 x    68             30551040       0.0%    100.0%      0.0%
 flops    68 x     8 x    52             30551040       0.0%    100.0%      0.0%
 flops   116 x     8 x    68             34076160       0.0%    100.0%      0.0%
 flops    68 x     8 x   116             34076160       0.0%    100.0%      0.0%
 flops    68 x     8 x    68             59927040       0.0%    100.0%      0.0%
 flops inhomo. stacks                           0       0.0%      0.0%      0.0%
 flops total                       300.319488E+06       0.0%    100.0%      0.0%
 flops max/rank                     80.428800E+06       0.0%    100.0%      0.0%
 matmuls inhomo. stacks                         0       0.0%      0.0%      0.0%
 matmuls total                               4763       0.0%    100.0%      0.0%
 number of processed stacks                  4763       0.0%    100.0%      0.0%
 average stack size                                     0.0       1.0       0.0
 marketing flops                   322.778176E+06
 -------------------------------------------------------------------------------
 # multiplications                            405
 max memory usage/rank               1.495409E+09
 # max total images/rank                        1
 # max 3D layers                                1
 # MPI messages exchanged                  145800
 MPI messages size (bytes):
  total size                       698.014720E+06
  min size                           0.000000E+00
  max size                         107.648000E+03
  average size                       4.787481E+03
 MPI breakdown and total messages size (bytes):
             size <=      128              116820                        0
       128 < size <=     8192               12780                 50821120
      8192 < size <=    32768                7200                191692800
     32768 < size <=   131072                9000                455500800
    131072 < size <=  4194304                   0                        0
   4194304 < size <= 16777216                   0                        0
  16777216 < size                               0                        0
 -------------------------------------------------------------------------------
 -                                                                             -
 -                      DBCSR MESSAGE PASSING PERFORMANCE                      -
 -                                                                             -
 -------------------------------------------------------------------------------
 ROUTINE             CALLS      AVE VOLUME [Bytes]
 MP_Bcast               25                     12.
 MP_Allreduce         2201                      9.
 MP_Alltoall          1634                   4121.
 MP_ISend             9712                   3958.
 MP_IRecv             9712                   3189.
 -------------------------------------------------------------------------------

 -------------------------------------------------------------------------------
 -                                                                             -
 -                                GRID STATISTICS                              -
 -                                                                             -
 -------------------------------------------------------------------------------
 LP    KERNEL    OPERATION                                     COUNT     PERCENT
 0     general   collocate                                       216       0.20%
 0     ortho     integrate                                      6588       6.13%
 0     ortho     collocate                                      6954       6.47%
 1     ortho     integrate                                      9018       8.39%
 1     ortho     collocate                                      9519       8.86%
 2     ortho     integrate                                      9900       9.21%
 2     ortho     collocate                                     10450       9.73%
 3     ortho     integrate                                     11502      10.71%
 3     ortho     collocate                                     12141      11.30%
 4     ortho     integrate                                      7668       7.14%
 4     ortho     collocate                                      8094       7.53%
 5     ortho     integrate                                      4032       3.75%
 5     ortho     collocate                                      4256       3.96%
 6     ortho     integrate                                      2304       2.14%
 6     ortho     collocate                                      2432       2.26%
 7     ortho     integrate                                       864       0.80%
 7     ortho     collocate                                       912       0.85%
 8     ortho     integrate                                       288       0.27%
 8     ortho     collocate                                       304       0.28%
 -------------------------------------------------------------------------------

 MEMORY| Estimated peak process memory [MiB]                                1427

 -------------------------------------------------------------------------------
 -                                                                             -
 -                         MESSAGE PASSING PERFORMANCE                         -
 -                                                                             -
 -------------------------------------------------------------------------------

 ROUTINE             CALLS      AVE VOLUME [Bytes]
 MP_Group                5
 MP_Bcast              290                1283908.
 MP_Allreduce          766                   1830.
 MP_Sync               111
 MP_Alltoall           362                6196425.
 MP_ISendRecv         5215                 112415.
 MP_Wait              6849
 MP_comm_split          14
 MP_ISend             1520                 254016.
 MP_IRecv             1520                 254016.
 MP_Recv                 3                   6784.
 -------------------------------------------------------------------------------


 -------------------------------------------------------------------------------
 -                                                                             -
 -                           R E F E R E N C E S                               -
 -                                                                             -
 -------------------------------------------------------------------------------
 
 CP2K version 8.0 (Development Version), the CP2K developers group (2020).
 CP2K is freely available from https://www.cp2k.org/ .

 Kuehne,Thomas D.; Iannuzzi,Marcella; Del Ben,Mauro;
 Rybkin,Vladimir V.; Seewald,Patrick; Stein,Frederick; Laino,Teodoro;
 Khaliullin,Rustam Z.; Schuett,Ole; Schiffmann,Florian; Golze,Dorothea;
 Wilhelm,Jan; Chulkov,Sergey; Bani-Hashemian,Mohammad Hossein;
 Weber,Valery; Borstnik,Urban; Taillefumier,Mathieu;
 Jakobovits,Alice Shoshana; Lazzaro,Alfio; Pabst,Hans; Mueller,Tiziano;
 Schade,Robert; Guidon,Manuel; Andermatt,Samuel; Holmberg,Nico;
 Schenter,Gregory K.; Hehn,Anna; Bussy,Augustin; Belleflamme,Fabian;
 Tabacchi,Gloria; Gloess,Andreas; Lass,Michael; Bethune,Iain;
 Mundy,Christopher J.; Plessl,Christian; Watkins,Matt;
 VandeVondele,Joost; Krack,Matthias; Hutter,Juerg. 
 The Journal of Chemical Physics, 152 (19), (2020). 
 CP2K: An electronic structure and molecular dynamics software package -
 Quickstep: Efficient and accurate electronic structure calculations.
 https://doi.org/10.1063/5.0007045

 Schuett, Ole; Messmer, Peter; Hutter, Juerg; VandeVondele, Joost. 
 Electronic Structure Calculations on Graphics Processing Units, John
 Wiley & Sons, Ltd, 173-190 (2016). 
 GPU-Accelerated Sparse Matrix-Matrix Multiplication for
 Linear Scaling Density Functional Theory.
 https://doi.org/10.1002/9781118670712.ch8

 Borstnik, U; VandeVondele, J; Weber, V; Hutter, J. 
 PARALLEL COMPUTING, 40 (5-6), 47-58 (2014). 
 Sparse matrix multiplication: The distributed block-compressed sparse
 row library.
 https://doi.org/10.1016/j.parco.2014.03.012

 Hutter, J; Iannuzzi, M; Schiffmann, F; VandeVondele, J. 
 WIREs Comput Mol Sci., 4 (1), 15-25 (2014). 
 CP2K: atomistic simulations of condensed matter systems.
 https://doi.org/10.1002/wcms.1159

 Marek, A; Blum, V; Johanni, R; Havu, V; Lang, B; Auckenthaler, T;
 Heinecke, A; Bungartz, H; Lederer, H. 
 Journal of Physics: Condensed Matter, 26 (21), (2014). 
 The ELPA library: scalable parallel eigenvalue solutions for
 electronic structure
 theory and computational science.
 https://doi.org/10.1088/0953-8984/26/21/213201

 Guidon, M; Hutter, J; VandeVondele, J. 
 JOURNAL OF CHEMICAL THEORY AND COMPUTATION, 5 (11), 3010-3021 (2009). 
 Robust Periodic Hartree-Fock Exchange for Large-Scale Simulations Using
 Gaussian Basis Sets.
 https://doi.org/10.1021/ct900494g

 Guidon, M; Schiffmann, F; Hutter, J; VandeVondele, J. 
 JOURNAL OF CHEMICAL PHYSICS, 128 (21), 214104 (2008). 
 Ab initio molecular dynamics using hybrid density functionals.
 https://doi.org/10.1063/1.2931945

 Krack, M. 
 THEORETICAL CHEMISTRY ACCOUNTS, 114 (1-3), 145-152 (2005). 
 Pseudopotentials for H to Kr optimized for gradient-corrected
 exchange-correlation functionals.
 https://doi.org/10.1007/s00214-005-0655-y

 VandeVondele, J; Krack, M; Mohamed, F; Parrinello, M; Chassaing, T;
 Hutter, J. COMPUTER PHYSICS COMMUNICATIONS, 167 (2), 103-128 (2005). 
 QUICKSTEP: Fast and accurate density functional calculations using a
 mixed Gaussian and plane waves approach.
 https://doi.org/10.1016/j.cpc.2004.12.014

 Frigo, M; Johnson, SG. 
 PROCEEDINGS OF THE IEEE, 93 (2), 216-231 (2005). 
 The design and implementation of FFTW3.
 https://doi.org/10.1109/JPROC.2004.840301

 VandeVondele, J; Hutter, J. 
 JOURNAL OF CHEMICAL PHYSICS, 118 (10), 4365-4369 (2003). 
 An efficient orbital transformation method for electronic structure
 calculations.
 https://doi.org/10.1063/1.1543154

 Martyna, GJ; Tuckerman, ME. 
 JOURNAL OF CHEMICAL PHYSICS, 110 (6), 2810-2821 (1999). 
 A reciprocal space based method for treating long range interactions in
 ab initio and force-field-based calculations in clusters.
 https://doi.org/10.1063/1.477923

 Hartwigsen, C; Goedecker, S; Hutter, J. 
 PHYSICAL REVIEW B, 58 (7), 3641-3662 (1998). 
 Relativistic separable dual-space Gaussian pseudopotentials from H to Rn.
 https://doi.org/10.1103/PhysRevB.58.3641

 Lippert, G; Hutter, J; Parrinello, M. 
 MOLECULAR PHYSICS, 92 (3), 477-487 (1997). 
 A hybrid Gaussian and plane wave density functional scheme.
 https://doi.org/10.1080/002689797170220

 Perdew, JP; Burke, K; Ernzerhof, M. 
 PHYSICAL REVIEW LETTERS, 77 (18), 3865-3868 (1996). 
 Generalized gradient approximation made simple.
 https://doi.org/10.1103/PhysRevLett.77.3865

 Goedecker, S; Teter, M; Hutter, J. 
 PHYSICAL REVIEW B, 54 (3), 1703-1710 (1996). 
 Separable dual-space Gaussian pseudopotentials.
 https://doi.org/10.1103/PhysRevB.54.1703


 -------------------------------------------------------------------------------
 -                                                                             -
 -                                T I M I N G                                  -
 -                                                                             -
 -------------------------------------------------------------------------------
 SUBROUTINE                       CALLS  ASD         SELF TIME        TOTAL TIME
                                MAXIMUM       AVERAGE  MAXIMUM  AVERAGE  MAXIMUM
 CP2K                                 1  1.0    0.095    0.119   73.363   73.364
 qs_energies                          1  2.0    0.000    0.000   72.980   72.981
 scf_env_do_scf                       1  3.0    0.000    0.000   72.765   72.766
 qs_ks_update_qs_env                 20  5.0    0.000    0.000   70.102   70.106
 rebuild_ks_matrix                   18  6.0    0.000    0.000   70.100   70.104
 qs_ks_build_kohn_sham_matrix        18  7.0    0.003    0.003   70.100   70.104
 hfx_ks_matrix                       18  8.0    0.001    0.001   63.479   63.480
 integrate_four_center               18  9.0    0.018    0.020   63.477   63.478
 init_scf_loop                        2  4.0    0.000    0.000   48.327   48.328
 integrate_four_center_main          18 10.0    0.003    0.004   23.061   30.022
 integrate_four_center_bin         2196 11.0   23.058   30.019   23.058   30.019
 calc_screening_functions             1 10.0   24.371   24.774   27.009   27.455
 scf_env_do_scf_inner_loop           18  4.0    0.001    0.002   24.437   24.437
 mp_sync                            111 10.8    8.206   13.930    8.206   13.930
 pw_transfer                        349  9.6    0.031    0.041    4.368    4.967
 fft_wrap_pw1pw2                    313 10.7    0.004    0.005    4.303    4.904
 fft_wrap_pw1pw2_300                201 11.8    0.222    0.271    4.042    4.612
 calc_pair_dist_radii                 1 10.0    3.624    3.642    4.337    4.355
 fft3d_ps                           313 12.7    1.559    1.644    3.445    4.200
 qs_vxc_create                       18  8.0    0.000    0.001    4.133    4.144
 xc_vxc_pw_create                    18  9.0    0.032    0.033    4.133    4.144
 powell_optimize                1247489 11.0    3.350    3.456    3.350    3.456
 xc_rho_set_and_dset_create          18 10.0    0.017    0.020    2.360    2.610
 mp_alltoall_z22v                   313 14.7    1.508    2.372    1.508    2.372
 qs_rho_update_rho                   19  5.0    0.000    0.000    2.293    2.294
 calculate_rho_elec                  19  6.0    0.014    0.014    2.293    2.294
 rs_pw_transfer                     149  9.4    0.003    0.004    1.707    1.854
 sum_up_and_integrate                18  8.0    0.007    0.009    1.814    1.816
 integrate_v_rspace_low              18  9.0    0.151    0.486    1.807    1.810
 density_rs2pw                       19  7.0    0.001    0.001    1.635    1.789
 yz_to_x                            150 13.1    0.157    0.182    1.024    1.714
 -------------------------------------------------------------------------------

 The number of warnings for this run is : 0
 
 -------------------------------------------------------------------------------
  **** **** ******  **  PROGRAM ENDED AT                 2020-11-30 13:08:48.809
 ***** ** ***  *** **   PROGRAM RAN ON                                   tcopt10
 **    ****   ******    PROGRAM RAN BY                                    hutter
 ***** **    ** ** **   PROGRAM PROCESS ID                                 85651
  **** **  *******  **  PROGRAM STOPPED IN /data/hutter/GITHUB/BASIS/MOLOPT/PBE0
                                           /hbcnof
