 DBCSR| CPU Multiplication driver                                           XSMM
 DBCSR| Multrec recursion limit                                              512
 DBCSR| Multiplication stack size                                           1000
 DBCSR| Maximum elements for images                                    UNLIMITED
 DBCSR| Multiplicative factor virtual images                                   1
 DBCSR| Use multiplication densification                                       T
 DBCSR| Multiplication size stacks                                             3
 DBCSR| Use memory pool for CPU allocation                                     F
 DBCSR| Number of 3D layers                                               SINGLE
 DBCSR| Use MPI memory allocation                                              F
 DBCSR| Use RMA algorithm                                                      F
 DBCSR| Use Communication thread                                               T
 DBCSR| Communication thread load                                             87
 DBCSR| Split modifier for TAS multiplication algorithm                  1.0E+00


  **** **** ******  **  PROGRAM STARTED AT               2020-11-30 12:50:46.808
 ***** ** ***  *** **   PROGRAM STARTED ON                               tcopt10
 **    ****   ******    PROGRAM STARTED BY                                hutter
 ***** **    ** ** **   PROGRAM PROCESS ID                                 81080
  **** **  *******  **  PROGRAM STARTED IN /data/hutter/GITHUB/BASIS/MOLOPT/PBE0
                                           /hbcnof

 CP2K| version string:                    CP2K version 8.0 (Development Version)
 CP2K| source code revision number:                                  git:afc71fa
 CP2K| cp2kflags: omp libint fftw3 libxc elpa parallel mpi3 scalapack xsmm spgli
 CP2K|            b sirius
 CP2K| is freely available from                            https://www.cp2k.org/
 CP2K| Program compiled at                          Tue Nov 17 10:27:14 CET 2020
 CP2K| Program compiled on                                               tcopt10
 CP2K| Program compiled for                                                local
 CP2K| Data directory path                 /data/hutter/GITHUB/CURRENT/cp2k/data
 CP2K| Input file name                                              C2H2-ref.inp

 GLOBAL| Force Environment number                                              1
 GLOBAL| Basis set file name                                  ../PBE0_UCSEGBASIS
 GLOBAL| Potential file name                                        ../POTENTIAL
 GLOBAL| MM Potential file name                                     MM_POTENTIAL
 GLOBAL| Coordinate file name                                      __STD_INPUT__
 GLOBAL| Method name                                                        CP2K
 GLOBAL| Project name                                                    refC2H2
 GLOBAL| Preferred FFT library                                             FFTW3
 GLOBAL| Preferred diagonalization lib.                                     ELPA
 GLOBAL| Run type                                                         ENERGY
 GLOBAL| All-to-all communication in single precision                          F
 GLOBAL| FFTs using library dependent lengths                                  F
 GLOBAL| Global print level                                                  LOW
 GLOBAL| MPI I/O enabled                                                       T
 GLOBAL| Total number of message passing processes                            36
 GLOBAL| Number of threads for this process                                    1
 GLOBAL| This output is from process                                           0
 GLOBAL| CPU model name                          AMD EPYC 7401 24-Core Processor
 GLOBAL| CPUID                                                              1002

 MEMORY| system memory details [Kb]
 MEMORY|                        rank 0           min           max       average
 MEMORY| MemTotal            263987256     263987256     263987256     263987256
 MEMORY| MemFree             242286140     242286140     242286140     242286140
 MEMORY| Buffers                   148           148           148           148
 MEMORY| Cached               17819364      17819364      17819364      17819364
 MEMORY| Slab                   935232        935232        935232        935232
 MEMORY| SReclaimable           419704        419704        419704        419704
 MEMORY| MemLikelyFree       260525356     260525356     260525356     260525356


 GENERATE|  Preliminary Number of Bonds generated:                             1
 GENERATE|  Achieved consistency in connectivity generation.
 GENERATE|  Number of Bonds generated:                                         1
 GENERATE|  Preliminary Number of Bends generated:                             0
 GENERATE|  Preliminary Number of Torsions generated:                          0

 *******************************************************************************
 *******************************************************************************
 **                                                                           **
 **     #####                         ##              ##                      **
 **    ##   ##            ##          ##              ##                      **
 **   ##     ##                       ##            ######                    **
 **   ##     ##  ##   ##  ##   #####  ##  ##   ####   ##    #####    #####    **
 **   ##     ##  ##   ##  ##  ##      ## ##   ##      ##   ##   ##  ##   ##   **
 **   ##  ## ##  ##   ##  ##  ##      ####     ###    ##   ######   ######    **
 **    ##  ###   ##   ##  ##  ##      ## ##      ##   ##   ##       ##        **
 **     #######   #####   ##   #####  ##  ##  ####    ##    #####   ##        **
 **           ##                                                    ##        **
 **                                                                           **
 **                                                ... make the atoms dance   **
 **                                                                           **
 **            Copyright (C) by CP2K developers group (2000 - 2020)           **
 **                      J. Chem. Phys. 152, 194103 (2020)                    **
 **                                                                           **
 *******************************************************************************


 TOTAL NUMBERS AND MAXIMUM NUMBERS

  Total number of            - Atomic kinds:                                   2
                             - Atoms:                                          4
                             - Shell sets:                                    48
                             - Shells:                                        96
                             - Primitive Cartesian functions:                 48
                             - Cartesian basis functions:                    480
                             - Spherical basis functions:                    368

  Maximum angular momentum of- Orbital basis functions:                        4
                             - Local part of the GTH pseudopotential:          2
                             - Non-local part of the GTH pseudopotential:      0


 SCF PARAMETERS         Density guess:                                    ATOMIC
                        --------------------------------------------------------
                        max_scf:                                              10
                        max_scf_history:                                       0
                        max_diis:                                              4
                        --------------------------------------------------------
                        eps_scf:                                        1.00E-07
                        eps_scf_history:                                0.00E+00
                        eps_diis:                                       1.00E-01
                        eps_eigval:                                     1.00E-05
                        --------------------------------------------------------
                        level_shift [a.u.]:                                 0.00
                        --------------------------------------------------------
                        Outer loop SCF in use 
                        No variables optimised in outer loop
                        eps_scf                                         1.00E-07
                        max_scf                                               10
                        No outer loop optimization
                        step_size                                       5.00E-01

 Number of electrons:                                                         10
 Number of occupied orbitals:                                                  5
 Number of molecular orbitals:                                                 5

 Number of orbital functions:                                                368
 Number of independent orbital functions:                                    368

 Extrapolation method: initial_guess


 SCF WAVEFUNCTION OPTIMIZATION

  ----------------------------------- OT ---------------------------------------
  Minimizer      : DIIS                : direct inversion
                                         in the iterative subspace
                                         using   7 DIIS vectors
                                         safer DIIS on
  Preconditioner : FULL_ALL            : diagonalization, state selective
  Precond_solver : DEFAULT
  stepsize       :    0.15000000                  energy_gap     :    0.08000000
  eps_taylor     :   0.10000E-15                  max_taylor     :             4
  ----------------------------------- OT ---------------------------------------

  Step     Update method      Time    Convergence         Total energy    Change
  ------------------------------------------------------------------------------
     1 OT DIIS     0.15E+00   34.3     0.10918459       -11.4478022204 -1.14E+01
     2 OT DIIS     0.15E+00    1.3     0.14504341       -10.5511311978  8.97E-01
     3 OT DIIS     0.15E+00    1.2     0.04691728       -12.3166241918 -1.77E+00
     4 OT DIIS     0.15E+00    1.3     0.01764555       -12.4450699970 -1.28E-01
     5 OT DIIS     0.15E+00    1.2     0.01082056       -12.4676324903 -2.26E-02
     6 OT DIIS     0.15E+00    1.2     0.01199886       -12.4706754057 -3.04E-03
     7 OT DIIS     0.15E+00    1.2     0.00180768       -12.4775758400 -6.90E-03
     8 OT DIIS     0.15E+00    1.2     0.00116859       -12.4781170615 -5.41E-04
     9 OT DIIS     0.15E+00    1.3     0.00056794       -12.4782451664 -1.28E-04
    10 OT DIIS     0.15E+00    1.2     0.00036803       -12.4782681631 -2.30E-05

  Leaving inner SCF loop after reaching    10 steps.


  Electronic density on regular grids:        -10.0000000000        0.0000000000
  Core density on regular grids:               10.0000000000       -0.0000000000
  Total charge density on r-space grids:        0.0000000000
  Total charge density g-space grids:           0.0000000000

  Overlap energy of the core charge distribution:               0.00001239318784
  Self energy of the core charge distribution:                -29.35218771827427
  Core Hamiltonian energy:                                      9.00394658907457
  Hartree energy:                                              11.91628613512207
  Exchange-correlation energy:                                 -3.12428209392414
  Hartree-Fock Exchange energy:                                -0.92204346832273

  Total energy:                                               -12.47826816313667

  outer SCF iter =    1 RMS gradient =   0.37E-03 energy =        -12.4782681631

  ----------------------------------- OT ---------------------------------------
  Minimizer      : DIIS                : direct inversion
                                         in the iterative subspace
                                         using   7 DIIS vectors
                                         safer DIIS on
  Preconditioner : FULL_ALL            : diagonalization, state selective
  Precond_solver : DEFAULT
  stepsize       :    0.15000000                  energy_gap     :    0.08000000
  eps_taylor     :   0.10000E-15                  max_taylor     :             4
  ----------------------------------- OT ---------------------------------------

  Step     Update method      Time    Convergence         Total energy    Change
  ------------------------------------------------------------------------------
     1 OT DIIS     0.15E+00    2.5     0.00009254       -12.4782779344 -9.77E-06
     2 OT DIIS     0.15E+00    1.2     0.00004473       -12.4782795755 -1.64E-06
     3 OT DIIS     0.15E+00    1.2     0.00003069       -12.4782799458 -3.70E-07
     4 OT DIIS     0.15E+00    1.2     0.00000294       -12.4782800387 -9.29E-08
     5 OT DIIS     0.15E+00    1.2     0.00000095       -12.4782800403 -1.53E-09
     6 OT DIIS     0.15E+00    1.2     0.00000028       -12.4782800405 -2.33E-10
     7 OT DIIS     0.15E+00    1.2     0.00000006       -12.4782800405 -2.38E-11

  *** SCF run converged in     7 steps ***


  Electronic density on regular grids:        -10.0000000000        0.0000000000
  Core density on regular grids:               10.0000000000       -0.0000000000
  Total charge density on r-space grids:        0.0000000000
  Total charge density g-space grids:           0.0000000000

  Overlap energy of the core charge distribution:               0.00001239318784
  Self energy of the core charge distribution:                -29.35218771827427
  Core Hamiltonian energy:                                      9.00477853609956
  Hartree energy:                                              11.91553525155879
  Exchange-correlation energy:                                 -3.12436261967440
  Hartree-Fock Exchange energy:                                -0.92205588342543

  Total energy:                                               -12.47828004052791

  outer SCF iter =    2 RMS gradient =   0.57E-07 energy =        -12.4782800405
  outer SCF loop converged in   2 iterations or   17 steps


 ENERGY| Total FORCE_EVAL ( QS ) energy [a.u.]:              -12.478280040527912

 -------------------------------------------------------------------------------
 -                                                                             -
 -                                DBCSR STATISTICS                             -
 -                                                                             -
 -------------------------------------------------------------------------------
 COUNTER                                    TOTAL       BLAS       SMM       ACC
 flops     5 x     5 x     5                30500       0.0%    100.0%      0.0%
 flops     5 x     5 x    68               476000       0.0%    100.0%      0.0%
 flops    68 x     5 x     5               591600       0.0%    100.0%      0.0%
 flops     5 x     5 x   116               812000       0.0%    100.0%      0.0%
 flops   116 x     5 x     5              1009200       0.0%    100.0%      0.0%
 flops    68 x    68 x     5              2496960       0.0%    100.0%      0.0%
 flops    68 x   116 x     5              2839680       0.0%    100.0%      0.0%
 flops   116 x    68 x     5              2839680       0.0%    100.0%      0.0%
 flops   116 x   116 x     5              7266240       0.0%    100.0%      0.0%
 flops    68 x     5 x    68             15906560       0.0%    100.0%      0.0%
 flops   116 x     5 x    68             27134720       0.0%    100.0%      0.0%
 flops    68 x     5 x   116             27134720       0.0%    100.0%      0.0%
 flops   116 x     5 x   116             46288640       0.0%    100.0%      0.0%
 flops inhomo. stacks                           0       0.0%      0.0%      0.0%
 flops total                       134.826500E+06       0.0%    100.0%      0.0%
 flops max/rank                     40.956860E+06       0.0%    100.0%      0.0%
 matmuls inhomo. stacks                         0       0.0%      0.0%      0.0%
 matmuls total                               2306       0.0%    100.0%      0.0%
 number of processed stacks                  2306       0.0%    100.0%      0.0%
 average stack size                                     0.0       1.0       0.0
 marketing flops                   143.796880E+06
 -------------------------------------------------------------------------------
 # multiplications                            385
 max memory usage/rank               1.312580E+09
 # max total images/rank                        1
 # max 3D layers                                1
 # MPI messages exchanged                  138600
 MPI messages size (bytes):
  total size                       491.875936E+06
  min size                           0.000000E+00
  max size                         107.648000E+03
  average size                       3.548888E+03
 MPI breakdown and total messages size (bytes):
             size <=      128              123085                        0
       128 < size <=     8192                8635                 26017400
      8192 < size <=    32768                   0                        0
     32768 < size <=   131072                6880                465858560
    131072 < size <=  4194304                   0                        0
   4194304 < size <= 16777216                   0                        0
  16777216 < size                               0                        0
 -------------------------------------------------------------------------------
 -                                                                             -
 -                      DBCSR MESSAGE PASSING PERFORMANCE                      -
 -                                                                             -
 -------------------------------------------------------------------------------
 ROUTINE             CALLS      AVE VOLUME [Bytes]
 MP_Bcast               14                     12.
 MP_Allreduce         2069                      8.
 MP_Alltoall          1580                   3942.
 MP_ISend             9232                   3668.
 MP_IRecv             9232                   2481.
 -------------------------------------------------------------------------------

 -------------------------------------------------------------------------------
 -                                                                             -
 -                                GRID STATISTICS                              -
 -                                                                             -
 -------------------------------------------------------------------------------
 LP    KERNEL    OPERATION                                     COUNT     PERCENT
 0     general   collocate                                       144       0.29%
 0     ortho     integrate                                      3043       6.14%
 0     ortho     collocate                                      3222       6.50%
 1     ortho     integrate                                      4148       8.37%
 1     ortho     collocate                                      4392       8.86%
 2     ortho     integrate                                      3247       6.55%
 2     ortho     collocate                                      3438       6.94%
 3     ortho     integrate                                      3230       6.52%
 3     ortho     collocate                                      3420       6.90%
 4     ortho     integrate                                      4352       8.78%
 4     ortho     collocate                                      4608       9.30%
 5     ortho     integrate                                      3264       6.59%
 5     ortho     collocate                                      3456       6.97%
 6     ortho     integrate                                       816       1.65%
 6     ortho     collocate                                       864       1.74%
 7     ortho     integrate                                      1088       2.20%
 7     ortho     collocate                                      1152       2.32%
 8     ortho     integrate                                       816       1.65%
 8     ortho     collocate                                       864       1.74%
 -------------------------------------------------------------------------------

 MEMORY| Estimated peak process memory [MiB]                                1252

 -------------------------------------------------------------------------------
 -                                                                             -
 -                         MESSAGE PASSING PERFORMANCE                         -
 -                                                                             -
 -------------------------------------------------------------------------------

 ROUTINE             CALLS      AVE VOLUME [Bytes]
 MP_Group                5
 MP_Bcast              212                 878506.
 MP_Allreduce          641                   2174.
 MP_Sync               106
 MP_Alltoall           343                6208717.
 MP_ISendRecv         4935                 112331.
 MP_Wait              6483
 MP_comm_split          14
 MP_ISend             1440                 278784.
 MP_IRecv             1440                 278784.
 MP_Recv                 4                   2944.
 -------------------------------------------------------------------------------


 -------------------------------------------------------------------------------
 -                                                                             -
 -                           R E F E R E N C E S                               -
 -                                                                             -
 -------------------------------------------------------------------------------
 
 CP2K version 8.0 (Development Version), the CP2K developers group (2020).
 CP2K is freely available from https://www.cp2k.org/ .

 Kuehne,Thomas D.; Iannuzzi,Marcella; Del Ben,Mauro;
 Rybkin,Vladimir V.; Seewald,Patrick; Stein,Frederick; Laino,Teodoro;
 Khaliullin,Rustam Z.; Schuett,Ole; Schiffmann,Florian; Golze,Dorothea;
 Wilhelm,Jan; Chulkov,Sergey; Bani-Hashemian,Mohammad Hossein;
 Weber,Valery; Borstnik,Urban; Taillefumier,Mathieu;
 Jakobovits,Alice Shoshana; Lazzaro,Alfio; Pabst,Hans; Mueller,Tiziano;
 Schade,Robert; Guidon,Manuel; Andermatt,Samuel; Holmberg,Nico;
 Schenter,Gregory K.; Hehn,Anna; Bussy,Augustin; Belleflamme,Fabian;
 Tabacchi,Gloria; Gloess,Andreas; Lass,Michael; Bethune,Iain;
 Mundy,Christopher J.; Plessl,Christian; Watkins,Matt;
 VandeVondele,Joost; Krack,Matthias; Hutter,Juerg. 
 The Journal of Chemical Physics, 152 (19), (2020). 
 CP2K: An electronic structure and molecular dynamics software package -
 Quickstep: Efficient and accurate electronic structure calculations.
 https://doi.org/10.1063/5.0007045

 Schuett, Ole; Messmer, Peter; Hutter, Juerg; VandeVondele, Joost. 
 Electronic Structure Calculations on Graphics Processing Units, John
 Wiley & Sons, Ltd, 173-190 (2016). 
 GPU-Accelerated Sparse Matrix-Matrix Multiplication for
 Linear Scaling Density Functional Theory.
 https://doi.org/10.1002/9781118670712.ch8

 Borstnik, U; VandeVondele, J; Weber, V; Hutter, J. 
 PARALLEL COMPUTING, 40 (5-6), 47-58 (2014). 
 Sparse matrix multiplication: The distributed block-compressed sparse
 row library.
 https://doi.org/10.1016/j.parco.2014.03.012

 Hutter, J; Iannuzzi, M; Schiffmann, F; VandeVondele, J. 
 WIREs Comput Mol Sci., 4 (1), 15-25 (2014). 
 CP2K: atomistic simulations of condensed matter systems.
 https://doi.org/10.1002/wcms.1159

 Marek, A; Blum, V; Johanni, R; Havu, V; Lang, B; Auckenthaler, T;
 Heinecke, A; Bungartz, H; Lederer, H. 
 Journal of Physics: Condensed Matter, 26 (21), (2014). 
 The ELPA library: scalable parallel eigenvalue solutions for
 electronic structure
 theory and computational science.
 https://doi.org/10.1088/0953-8984/26/21/213201

 Guidon, M; Hutter, J; VandeVondele, J. 
 JOURNAL OF CHEMICAL THEORY AND COMPUTATION, 5 (11), 3010-3021 (2009). 
 Robust Periodic Hartree-Fock Exchange for Large-Scale Simulations Using
 Gaussian Basis Sets.
 https://doi.org/10.1021/ct900494g

 Guidon, M; Schiffmann, F; Hutter, J; VandeVondele, J. 
 JOURNAL OF CHEMICAL PHYSICS, 128 (21), 214104 (2008). 
 Ab initio molecular dynamics using hybrid density functionals.
 https://doi.org/10.1063/1.2931945

 Krack, M. 
 THEORETICAL CHEMISTRY ACCOUNTS, 114 (1-3), 145-152 (2005). 
 Pseudopotentials for H to Kr optimized for gradient-corrected
 exchange-correlation functionals.
 https://doi.org/10.1007/s00214-005-0655-y

 VandeVondele, J; Krack, M; Mohamed, F; Parrinello, M; Chassaing, T;
 Hutter, J. COMPUTER PHYSICS COMMUNICATIONS, 167 (2), 103-128 (2005). 
 QUICKSTEP: Fast and accurate density functional calculations using a
 mixed Gaussian and plane waves approach.
 https://doi.org/10.1016/j.cpc.2004.12.014

 Frigo, M; Johnson, SG. 
 PROCEEDINGS OF THE IEEE, 93 (2), 216-231 (2005). 
 The design and implementation of FFTW3.
 https://doi.org/10.1109/JPROC.2004.840301

 VandeVondele, J; Hutter, J. 
 JOURNAL OF CHEMICAL PHYSICS, 118 (10), 4365-4369 (2003). 
 An efficient orbital transformation method for electronic structure
 calculations.
 https://doi.org/10.1063/1.1543154

 Martyna, GJ; Tuckerman, ME. 
 JOURNAL OF CHEMICAL PHYSICS, 110 (6), 2810-2821 (1999). 
 A reciprocal space based method for treating long range interactions in
 ab initio and force-field-based calculations in clusters.
 https://doi.org/10.1063/1.477923

 Hartwigsen, C; Goedecker, S; Hutter, J. 
 PHYSICAL REVIEW B, 58 (7), 3641-3662 (1998). 
 Relativistic separable dual-space Gaussian pseudopotentials from H to Rn.
 https://doi.org/10.1103/PhysRevB.58.3641

 Lippert, G; Hutter, J; Parrinello, M. 
 MOLECULAR PHYSICS, 92 (3), 477-487 (1997). 
 A hybrid Gaussian and plane wave density functional scheme.
 https://doi.org/10.1080/002689797170220

 Perdew, JP; Burke, K; Ernzerhof, M. 
 PHYSICAL REVIEW LETTERS, 77 (18), 3865-3868 (1996). 
 Generalized gradient approximation made simple.
 https://doi.org/10.1103/PhysRevLett.77.3865

 Goedecker, S; Teter, M; Hutter, J. 
 PHYSICAL REVIEW B, 54 (3), 1703-1710 (1996). 
 Separable dual-space Gaussian pseudopotentials.
 https://doi.org/10.1103/PhysRevB.54.1703


 -------------------------------------------------------------------------------
 -                                                                             -
 -                                T I M I N G                                  -
 -                                                                             -
 -------------------------------------------------------------------------------
 SUBROUTINE                       CALLS  ASD         SELF TIME        TOTAL TIME
                                MAXIMUM       AVERAGE  MAXIMUM  AVERAGE  MAXIMUM
 CP2K                                 1  1.0    0.065    0.094   54.957   54.962
 qs_energies                          1  2.0    0.000    0.000   54.639   54.644
 scf_env_do_scf                       1  3.0    0.000    0.000   54.428   54.432
 qs_ks_update_qs_env                 19  5.0    0.000    0.000   51.943   51.947
 rebuild_ks_matrix                   17  6.0    0.000    0.000   51.940   51.944
 qs_ks_build_kohn_sham_matrix        17  7.0    0.003    0.003   51.940   51.944
 hfx_ks_matrix                       17  8.0    0.001    0.001   45.839   45.844
 integrate_four_center               17  9.0    0.016    0.018   45.838   45.842
 init_scf_loop                        2  4.0    0.000    0.000   35.462   35.464
 integrate_four_center_main          17 10.0    0.003    0.003   15.158   24.712
 integrate_four_center_bin         2159 11.0   15.155   24.710   15.155   24.710
 calc_screening_functions             1 10.0   18.434   18.754   19.054   19.374
 scf_env_do_scf_inner_loop           17  4.0    0.001    0.002   18.965   18.967
 mp_sync                            106 10.8    9.681   13.521    9.681   13.521
 pw_transfer                        330  9.6    0.029    0.035    4.152    4.757
 fft_wrap_pw1pw2                    296 10.7    0.004    0.005    4.091    4.704
 fft_wrap_pw1pw2_300                190 11.8    0.209    0.248    3.850    4.456
 fft3d_ps                           296 12.7    1.470    1.559    3.286    3.961
 qs_vxc_create                       17  8.0    0.000    0.001    3.904    3.915
 xc_vxc_pw_create                    17  9.0    0.030    0.032    3.904    3.914
 xc_rho_set_and_dset_create          17 10.0    0.016    0.019    2.199    2.461
 mp_alltoall_z22v                   296 14.7    1.462    2.215    1.462    2.215
 qs_rho_update_rho                   18  5.0    0.000    0.000    2.164    2.165
 calculate_rho_elec                  18  6.0    0.013    0.013    2.164    2.165
 rs_pw_transfer                     141  9.4    0.003    0.004    1.662    1.800
 density_rs2pw                       18  7.0    0.001    0.001    1.543    1.688
 yz_to_x                            142 13.1    0.146    0.179    0.991    1.654
 sum_up_and_integrate                17  8.0    0.007    0.009    1.575    1.576
 integrate_v_rspace_low              17  9.0    0.106    0.256    1.567    1.570
 calc_pair_dist_radii                 1 10.0    1.199    1.206    1.376    1.384
 xc_functional_eval                  17 11.0    0.000    0.000    1.059    1.322
 pbe_lda_eval                        17 12.0    1.059    1.321    1.059    1.321
 potential_pw2rs                     17 10.0    0.001    0.001    1.294    1.296
 -------------------------------------------------------------------------------

 The number of warnings for this run is : 0
 
 -------------------------------------------------------------------------------
  **** **** ******  **  PROGRAM ENDED AT                 2020-11-30 12:51:42.504
 ***** ** ***  *** **   PROGRAM RAN ON                                   tcopt10
 **    ****   ******    PROGRAM RAN BY                                    hutter
 ***** **    ** ** **   PROGRAM PROCESS ID                                 81080
  **** **  *******  **  PROGRAM STOPPED IN /data/hutter/GITHUB/BASIS/MOLOPT/PBE0
                                           /hbcnof
