 DBCSR| CPU Multiplication driver                                           XSMM
 DBCSR| Multrec recursion limit                                              512
 DBCSR| Multiplication stack size                                           1000
 DBCSR| Maximum elements for images                                    UNLIMITED
 DBCSR| Multiplicative factor virtual images                                   1
 DBCSR| Use multiplication densification                                       T
 DBCSR| Multiplication size stacks                                             3
 DBCSR| Use memory pool for CPU allocation                                     F
 DBCSR| Number of 3D layers                                               SINGLE
 DBCSR| Use MPI memory allocation                                              F
 DBCSR| Use RMA algorithm                                                      F
 DBCSR| Use Communication thread                                               T
 DBCSR| Communication thread load                                             87
 DBCSR| Split modifier for TAS multiplication algorithm                  1.0E+00


  **** **** ******  **  PROGRAM STARTED AT               2020-11-30 12:54:36.864
 ***** ** ***  *** **   PROGRAM STARTED ON                               tcopt10
 **    ****   ******    PROGRAM STARTED BY                                hutter
 ***** **    ** ** **   PROGRAM PROCESS ID                                 82125
  **** **  *******  **  PROGRAM STARTED IN /data/hutter/GITHUB/BASIS/MOLOPT/PBE0
                                           /hbcnof

 CP2K| version string:                    CP2K version 8.0 (Development Version)
 CP2K| source code revision number:                                  git:afc71fa
 CP2K| cp2kflags: omp libint fftw3 libxc elpa parallel mpi3 scalapack xsmm spgli
 CP2K|            b sirius
 CP2K| is freely available from                            https://www.cp2k.org/
 CP2K| Program compiled at                          Tue Nov 17 10:27:14 CET 2020
 CP2K| Program compiled on                                               tcopt10
 CP2K| Program compiled for                                                local
 CP2K| Data directory path                 /data/hutter/GITHUB/CURRENT/cp2k/data
 CP2K| Input file name                                              C2H4-ref.inp

 GLOBAL| Force Environment number                                              1
 GLOBAL| Basis set file name                                  ../PBE0_UCSEGBASIS
 GLOBAL| Potential file name                                        ../POTENTIAL
 GLOBAL| MM Potential file name                                     MM_POTENTIAL
 GLOBAL| Coordinate file name                                      __STD_INPUT__
 GLOBAL| Method name                                                        CP2K
 GLOBAL| Project name                                                    refC2H4
 GLOBAL| Preferred FFT library                                             FFTW3
 GLOBAL| Preferred diagonalization lib.                                     ELPA
 GLOBAL| Run type                                                         ENERGY
 GLOBAL| All-to-all communication in single precision                          F
 GLOBAL| FFTs using library dependent lengths                                  F
 GLOBAL| Global print level                                                  LOW
 GLOBAL| MPI I/O enabled                                                       T
 GLOBAL| Total number of message passing processes                            36
 GLOBAL| Number of threads for this process                                    1
 GLOBAL| This output is from process                                           0
 GLOBAL| CPU model name                          AMD EPYC 7401 24-Core Processor
 GLOBAL| CPUID                                                              1002

 MEMORY| system memory details [Kb]
 MEMORY|                        rank 0           min           max       average
 MEMORY| MemTotal            263987256     263987256     263987256     263987256
 MEMORY| MemFree             242284784     242284532     242284784     242284735
 MEMORY| Buffers                   148           148           148           148
 MEMORY| Cached               17820648      17820640      17820648      17820646
 MEMORY| Slab                   935500        935500        935500        935500
 MEMORY| SReclaimable           419416        419416        419416        419416
 MEMORY| MemLikelyFree       260524996     260524736     260524996     260524945


 GENERATE|  Preliminary Number of Bonds generated:                             4
 GENERATE|  Achieved consistency in connectivity generation.
 GENERATE|  Number of Bonds generated:                                         4
 GENERATE|  Preliminary Number of Bends generated:                             2
 GENERATE|  Number of Bends generated:                                         2
 GENERATE|  Number of UB generated:                                            2
 GENERATE|  Preliminary Number of Torsions generated:                          1
 GENERATE|  Number of Torsions generated:                                      1
 GENERATE|  Number of 1-4 interactions generated:                              1

 *******************************************************************************
 *******************************************************************************
 **                                                                           **
 **     #####                         ##              ##                      **
 **    ##   ##            ##          ##              ##                      **
 **   ##     ##                       ##            ######                    **
 **   ##     ##  ##   ##  ##   #####  ##  ##   ####   ##    #####    #####    **
 **   ##     ##  ##   ##  ##  ##      ## ##   ##      ##   ##   ##  ##   ##   **
 **   ##  ## ##  ##   ##  ##  ##      ####     ###    ##   ######   ######    **
 **    ##  ###   ##   ##  ##  ##      ## ##      ##   ##   ##       ##        **
 **     #######   #####   ##   #####  ##  ##  ####    ##    #####   ##        **
 **           ##                                                    ##        **
 **                                                                           **
 **                                                ... make the atoms dance   **
 **                                                                           **
 **            Copyright (C) by CP2K developers group (2000 - 2020)           **
 **                      J. Chem. Phys. 152, 194103 (2020)                    **
 **                                                                           **
 *******************************************************************************


 TOTAL NUMBERS AND MAXIMUM NUMBERS

  Total number of            - Atomic kinds:                                   2
                             - Atoms:                                          6
                             - Shell sets:                                    72
                             - Shells:                                       136
                             - Primitive Cartesian functions:                 72
                             - Cartesian basis functions:                    648
                             - Spherical basis functions:                    504

  Maximum angular momentum of- Orbital basis functions:                        4
                             - Local part of the GTH pseudopotential:          2
                             - Non-local part of the GTH pseudopotential:      0


 SCF PARAMETERS         Density guess:                                    ATOMIC
                        --------------------------------------------------------
                        max_scf:                                              10
                        max_scf_history:                                       0
                        max_diis:                                              4
                        --------------------------------------------------------
                        eps_scf:                                        1.00E-07
                        eps_scf_history:                                0.00E+00
                        eps_diis:                                       1.00E-01
                        eps_eigval:                                     1.00E-05
                        --------------------------------------------------------
                        level_shift [a.u.]:                                 0.00
                        --------------------------------------------------------
                        Outer loop SCF in use 
                        No variables optimised in outer loop
                        eps_scf                                         1.00E-07
                        max_scf                                               10
                        No outer loop optimization
                        step_size                                       5.00E-01

 Number of electrons:                                                         12
 Number of occupied orbitals:                                                  6
 Number of molecular orbitals:                                                 6

 Number of orbital functions:                                                504
 Number of independent orbital functions:                                    504

 Extrapolation method: initial_guess


 SCF WAVEFUNCTION OPTIMIZATION

  ----------------------------------- OT ---------------------------------------
  Minimizer      : DIIS                : direct inversion
                                         in the iterative subspace
                                         using   7 DIIS vectors
                                         safer DIIS on
  Preconditioner : FULL_ALL            : diagonalization, state selective
  Precond_solver : DEFAULT
  stepsize       :    0.15000000                  energy_gap     :    0.08000000
  eps_taylor     :   0.10000E-15                  max_taylor     :             4
  ----------------------------------- OT ---------------------------------------

  Step     Update method      Time    Convergence         Total energy    Change
  ------------------------------------------------------------------------------
     1 OT DIIS     0.15E+00   43.6     0.10377960       -12.3689328702 -1.24E+01
     2 OT DIIS     0.15E+00    2.2     0.06663696       -12.0287312343  3.40E-01
     3 OT DIIS     0.15E+00    2.1     0.06360201       -13.1180482815 -1.09E+00
     4 OT DIIS     0.15E+00    2.1     0.04930088       -13.4863030528 -3.68E-01
     5 OT DIIS     0.15E+00    2.1     0.02762436       -13.6631332513 -1.77E-01
     6 OT DIIS     0.15E+00    2.1     0.01768097       -13.7100477471 -4.69E-02
     7 OT DIIS     0.15E+00    2.1     0.00474013       -13.7313374698 -2.13E-02
     8 OT DIIS     0.15E+00    2.1     0.00317275       -13.7334312540 -2.09E-03
     9 OT DIIS     0.15E+00    2.1     0.00401341       -13.7336021627 -1.71E-04
    10 OT DIIS     0.15E+00    2.1     0.00068237       -13.7347693895 -1.17E-03

  Leaving inner SCF loop after reaching    10 steps.


  Electronic density on regular grids:        -12.0000000000        0.0000000000
  Core density on regular grids:               12.0000000000       -0.0000000000
  Total charge density on r-space grids:       -0.0000000000
  Total charge density g-space grids:          -0.0000000000

  Overlap energy of the core charge distribution:               0.00000188017113
  Self energy of the core charge distribution:                -32.16616544707374
  Core Hamiltonian energy:                                     10.12723274115724
  Hartree energy:                                              13.14819257029293
  Exchange-correlation energy:                                 -3.73337138844507
  Hartree-Fock Exchange energy:                                -1.11065974559216

  Total energy:                                               -13.73476938948967

  outer SCF iter =    1 RMS gradient =   0.68E-03 energy =        -13.7347693895

  ----------------------------------- OT ---------------------------------------
  Minimizer      : DIIS                : direct inversion
                                         in the iterative subspace
                                         using   7 DIIS vectors
                                         safer DIIS on
  Preconditioner : FULL_ALL            : diagonalization, state selective
  Precond_solver : DEFAULT
  stepsize       :    0.15000000                  energy_gap     :    0.08000000
  eps_taylor     :   0.10000E-15                  max_taylor     :             4
  ----------------------------------- OT ---------------------------------------

  Step     Update method      Time    Convergence         Total energy    Change
  ------------------------------------------------------------------------------
     1 OT DIIS     0.15E+00    4.3     0.00020310       -13.7348259396 -5.66E-05
     2 OT DIIS     0.15E+00    2.1     0.00009268       -13.7348394757 -1.35E-05
     3 OT DIIS     0.15E+00    2.1     0.00001712       -13.7348430381 -3.56E-06
     4 OT DIIS     0.15E+00    2.1     0.00000422       -13.7348430878 -4.97E-08
     5 OT DIIS     0.15E+00    2.1     0.00000113       -13.7348430927 -4.96E-09
     6 OT DIIS     0.15E+00    2.1     0.00000016       -13.7348430933 -5.37E-10
     7 OT DIIS     0.15E+00    2.1     0.00000003       -13.7348430933 -1.03E-11

  *** SCF run converged in     7 steps ***


  Electronic density on regular grids:        -12.0000000000        0.0000000000
  Core density on regular grids:               12.0000000000       -0.0000000000
  Total charge density on r-space grids:       -0.0000000000
  Total charge density g-space grids:          -0.0000000000

  Overlap energy of the core charge distribution:               0.00000188017113
  Self energy of the core charge distribution:                -32.16616544707374
  Core Hamiltonian energy:                                     10.13525999906868
  Hartree energy:                                              13.14200437850286
  Exchange-correlation energy:                                 -3.73480360222700
  Hartree-Fock Exchange energy:                                -1.11114030171262

  Total energy:                                               -13.73484309327069

  outer SCF iter =    2 RMS gradient =   0.33E-07 energy =        -13.7348430933
  outer SCF loop converged in   2 iterations or   17 steps


 ENERGY| Total FORCE_EVAL ( QS ) energy [a.u.]:              -13.734843093270694

 -------------------------------------------------------------------------------
 -                                                                             -
 -                                DBCSR STATISTICS                             -
 -                                                                             -
 -------------------------------------------------------------------------------
 COUNTER                                    TOTAL       BLAS       SMM       ACC
 flops     6 x     6 x     6                52704       0.0%    100.0%      0.0%
 flops     6 x     6 x   116              1169280       0.0%    100.0%      0.0%
 flops     6 x     6 x    68              1370880       0.0%    100.0%      0.0%
 flops   116 x     6 x     6              1453248       0.0%    100.0%      0.0%
 flops    68 x     6 x     6              1703808       0.0%    100.0%      0.0%
 flops    68 x   116 x     6              6815232       0.0%    100.0%      0.0%
 flops   116 x    68 x     6              6815232       0.0%    100.0%      0.0%
 flops   116 x   116 x     6              8719488       0.0%    100.0%      0.0%
 flops    68 x    68 x     6              9987840       0.0%    100.0%      0.0%
 flops   116 x     6 x   116             55546368       0.0%    100.0%      0.0%
 flops   116 x     6 x    68             65123328       0.0%    100.0%      0.0%
 flops    68 x     6 x   116             65123328       0.0%    100.0%      0.0%
 flops    68 x     6 x    68             76351488       0.0%    100.0%      0.0%
 flops inhomo. stacks                           0       0.0%      0.0%      0.0%
 flops total                       300.232224E+06       0.0%    100.0%      0.0%
 flops max/rank                     66.560832E+06       0.0%    100.0%      0.0%
 matmuls inhomo. stacks                         0       0.0%      0.0%      0.0%
 matmuls total                               4538       0.0%    100.0%      0.0%
 number of processed stacks                  4538       0.0%    100.0%      0.0%
 average stack size                                     0.0       1.0       0.0
 marketing flops                   322.834464E+06
 -------------------------------------------------------------------------------
 # multiplications                            385
 max memory usage/rank               2.144956E+09
 # max total images/rank                        1
 # max 3D layers                                1
 # MPI messages exchanged                  138600
 MPI messages size (bytes):
  total size                       916.506752E+06
  min size                           0.000000E+00
  max size                         107.648000E+03
  average size                       6.612603E+03
 MPI breakdown and total messages size (bytes):
             size <=      128              110995                        0
       128 < size <=     8192               12125                 42691680
      8192 < size <=    32768                   0                        0
     32768 < size <=   131072               15480                873815040
    131072 < size <=  4194304                   0                        0
   4194304 < size <= 16777216                   0                        0
  16777216 < size                               0                        0
 -------------------------------------------------------------------------------
 -                                                                             -
 -                      DBCSR MESSAGE PASSING PERFORMANCE                      -
 -                                                                             -
 -------------------------------------------------------------------------------
 ROUTINE             CALLS      AVE VOLUME [Bytes]
 MP_Bcast               14                     12.
 MP_Allreduce         2069                      8.
 MP_Alltoall          1580                   4172.
 MP_ISend             9232                   4424.
 MP_IRecv             9232                   3867.
 -------------------------------------------------------------------------------

 -------------------------------------------------------------------------------
 -                                                                             -
 -                                GRID STATISTICS                              -
 -                                                                             -
 -------------------------------------------------------------------------------
 LP    KERNEL    OPERATION                                     COUNT     PERCENT
 0     general   collocate                                       216       0.21%
 0     ortho     integrate                                      9894       9.60%
 0     ortho     collocate                                     10476      10.17%
 1     ortho     integrate                                      8296       8.05%
 1     ortho     collocate                                      8784       8.53%
 2     ortho     integrate                                      3247       3.15%
 2     ortho     collocate                                      3438       3.34%
 3     ortho     integrate                                     10812      10.50%
 3     ortho     collocate                                     11448      11.11%
 4     ortho     integrate                                      8704       8.45%
 4     ortho     collocate                                      9216       8.95%
 5     ortho     integrate                                      3264       3.17%
 5     ortho     collocate                                      3456       3.35%
 6     ortho     integrate                                      2720       2.64%
 6     ortho     collocate                                      2880       2.80%
 7     ortho     integrate                                      2176       2.11%
 7     ortho     collocate                                      2304       2.24%
 8     ortho     integrate                                       816       0.79%
 8     ortho     collocate                                       864       0.84%
 -------------------------------------------------------------------------------

 MEMORY| Estimated peak process memory [MiB]                                2046

 -------------------------------------------------------------------------------
 -                                                                             -
 -                         MESSAGE PASSING PERFORMANCE                         -
 -                                                                             -
 -------------------------------------------------------------------------------

 ROUTINE             CALLS      AVE VOLUME [Bytes]
 MP_Group                5
 MP_Bcast              208                 895401.
 MP_Allreduce          624                   2235.
 MP_Sync                92
 MP_Alltoall           343                6186751.
 MP_ISendRecv         4935                 112331.
 MP_Wait              6483
 MP_ISend             1440                 254016.
 MP_IRecv             1440                 254016.
 MP_Recv                 5                   4032.
 -------------------------------------------------------------------------------


 -------------------------------------------------------------------------------
 -                                                                             -
 -                           R E F E R E N C E S                               -
 -                                                                             -
 -------------------------------------------------------------------------------
 
 CP2K version 8.0 (Development Version), the CP2K developers group (2020).
 CP2K is freely available from https://www.cp2k.org/ .

 Kuehne,Thomas D.; Iannuzzi,Marcella; Del Ben,Mauro;
 Rybkin,Vladimir V.; Seewald,Patrick; Stein,Frederick; Laino,Teodoro;
 Khaliullin,Rustam Z.; Schuett,Ole; Schiffmann,Florian; Golze,Dorothea;
 Wilhelm,Jan; Chulkov,Sergey; Bani-Hashemian,Mohammad Hossein;
 Weber,Valery; Borstnik,Urban; Taillefumier,Mathieu;
 Jakobovits,Alice Shoshana; Lazzaro,Alfio; Pabst,Hans; Mueller,Tiziano;
 Schade,Robert; Guidon,Manuel; Andermatt,Samuel; Holmberg,Nico;
 Schenter,Gregory K.; Hehn,Anna; Bussy,Augustin; Belleflamme,Fabian;
 Tabacchi,Gloria; Gloess,Andreas; Lass,Michael; Bethune,Iain;
 Mundy,Christopher J.; Plessl,Christian; Watkins,Matt;
 VandeVondele,Joost; Krack,Matthias; Hutter,Juerg. 
 The Journal of Chemical Physics, 152 (19), (2020). 
 CP2K: An electronic structure and molecular dynamics software package -
 Quickstep: Efficient and accurate electronic structure calculations.
 https://doi.org/10.1063/5.0007045

 Schuett, Ole; Messmer, Peter; Hutter, Juerg; VandeVondele, Joost. 
 Electronic Structure Calculations on Graphics Processing Units, John
 Wiley & Sons, Ltd, 173-190 (2016). 
 GPU-Accelerated Sparse Matrix-Matrix Multiplication for
 Linear Scaling Density Functional Theory.
 https://doi.org/10.1002/9781118670712.ch8

 Borstnik, U; VandeVondele, J; Weber, V; Hutter, J. 
 PARALLEL COMPUTING, 40 (5-6), 47-58 (2014). 
 Sparse matrix multiplication: The distributed block-compressed sparse
 row library.
 https://doi.org/10.1016/j.parco.2014.03.012

 Hutter, J; Iannuzzi, M; Schiffmann, F; VandeVondele, J. 
 WIREs Comput Mol Sci., 4 (1), 15-25 (2014). 
 CP2K: atomistic simulations of condensed matter systems.
 https://doi.org/10.1002/wcms.1159

 Marek, A; Blum, V; Johanni, R; Havu, V; Lang, B; Auckenthaler, T;
 Heinecke, A; Bungartz, H; Lederer, H. 
 Journal of Physics: Condensed Matter, 26 (21), (2014). 
 The ELPA library: scalable parallel eigenvalue solutions for
 electronic structure
 theory and computational science.
 https://doi.org/10.1088/0953-8984/26/21/213201

 Guidon, M; Hutter, J; VandeVondele, J. 
 JOURNAL OF CHEMICAL THEORY AND COMPUTATION, 5 (11), 3010-3021 (2009). 
 Robust Periodic Hartree-Fock Exchange for Large-Scale Simulations Using
 Gaussian Basis Sets.
 https://doi.org/10.1021/ct900494g

 Guidon, M; Schiffmann, F; Hutter, J; VandeVondele, J. 
 JOURNAL OF CHEMICAL PHYSICS, 128 (21), 214104 (2008). 
 Ab initio molecular dynamics using hybrid density functionals.
 https://doi.org/10.1063/1.2931945

 Krack, M. 
 THEORETICAL CHEMISTRY ACCOUNTS, 114 (1-3), 145-152 (2005). 
 Pseudopotentials for H to Kr optimized for gradient-corrected
 exchange-correlation functionals.
 https://doi.org/10.1007/s00214-005-0655-y

 VandeVondele, J; Krack, M; Mohamed, F; Parrinello, M; Chassaing, T;
 Hutter, J. COMPUTER PHYSICS COMMUNICATIONS, 167 (2), 103-128 (2005). 
 QUICKSTEP: Fast and accurate density functional calculations using a
 mixed Gaussian and plane waves approach.
 https://doi.org/10.1016/j.cpc.2004.12.014

 Frigo, M; Johnson, SG. 
 PROCEEDINGS OF THE IEEE, 93 (2), 216-231 (2005). 
 The design and implementation of FFTW3.
 https://doi.org/10.1109/JPROC.2004.840301

 VandeVondele, J; Hutter, J. 
 JOURNAL OF CHEMICAL PHYSICS, 118 (10), 4365-4369 (2003). 
 An efficient orbital transformation method for electronic structure
 calculations.
 https://doi.org/10.1063/1.1543154

 Martyna, GJ; Tuckerman, ME. 
 JOURNAL OF CHEMICAL PHYSICS, 110 (6), 2810-2821 (1999). 
 A reciprocal space based method for treating long range interactions in
 ab initio and force-field-based calculations in clusters.
 https://doi.org/10.1063/1.477923

 Hartwigsen, C; Goedecker, S; Hutter, J. 
 PHYSICAL REVIEW B, 58 (7), 3641-3662 (1998). 
 Relativistic separable dual-space Gaussian pseudopotentials from H to Rn.
 https://doi.org/10.1103/PhysRevB.58.3641

 Lippert, G; Hutter, J; Parrinello, M. 
 MOLECULAR PHYSICS, 92 (3), 477-487 (1997). 
 A hybrid Gaussian and plane wave density functional scheme.
 https://doi.org/10.1080/002689797170220

 Perdew, JP; Burke, K; Ernzerhof, M. 
 PHYSICAL REVIEW LETTERS, 77 (18), 3865-3868 (1996). 
 Generalized gradient approximation made simple.
 https://doi.org/10.1103/PhysRevLett.77.3865

 Goedecker, S; Teter, M; Hutter, J. 
 PHYSICAL REVIEW B, 54 (3), 1703-1710 (1996). 
 Separable dual-space Gaussian pseudopotentials.
 https://doi.org/10.1103/PhysRevB.54.1703


 -------------------------------------------------------------------------------
 -                                                                             -
 -                                T I M I N G                                  -
 -                                                                             -
 -------------------------------------------------------------------------------
 SUBROUTINE                       CALLS  ASD         SELF TIME        TOTAL TIME
                                MAXIMUM       AVERAGE  MAXIMUM  AVERAGE  MAXIMUM
 CP2K                                 1  1.0    0.193    0.219   78.198   78.208
 qs_energies                          1  2.0    0.000    0.000   77.755   77.764
 scf_env_do_scf                       1  3.0    0.000    0.000   77.542   77.551
 qs_ks_update_qs_env                 19  5.0    0.000    0.000   74.995   75.006
 rebuild_ks_matrix                   17  6.0    0.000    0.000   74.993   75.003
 qs_ks_build_kohn_sham_matrix        17  7.0    0.003    0.003   74.993   75.003
 hfx_ks_matrix                       17  8.0    0.001    0.001   68.822   68.830
 integrate_four_center               17  9.0    0.019    0.022   68.820   68.829
 init_scf_loop                        2  4.0    0.000    0.000   45.686   45.691
 integrate_four_center_main          17 10.0    0.003    0.004   43.687   45.570
 integrate_four_center_bin         2108 11.0   43.684   45.566   43.684   45.566
 scf_env_do_scf_inner_loop           17  4.0    0.001    0.002   31.855   31.859
 calc_screening_functions             1 10.0   18.491   19.136   19.108   19.738
 mp_sync                             92 10.7    3.596    5.934    3.596    5.934
 pw_transfer                        330  9.6    0.029    0.039    4.098    4.629
 fft_wrap_pw1pw2                    296 10.7    0.004    0.005    4.036    4.574
 fft_wrap_pw1pw2_300                190 11.8    0.210    0.257    3.799    4.332
 qs_vxc_create                       17  8.0    0.000    0.001    3.894    3.905
 xc_vxc_pw_create                    17  9.0    0.030    0.032    3.894    3.904
 fft3d_ps                           296 12.7    1.479    1.568    3.223    3.837
 xc_rho_set_and_dset_create          17 10.0    0.016    0.019    2.246    2.468
 qs_rho_update_rho                   18  5.0    0.000    0.000    2.170    2.170
 calculate_rho_elec                  18  6.0    0.013    0.013    2.170    2.170
 mp_alltoall_z22v                   296 14.7    1.385    2.074    1.385    2.074
 rs_pw_transfer                     141  9.4    0.003    0.004    1.571    1.741
 density_rs2pw                       18  7.0    0.001    0.001    1.516    1.689
 sum_up_and_integrate                17  8.0    0.007    0.008    1.648    1.650
 integrate_v_rspace_low              17  9.0    0.165    0.399    1.642    1.644
 -------------------------------------------------------------------------------

 The number of warnings for this run is : 0
 
 -------------------------------------------------------------------------------
  **** **** ******  **  PROGRAM ENDED AT                 2020-11-30 12:55:55.790
 ***** ** ***  *** **   PROGRAM RAN ON                                   tcopt10
 **    ****   ******    PROGRAM RAN BY                                    hutter
 ***** **    ** ** **   PROGRAM PROCESS ID                                 82125
  **** **  *******  **  PROGRAM STOPPED IN /data/hutter/GITHUB/BASIS/MOLOPT/PBE0
                                           /hbcnof
