 DBCSR| CPU Multiplication driver                                           XSMM
 DBCSR| Multrec recursion limit                                              512
 DBCSR| Multiplication stack size                                           1000
 DBCSR| Maximum elements for images                                    UNLIMITED
 DBCSR| Multiplicative factor virtual images                                   1
 DBCSR| Use multiplication densification                                       T
 DBCSR| Multiplication size stacks                                             3
 DBCSR| Use memory pool for CPU allocation                                     F
 DBCSR| Number of 3D layers                                               SINGLE
 DBCSR| Use MPI memory allocation                                              F
 DBCSR| Use RMA algorithm                                                      F
 DBCSR| Use Communication thread                                               T
 DBCSR| Communication thread load                                             87
 DBCSR| Split modifier for TAS multiplication algorithm                  1.0E+00


  **** **** ******  **  PROGRAM STARTED AT               2020-11-30 12:57:44.271
 ***** ** ***  *** **   PROGRAM STARTED ON                               tcopt10
 **    ****   ******    PROGRAM STARTED BY                                hutter
 ***** **    ** ** **   PROGRAM PROCESS ID                                 82954
  **** **  *******  **  PROGRAM STARTED IN /data/hutter/GITHUB/BASIS/MOLOPT/PBE0
                                           /hbcnof

 CP2K| version string:                    CP2K version 8.0 (Development Version)
 CP2K| source code revision number:                                  git:afc71fa
 CP2K| cp2kflags: omp libint fftw3 libxc elpa parallel mpi3 scalapack xsmm spgli
 CP2K|            b sirius
 CP2K| is freely available from                            https://www.cp2k.org/
 CP2K| Program compiled at                          Tue Nov 17 10:27:14 CET 2020
 CP2K| Program compiled on                                               tcopt10
 CP2K| Program compiled for                                                local
 CP2K| Data directory path                 /data/hutter/GITHUB/CURRENT/cp2k/data
 CP2K| Input file name                                              C2H6-ref.inp

 GLOBAL| Force Environment number                                              1
 GLOBAL| Basis set file name                                  ../PBE0_UCSEGBASIS
 GLOBAL| Potential file name                                        ../POTENTIAL
 GLOBAL| MM Potential file name                                     MM_POTENTIAL
 GLOBAL| Coordinate file name                                      __STD_INPUT__
 GLOBAL| Method name                                                        CP2K
 GLOBAL| Project name                                                    refC2H6
 GLOBAL| Preferred FFT library                                             FFTW3
 GLOBAL| Preferred diagonalization lib.                                     ELPA
 GLOBAL| Run type                                                         ENERGY
 GLOBAL| All-to-all communication in single precision                          F
 GLOBAL| FFTs using library dependent lengths                                  F
 GLOBAL| Global print level                                                  LOW
 GLOBAL| MPI I/O enabled                                                       T
 GLOBAL| Total number of message passing processes                            36
 GLOBAL| Number of threads for this process                                    1
 GLOBAL| This output is from process                                           0
 GLOBAL| CPU model name                          AMD EPYC 7401 24-Core Processor
 GLOBAL| CPUID                                                              1002

 MEMORY| system memory details [Kb]
 MEMORY|                        rank 0           min           max       average
 MEMORY| MemTotal            263987256     263987256     263987256     263987256
 MEMORY| MemFree             242281752     242281752     242281752     242281752
 MEMORY| Buffers                   148           148           148           148
 MEMORY| Cached               17821568      17821568      17821568      17821568
 MEMORY| Slab                   935328        935328        935328        935328
 MEMORY| SReclaimable           419896        419896        419896        419896
 MEMORY| MemLikelyFree       260523364     260523364     260523364     260523364


 GENERATE|  Preliminary Number of Bonds generated:                             6
 GENERATE|  Achieved consistency in connectivity generation.
 GENERATE|  Number of Bonds generated:                                         6
 GENERATE|  Preliminary Number of Bends generated:                             4
 GENERATE|  Number of Bends generated:                                         4
 GENERATE|  Number of UB generated:                                            4
 GENERATE|  Preliminary Number of Torsions generated:                          3
 GENERATE|  Number of Torsions generated:                                      3
 GENERATE|  Number of 1-4 interactions generated:                              3

 *******************************************************************************
 *******************************************************************************
 **                                                                           **
 **     #####                         ##              ##                      **
 **    ##   ##            ##          ##              ##                      **
 **   ##     ##                       ##            ######                    **
 **   ##     ##  ##   ##  ##   #####  ##  ##   ####   ##    #####    #####    **
 **   ##     ##  ##   ##  ##  ##      ## ##   ##      ##   ##   ##  ##   ##   **
 **   ##  ## ##  ##   ##  ##  ##      ####     ###    ##   ######   ######    **
 **    ##  ###   ##   ##  ##  ##      ## ##      ##   ##   ##       ##        **
 **     #######   #####   ##   #####  ##  ##  ####    ##    #####   ##        **
 **           ##                                                    ##        **
 **                                                                           **
 **                                                ... make the atoms dance   **
 **                                                                           **
 **            Copyright (C) by CP2K developers group (2000 - 2020)           **
 **                      J. Chem. Phys. 152, 194103 (2020)                    **
 **                                                                           **
 *******************************************************************************


 TOTAL NUMBERS AND MAXIMUM NUMBERS

  Total number of            - Atomic kinds:                                   2
                             - Atoms:                                          8
                             - Shell sets:                                    96
                             - Shells:                                       176
                             - Primitive Cartesian functions:                 96
                             - Cartesian basis functions:                    816
                             - Spherical basis functions:                    640

  Maximum angular momentum of- Orbital basis functions:                        4
                             - Local part of the GTH pseudopotential:          2
                             - Non-local part of the GTH pseudopotential:      0


 SCF PARAMETERS         Density guess:                                    ATOMIC
                        --------------------------------------------------------
                        max_scf:                                              10
                        max_scf_history:                                       0
                        max_diis:                                              4
                        --------------------------------------------------------
                        eps_scf:                                        1.00E-07
                        eps_scf_history:                                0.00E+00
                        eps_diis:                                       1.00E-01
                        eps_eigval:                                     1.00E-05
                        --------------------------------------------------------
                        level_shift [a.u.]:                                 0.00
                        --------------------------------------------------------
                        Outer loop SCF in use 
                        No variables optimised in outer loop
                        eps_scf                                         1.00E-07
                        max_scf                                               10
                        No outer loop optimization
                        step_size                                       5.00E-01

 Number of electrons:                                                         14
 Number of occupied orbitals:                                                  7
 Number of molecular orbitals:                                                 7

 Number of orbital functions:                                                640
 Number of independent orbital functions:                                    640

 Extrapolation method: initial_guess


 SCF WAVEFUNCTION OPTIMIZATION

  ----------------------------------- OT ---------------------------------------
  Minimizer      : DIIS                : direct inversion
                                         in the iterative subspace
                                         using   7 DIIS vectors
                                         safer DIIS on
  Preconditioner : FULL_ALL            : diagonalization, state selective
  Precond_solver : DEFAULT
  stepsize       :    0.15000000                  energy_gap     :    0.08000000
  eps_taylor     :   0.10000E-15                  max_taylor     :             4
  ----------------------------------- OT ---------------------------------------

  Step     Update method      Time    Convergence         Total energy    Change
  ------------------------------------------------------------------------------
     1 OT DIIS     0.15E+00   73.8     0.06542099       -12.7836079357 -1.28E+01
     2 OT DIIS     0.15E+00    4.5     0.06249714       -13.5902499776 -8.07E-01
     3 OT DIIS     0.15E+00    4.3     0.02712455       -14.2384170301 -6.48E-01
     4 OT DIIS     0.15E+00    4.3     0.02533333       -14.5357741728 -2.97E-01
     5 OT DIIS     0.15E+00    4.2     0.02227239       -14.6939267815 -1.58E-01
     6 OT DIIS     0.15E+00    4.3     0.02249772       -14.8773853880 -1.83E-01
     7 OT DIIS     0.15E+00    4.3     0.01280140       -14.9384288330 -6.10E-02
     8 OT DIIS     0.15E+00    4.2     0.01609009       -14.9233792848  1.50E-02
     9 OT DIIS     0.15E+00    4.3     0.00405089       -14.9690031739 -4.56E-02
    10 OT DIIS     0.15E+00    4.2     0.00524431       -14.9678471608  1.16E-03

  Leaving inner SCF loop after reaching    10 steps.


  Electronic density on regular grids:        -14.0000000000       -0.0000000000
  Core density on regular grids:               14.0000000000       -0.0000000000
  Total charge density on r-space grids:       -0.0000000000
  Total charge density g-space grids:          -0.0000000000

  Overlap energy of the core charge distribution:               0.00000126021446
  Self energy of the core charge distribution:                -34.98014317587322
  Core Hamiltonian energy:                                     11.26468670245848
  Hartree energy:                                              14.38868471257525
  Exchange-correlation energy:                                 -4.34204364922151
  Hartree-Fock Exchange energy:                                -1.29903301097974

  Total energy:                                               -14.96784716082628

  outer SCF iter =    1 RMS gradient =   0.52E-02 energy =        -14.9678471608

  ----------------------------------- OT ---------------------------------------
  Minimizer      : DIIS                : direct inversion
                                         in the iterative subspace
                                         using   7 DIIS vectors
                                         safer DIIS on
  Preconditioner : FULL_ALL            : diagonalization, state selective
  Precond_solver : DEFAULT
  stepsize       :    0.15000000                  energy_gap     :    0.08000000
  eps_taylor     :   0.10000E-15                  max_taylor     :             4
  ----------------------------------- OT ---------------------------------------

  Step     Update method      Time    Convergence         Total energy    Change
  ------------------------------------------------------------------------------
     1 OT DIIS     0.15E+00    8.6     0.00081266       -14.9729850171 -5.14E-03
     2 OT DIIS     0.15E+00    4.3     0.00034147       -14.9732915907 -3.07E-04
     3 OT DIIS     0.15E+00    4.2     0.00007458       -14.9733578621 -6.63E-05
     4 OT DIIS     0.15E+00    4.3     0.00001229       -14.9733603562 -2.49E-06
     5 OT DIIS     0.15E+00    4.3     0.00000391       -14.9733604413 -8.51E-08
     6 OT DIIS     0.15E+00    4.2     0.00000043       -14.9733604508 -9.56E-09
     7 OT DIIS     0.15E+00    4.2     0.00000013       -14.9733604509 -7.28E-11
     8 OT DIIS     0.15E+00    4.2     0.00000003       -14.9733604509 -8.51E-12

  *** SCF run converged in     8 steps ***


  Electronic density on regular grids:        -14.0000000000       -0.0000000000
  Core density on regular grids:               14.0000000000       -0.0000000000
  Total charge density on r-space grids:       -0.0000000000
  Total charge density g-space grids:          -0.0000000000

  Overlap energy of the core charge distribution:               0.00000126021446
  Self energy of the core charge distribution:                -34.98014317587322
  Core Hamiltonian energy:                                     11.26066225441440
  Hartree energy:                                              14.38851383401636
  Exchange-correlation energy:                                 -4.34299759719864
  Hartree-Fock Exchange energy:                                -1.29939702648324

  Total energy:                                               -14.97336045090987

  outer SCF iter =    2 RMS gradient =   0.25E-07 energy =        -14.9733604509
  outer SCF loop converged in   2 iterations or   18 steps


 ENERGY| Total FORCE_EVAL ( QS ) energy [a.u.]:              -14.973360450909873

 -------------------------------------------------------------------------------
 -                                                                             -
 -                                DBCSR STATISTICS                             -
 -                                                                             -
 -------------------------------------------------------------------------------
 COUNTER                                    TOTAL       BLAS       SMM       ACC
 flops     7 x     7 x     7               109074       0.0%    100.0%      0.0%
 flops     7 x     7 x    68               986272       0.0%    100.0%      0.0%
 flops    68 x     7 x     7              1226176       0.0%    100.0%      0.0%
 flops     7 x     7 x   116              1682464       0.0%    100.0%      0.0%
 flops     7 x     7 x   136              1972544       0.0%    100.0%      0.0%
 flops   116 x     7 x     7              2091712       0.0%    100.0%      0.0%
 flops   136 x     7 x     7              2452352       0.0%    100.0%      0.0%
 flops   116 x   116 x     7             10737888       0.0%    100.0%      0.0%
 flops    68 x   116 x     7             12589248       0.0%    100.0%      0.0%
 flops   116 x    68 x     7             12589248       0.0%    100.0%      0.0%
 flops   136 x     7 x    68             20715520       0.0%    100.0%      0.0%
 flops    68 x     7 x   136             20715520       0.0%    100.0%      0.0%
 flops    68 x    68 x     7             25829664       0.0%    100.0%      0.0%
 flops   116 x     7 x   136             35338240       0.0%    100.0%      0.0%
 flops   136 x     7 x   116             35338240       0.0%    100.0%      0.0%
 flops   136 x     7 x   136             41431040       0.0%    100.0%      0.0%
 flops   116 x     7 x   116             67818240       0.0%    100.0%      0.0%
 flops   116 x     7 x    68             83928320       0.0%    100.0%      0.0%
 flops    68 x     7 x   116             83928320       0.0%    100.0%      0.0%
 flops    68 x     7 x    68            126882560       0.0%    100.0%      0.0%
 flops inhomo. stacks                           0       0.0%      0.0%      0.0%
 flops total                       588.362642E+06       0.0%    100.0%      0.0%
 flops max/rank                    112.994784E+06       0.0%    100.0%      0.0%
 matmuls inhomo. stacks                         0       0.0%      0.0%      0.0%
 matmuls total                               6479       0.0%    100.0%      0.0%
 number of processed stacks                  4927       0.0%    100.0%      0.0%
 average stack size                                     0.0       1.3       0.0
 marketing flops                   635.694848E+06
 -------------------------------------------------------------------------------
 # multiplications                            436
 max memory usage/rank               4.462805E+09
 # max total images/rank                        1
 # max 3D layers                                1
 # MPI messages exchanged                  156960
 MPI messages size (bytes):
  total size                         1.541309E+09
  min size                           0.000000E+00
  max size                         147.968000E+03
  average size                       9.819757E+03
 MPI breakdown and total messages size (bytes):
             size <=      128              127670                        0
       128 < size <=     8192               13090                 66749200
      8192 < size <=    32768                   0                        0
     32768 < size <=   131072               14400               1208217600
    131072 < size <=  4194304                1800                266342400
   4194304 < size <= 16777216                   0                        0
  16777216 < size                               0                        0
 -------------------------------------------------------------------------------
 -                                                                             -
 -                      DBCSR MESSAGE PASSING PERFORMANCE                      -
 -                                                                             -
 -------------------------------------------------------------------------------
 ROUTINE             CALLS      AVE VOLUME [Bytes]
 MP_Bcast               21                     12.
 MP_Allreduce         2348                      8.
 MP_Alltoall          1696                   4222.
 MP_ISend            10456                   4822.
 MP_IRecv            10456                   4911.
 -------------------------------------------------------------------------------

 -------------------------------------------------------------------------------
 -                                                                             -
 -                                GRID STATISTICS                              -
 -                                                                             -
 -------------------------------------------------------------------------------
 LP    KERNEL    OPERATION                                     COUNT     PERCENT
 0     general   collocate                                       288       0.16%
 0     ortho     integrate                                     21870      11.81%
 0     ortho     collocate                                     23085      12.46%
 1     ortho     integrate                                     12960       7.00%
 1     ortho     collocate                                     13680       7.39%
 2     ortho     integrate                                      3402       1.84%
 2     ortho     collocate                                      3591       1.94%
 3     ortho     integrate                                     24084      13.00%
 3     ortho     collocate                                     25422      13.73%
 4     ortho     integrate                                     13824       7.46%
 4     ortho     collocate                                     14592       7.88%
 5     ortho     integrate                                      3456       1.87%
 5     ortho     collocate                                      3648       1.97%
 6     ortho     integrate                                      6048       3.27%
 6     ortho     collocate                                      6384       3.45%
 7     ortho     integrate                                      3456       1.87%
 7     ortho     collocate                                      3648       1.97%
 8     ortho     integrate                                       864       0.47%
 8     ortho     collocate                                       912       0.49%
 -------------------------------------------------------------------------------

 MEMORY| Estimated peak process memory [MiB]                                4257

 -------------------------------------------------------------------------------
 -                                                                             -
 -                         MESSAGE PASSING PERFORMANCE                         -
 -                                                                             -
 -------------------------------------------------------------------------------

 ROUTINE             CALLS      AVE VOLUME [Bytes]
 MP_Group                5
 MP_Bcast              256                 727555.
 MP_Allreduce          751                   1864.
 MP_Sync               111
 MP_Alltoall           362                6185429.
 MP_ISendRecv         5215                 113219.
 MP_Wait              6849
 MP_comm_split          14
 MP_ISend             1520                 254016.
 MP_IRecv             1520                 254016.
 MP_Recv                 3                  10240.
 -------------------------------------------------------------------------------


 -------------------------------------------------------------------------------
 -                                                                             -
 -                           R E F E R E N C E S                               -
 -                                                                             -
 -------------------------------------------------------------------------------
 
 CP2K version 8.0 (Development Version), the CP2K developers group (2020).
 CP2K is freely available from https://www.cp2k.org/ .

 Kuehne,Thomas D.; Iannuzzi,Marcella; Del Ben,Mauro;
 Rybkin,Vladimir V.; Seewald,Patrick; Stein,Frederick; Laino,Teodoro;
 Khaliullin,Rustam Z.; Schuett,Ole; Schiffmann,Florian; Golze,Dorothea;
 Wilhelm,Jan; Chulkov,Sergey; Bani-Hashemian,Mohammad Hossein;
 Weber,Valery; Borstnik,Urban; Taillefumier,Mathieu;
 Jakobovits,Alice Shoshana; Lazzaro,Alfio; Pabst,Hans; Mueller,Tiziano;
 Schade,Robert; Guidon,Manuel; Andermatt,Samuel; Holmberg,Nico;
 Schenter,Gregory K.; Hehn,Anna; Bussy,Augustin; Belleflamme,Fabian;
 Tabacchi,Gloria; Gloess,Andreas; Lass,Michael; Bethune,Iain;
 Mundy,Christopher J.; Plessl,Christian; Watkins,Matt;
 VandeVondele,Joost; Krack,Matthias; Hutter,Juerg. 
 The Journal of Chemical Physics, 152 (19), (2020). 
 CP2K: An electronic structure and molecular dynamics software package -
 Quickstep: Efficient and accurate electronic structure calculations.
 https://doi.org/10.1063/5.0007045

 Schuett, Ole; Messmer, Peter; Hutter, Juerg; VandeVondele, Joost. 
 Electronic Structure Calculations on Graphics Processing Units, John
 Wiley & Sons, Ltd, 173-190 (2016). 
 GPU-Accelerated Sparse Matrix-Matrix Multiplication for
 Linear Scaling Density Functional Theory.
 https://doi.org/10.1002/9781118670712.ch8

 Borstnik, U; VandeVondele, J; Weber, V; Hutter, J. 
 PARALLEL COMPUTING, 40 (5-6), 47-58 (2014). 
 Sparse matrix multiplication: The distributed block-compressed sparse
 row library.
 https://doi.org/10.1016/j.parco.2014.03.012

 Hutter, J; Iannuzzi, M; Schiffmann, F; VandeVondele, J. 
 WIREs Comput Mol Sci., 4 (1), 15-25 (2014). 
 CP2K: atomistic simulations of condensed matter systems.
 https://doi.org/10.1002/wcms.1159

 Marek, A; Blum, V; Johanni, R; Havu, V; Lang, B; Auckenthaler, T;
 Heinecke, A; Bungartz, H; Lederer, H. 
 Journal of Physics: Condensed Matter, 26 (21), (2014). 
 The ELPA library: scalable parallel eigenvalue solutions for
 electronic structure
 theory and computational science.
 https://doi.org/10.1088/0953-8984/26/21/213201

 Guidon, M; Hutter, J; VandeVondele, J. 
 JOURNAL OF CHEMICAL THEORY AND COMPUTATION, 5 (11), 3010-3021 (2009). 
 Robust Periodic Hartree-Fock Exchange for Large-Scale Simulations Using
 Gaussian Basis Sets.
 https://doi.org/10.1021/ct900494g

 Guidon, M; Schiffmann, F; Hutter, J; VandeVondele, J. 
 JOURNAL OF CHEMICAL PHYSICS, 128 (21), 214104 (2008). 
 Ab initio molecular dynamics using hybrid density functionals.
 https://doi.org/10.1063/1.2931945

 Krack, M. 
 THEORETICAL CHEMISTRY ACCOUNTS, 114 (1-3), 145-152 (2005). 
 Pseudopotentials for H to Kr optimized for gradient-corrected
 exchange-correlation functionals.
 https://doi.org/10.1007/s00214-005-0655-y

 VandeVondele, J; Krack, M; Mohamed, F; Parrinello, M; Chassaing, T;
 Hutter, J. COMPUTER PHYSICS COMMUNICATIONS, 167 (2), 103-128 (2005). 
 QUICKSTEP: Fast and accurate density functional calculations using a
 mixed Gaussian and plane waves approach.
 https://doi.org/10.1016/j.cpc.2004.12.014

 Frigo, M; Johnson, SG. 
 PROCEEDINGS OF THE IEEE, 93 (2), 216-231 (2005). 
 The design and implementation of FFTW3.
 https://doi.org/10.1109/JPROC.2004.840301

 VandeVondele, J; Hutter, J. 
 JOURNAL OF CHEMICAL PHYSICS, 118 (10), 4365-4369 (2003). 
 An efficient orbital transformation method for electronic structure
 calculations.
 https://doi.org/10.1063/1.1543154

 Martyna, GJ; Tuckerman, ME. 
 JOURNAL OF CHEMICAL PHYSICS, 110 (6), 2810-2821 (1999). 
 A reciprocal space based method for treating long range interactions in
 ab initio and force-field-based calculations in clusters.
 https://doi.org/10.1063/1.477923

 Hartwigsen, C; Goedecker, S; Hutter, J. 
 PHYSICAL REVIEW B, 58 (7), 3641-3662 (1998). 
 Relativistic separable dual-space Gaussian pseudopotentials from H to Rn.
 https://doi.org/10.1103/PhysRevB.58.3641

 Lippert, G; Hutter, J; Parrinello, M. 
 MOLECULAR PHYSICS, 92 (3), 477-487 (1997). 
 A hybrid Gaussian and plane wave density functional scheme.
 https://doi.org/10.1080/002689797170220

 Perdew, JP; Burke, K; Ernzerhof, M. 
 PHYSICAL REVIEW LETTERS, 77 (18), 3865-3868 (1996). 
 Generalized gradient approximation made simple.
 https://doi.org/10.1103/PhysRevLett.77.3865

 Goedecker, S; Teter, M; Hutter, J. 
 PHYSICAL REVIEW B, 54 (3), 1703-1710 (1996). 
 Separable dual-space Gaussian pseudopotentials.
 https://doi.org/10.1103/PhysRevB.54.1703


 -------------------------------------------------------------------------------
 -                                                                             -
 -                                T I M I N G                                  -
 -                                                                             -
 -------------------------------------------------------------------------------
 SUBROUTINE                       CALLS  ASD         SELF TIME        TOTAL TIME
                                MAXIMUM       AVERAGE  MAXIMUM  AVERAGE  MAXIMUM
 CP2K                                 1  1.0    0.459    0.565  147.575  147.611
 qs_energies                          1  2.0    0.000    0.000  146.781  146.816
 scf_env_do_scf                       1  3.0    0.000    0.000  146.557  146.593
 qs_ks_update_qs_env                 20  5.0    0.000    0.000  143.444  143.479
 rebuild_ks_matrix                   18  6.0    0.000    0.000  143.441  143.476
 qs_ks_build_kohn_sham_matrix        18  7.0    0.003    0.003  143.441  143.476
 hfx_ks_matrix                       18  8.0    0.001    0.001  136.592  136.625
 integrate_four_center               18  9.0    0.027    0.035  136.590  136.623
 integrate_four_center_main          18 10.0    0.004    0.005  108.140  112.643
 integrate_four_center_bin         1980 11.0  108.136  112.638  108.136  112.638
 init_scf_loop                        2  4.0    0.000    0.000   78.018   78.036
 scf_env_do_scf_inner_loop           18  4.0    0.001    0.002   68.539   68.555
 calc_screening_functions             1 10.0   18.491   18.892   19.109   19.528
 mp_sync                            111 10.8    7.068   11.824    7.068   11.824
 pw_transfer                        349  9.6    0.032    0.038    4.298    4.771
 fft_wrap_pw1pw2                    313 10.7    0.004    0.005    4.232    4.717
 fft_wrap_pw1pw2_300                201 11.8    0.225    0.268    3.989    4.465
 qs_vxc_create                       18  8.0    0.000    0.001    4.204    4.215
 xc_vxc_pw_create                    18  9.0    0.033    0.035    4.204    4.215
 fft3d_ps                           313 12.7    1.565    1.637    3.369    3.925
 -------------------------------------------------------------------------------

 The number of warnings for this run is : 0
 
 -------------------------------------------------------------------------------
  **** **** ******  **  PROGRAM ENDED AT                 2020-11-30 13:00:12.572
 ***** ** ***  *** **   PROGRAM RAN ON                                   tcopt10
 **    ****   ******    PROGRAM RAN BY                                    hutter
 ***** **    ** ** **   PROGRAM PROCESS ID                                 82954
  **** **  *******  **  PROGRAM STOPPED IN /data/hutter/GITHUB/BASIS/MOLOPT/PBE0
                                           /hbcnof
