 DBCSR| CPU Multiplication driver                                           XSMM
 DBCSR| Multrec recursion limit                                              512
 DBCSR| Multiplication stack size                                           1000
 DBCSR| Maximum elements for images                                    UNLIMITED
 DBCSR| Multiplicative factor virtual images                                   1
 DBCSR| Use multiplication densification                                       T
 DBCSR| Multiplication size stacks                                             3
 DBCSR| Use memory pool for CPU allocation                                     F
 DBCSR| Number of 3D layers                                               SINGLE
 DBCSR| Use MPI memory allocation                                              F
 DBCSR| Use RMA algorithm                                                      F
 DBCSR| Use Communication thread                                               T
 DBCSR| Communication thread load                                             87
 DBCSR| Split modifier for TAS multiplication algorithm                  1.0E+00


  **** **** ******  **  PROGRAM STARTED AT               2020-11-30 13:22:17.896
 ***** ** ***  *** **   PROGRAM STARTED ON                               tcopt10
 **    ****   ******    PROGRAM STARTED BY                                hutter
 ***** **    ** ** **   PROGRAM PROCESS ID                                 87957
  **** **  *******  **  PROGRAM STARTED IN /data/hutter/GITHUB/BASIS/MOLOPT/PBE0
                                           /hbcnof

 CP2K| version string:                    CP2K version 8.0 (Development Version)
 CP2K| source code revision number:                                  git:afc71fa
 CP2K| cp2kflags: omp libint fftw3 libxc elpa parallel mpi3 scalapack xsmm spgli
 CP2K|            b sirius
 CP2K| is freely available from                            https://www.cp2k.org/
 CP2K| Program compiled at                          Tue Nov 17 10:27:14 CET 2020
 CP2K| Program compiled on                                               tcopt10
 CP2K| Program compiled for                                                local
 CP2K| Data directory path                 /data/hutter/GITHUB/CURRENT/cp2k/data
 CP2K| Input file name                                              C4H4-ref.inp

 GLOBAL| Force Environment number                                              1
 GLOBAL| Basis set file name                                  ../PBE0_UCSEGBASIS
 GLOBAL| Potential file name                                        ../POTENTIAL
 GLOBAL| MM Potential file name                                     MM_POTENTIAL
 GLOBAL| Coordinate file name                                      __STD_INPUT__
 GLOBAL| Method name                                                        CP2K
 GLOBAL| Project name                                                    refC4H4
 GLOBAL| Preferred FFT library                                             FFTW3
 GLOBAL| Preferred diagonalization lib.                                     ELPA
 GLOBAL| Run type                                                         ENERGY
 GLOBAL| All-to-all communication in single precision                          F
 GLOBAL| FFTs using library dependent lengths                                  F
 GLOBAL| Global print level                                                  LOW
 GLOBAL| MPI I/O enabled                                                       T
 GLOBAL| Total number of message passing processes                            36
 GLOBAL| Number of threads for this process                                    1
 GLOBAL| This output is from process                                           0
 GLOBAL| CPU model name                          AMD EPYC 7401 24-Core Processor
 GLOBAL| CPUID                                                              1002

 MEMORY| system memory details [Kb]
 MEMORY|                        rank 0           min           max       average
 MEMORY| MemTotal            263987256     263987256     263987256     263987256
 MEMORY| MemFree             242390252     242390252     242390252     242390252
 MEMORY| Buffers                   148           148           148           148
 MEMORY| Cached               17706292      17706292      17706292      17706292
 MEMORY| Slab                   939968        939968        939968        939968
 MEMORY| SReclaimable           420576        420576        420576        420576
 MEMORY| MemLikelyFree       260517268     260517268     260517268     260517268


 GENERATE|  Preliminary Number of Bonds generated:                             6
 GENERATE|  Achieved consistency in connectivity generation.
 GENERATE|  Number of Bonds generated:                                         6
 GENERATE|  Preliminary Number of Bends generated:                            12
 GENERATE|  Number of Bends generated:                                        12
 GENERATE|  Number of UB generated:                                           12
 GENERATE|  Preliminary Number of Torsions generated:                         12
 GENERATE|  Number of Torsions generated:                                     12
 GENERATE|  Number of Impropers generated:                                     4

 *******************************************************************************
 *******************************************************************************
 **                                                                           **
 **     #####                         ##              ##                      **
 **    ##   ##            ##          ##              ##                      **
 **   ##     ##                       ##            ######                    **
 **   ##     ##  ##   ##  ##   #####  ##  ##   ####   ##    #####    #####    **
 **   ##     ##  ##   ##  ##  ##      ## ##   ##      ##   ##   ##  ##   ##   **
 **   ##  ## ##  ##   ##  ##  ##      ####     ###    ##   ######   ######    **
 **    ##  ###   ##   ##  ##  ##      ## ##      ##   ##   ##       ##        **
 **     #######   #####   ##   #####  ##  ##  ####    ##    #####   ##        **
 **           ##                                                    ##        **
 **                                                                           **
 **                                                ... make the atoms dance   **
 **                                                                           **
 **            Copyright (C) by CP2K developers group (2000 - 2020)           **
 **                      J. Chem. Phys. 152, 194103 (2020)                    **
 **                                                                           **
 *******************************************************************************


 TOTAL NUMBERS AND MAXIMUM NUMBERS

  Total number of            - Atomic kinds:                                   2
                             - Atoms:                                          8
                             - Shell sets:                                    96
                             - Shells:                                       192
                             - Primitive Cartesian functions:                 96
                             - Cartesian basis functions:                    960
                             - Spherical basis functions:                    736

  Maximum angular momentum of- Orbital basis functions:                        4
                             - Local part of the GTH pseudopotential:          2
                             - Non-local part of the GTH pseudopotential:      0


 SCF PARAMETERS         Density guess:                                    ATOMIC
                        --------------------------------------------------------
                        max_scf:                                              10
                        max_scf_history:                                       0
                        max_diis:                                              4
                        --------------------------------------------------------
                        eps_scf:                                        1.00E-07
                        eps_scf_history:                                0.00E+00
                        eps_diis:                                       1.00E-01
                        eps_eigval:                                     1.00E-05
                        --------------------------------------------------------
                        level_shift [a.u.]:                                 0.00
                        --------------------------------------------------------
                        Outer loop SCF in use 
                        No variables optimised in outer loop
                        eps_scf                                         1.00E-07
                        max_scf                                               10
                        No outer loop optimization
                        step_size                                       5.00E-01

 Number of electrons:                                                         20
 Number of occupied orbitals:                                                 10
 Number of molecular orbitals:                                                10

 Number of orbital functions:                                                736
 Number of independent orbital functions:                                    736

 Extrapolation method: initial_guess


 SCF WAVEFUNCTION OPTIMIZATION

  ----------------------------------- OT ---------------------------------------
  Minimizer      : DIIS                : direct inversion
                                         in the iterative subspace
                                         using   7 DIIS vectors
                                         safer DIIS on
  Preconditioner : FULL_ALL            : diagonalization, state selective
  Precond_solver : DEFAULT
  stepsize       :    0.15000000                  energy_gap     :    0.08000000
  eps_taylor     :   0.10000E-15                  max_taylor     :             4
  ----------------------------------- OT ---------------------------------------

  Step     Update method      Time    Convergence         Total energy    Change
  ------------------------------------------------------------------------------
     1 OT DIIS     0.15E+00  113.1     0.06358880       -22.5812548180 -2.26E+01
     2 OT DIIS     0.15E+00   13.6     0.08121507       -23.0890417892 -5.08E-01
     3 OT DIIS     0.15E+00   13.2     0.02186496       -24.5930867181 -1.50E+00
     4 OT DIIS     0.15E+00   13.1     0.01187018       -24.8340938394 -2.41E-01
     5 OT DIIS     0.15E+00   13.1     0.00735359       -24.9107491046 -7.67E-02
     6 OT DIIS     0.15E+00   13.1     0.00373623       -24.9467924632 -3.60E-02
     7 OT DIIS     0.15E+00   13.1     0.00287266       -24.9536817128 -6.89E-03
     8 OT DIIS     0.15E+00   13.2     0.00160005       -24.9577809584 -4.10E-03
     9 OT DIIS     0.15E+00   13.2     0.00069923       -24.9591960612 -1.42E-03
    10 OT DIIS     0.15E+00   13.4     0.00028281       -24.9597331906 -5.37E-04

  Leaving inner SCF loop after reaching    10 steps.


  Electronic density on regular grids:        -20.0000000000        0.0000000000
  Core density on regular grids:               20.0000000000       -0.0000000000
  Total charge density on r-space grids:        0.0000000000
  Total charge density g-space grids:           0.0000000000

  Overlap energy of the core charge distribution:               0.00000167934812
  Self energy of the core charge distribution:                -58.70437543654854
  Core Hamiltonian energy:                                     18.48601964894881
  Hartree energy:                                              23.59997841625283
  Exchange-correlation energy:                                 -6.44813604710264
  Hartree-Fock Exchange energy:                                -1.89322145154140

  Total energy:                                               -24.95973319064281

  outer SCF iter =    1 RMS gradient =   0.28E-03 energy =        -24.9597331906

  ----------------------------------- OT ---------------------------------------
  Minimizer      : DIIS                : direct inversion
                                         in the iterative subspace
                                         using   7 DIIS vectors
                                         safer DIIS on
  Preconditioner : FULL_ALL            : diagonalization, state selective
  Precond_solver : DEFAULT
  stepsize       :    0.15000000                  energy_gap     :    0.08000000
  eps_taylor     :   0.10000E-15                  max_taylor     :             4
  ----------------------------------- OT ---------------------------------------

  Step     Update method      Time    Convergence         Total energy    Change
  ------------------------------------------------------------------------------
     1 OT DIIS     0.15E+00   27.0     0.00016748       -24.9598306780 -9.75E-05
     2 OT DIIS     0.15E+00   13.3     0.00007340       -24.9598521745 -2.15E-05
     3 OT DIIS     0.15E+00   13.2     0.00002184       -24.9598571555 -4.98E-06
     4 OT DIIS     0.15E+00   13.3     0.00000372       -24.9598574689 -3.13E-07
     5 OT DIIS     0.15E+00   13.4     0.00000154       -24.9598574791 -1.03E-08
     6 OT DIIS     0.15E+00   13.2     0.00000034       -24.9598574810 -1.84E-09
     7 OT DIIS     0.15E+00   13.2     0.00000004       -24.9598574811 -1.28E-10

  *** SCF run converged in     7 steps ***


  Electronic density on regular grids:        -20.0000000000        0.0000000000
  Core density on regular grids:               20.0000000000       -0.0000000000
  Total charge density on r-space grids:        0.0000000000
  Total charge density g-space grids:           0.0000000000

  Overlap energy of the core charge distribution:               0.00000167934812
  Self energy of the core charge distribution:                -58.70437543654854
  Core Hamiltonian energy:                                     18.48674773719742
  Hartree energy:                                              23.59888279832615
  Exchange-correlation energy:                                 -6.44795644512051
  Hartree-Fock Exchange energy:                                -1.89315781431055

  Total energy:                                               -24.95985748110791

  outer SCF iter =    2 RMS gradient =   0.42E-07 energy =        -24.9598574811
  outer SCF loop converged in   2 iterations or   17 steps


 ENERGY| Total FORCE_EVAL ( QS ) energy [a.u.]:              -24.959857481107907

 -------------------------------------------------------------------------------
 -                                                                             -
 -                                DBCSR STATISTICS                             -
 -                                                                             -
 -------------------------------------------------------------------------------
 COUNTER                                    TOTAL       BLAS       SMM       ACC
 flops    10 x    10 x    10               244000       0.0%    100.0%      0.0%
 flops    10 x    10 x   136              3808000       0.0%    100.0%      0.0%
 flops   136 x    10 x    10              4732800       0.0%    100.0%      0.0%
 flops    10 x    10 x   116              6496000       0.0%    100.0%      0.0%
 flops   116 x    10 x    10              8073600       0.0%    100.0%      0.0%
 flops    68 x    68 x    10             16646400       0.0%    100.0%      0.0%
 flops    68 x   116 x    10             22717440       0.0%    100.0%      0.0%
 flops   116 x    68 x    10             22717440       0.0%    100.0%      0.0%
 flops   116 x   116 x    10             48441600       0.0%    100.0%      0.0%
 flops   136 x    10 x   136             56227840       0.0%    100.0%      0.0%
 flops    68 x    10 x    68             71024640       0.0%    100.0%      0.0%
 flops   116 x    10 x   136             95918080       0.0%    100.0%      0.0%
 flops   136 x    10 x   116             95918080       0.0%    100.0%      0.0%
 flops   116 x    10 x    68            121159680       0.0%    100.0%      0.0%
 flops    68 x    10 x   116            121159680       0.0%    100.0%      0.0%
 flops   116 x    10 x   116            370309120       0.0%    100.0%      0.0%
 flops inhomo. stacks                           0       0.0%      0.0%      0.0%
 flops total                         1.065594E+09       0.0%    100.0%      0.0%
 flops max/rank                    177.371200E+06       0.0%    100.0%      0.0%
 matmuls inhomo. stacks                         0       0.0%      0.0%      0.0%
 matmuls total                               6152       0.0%    100.0%      0.0%
 number of processed stacks                  4700       0.0%    100.0%      0.0%
 average stack size                                     0.0       1.3       0.0
 marketing flops                     1.150375E+09
 -------------------------------------------------------------------------------
 # multiplications                            385
 max memory usage/rank               7.110902E+09
 # max total images/rank                        1
 # max 3D layers                                1
 # MPI messages exchanged                  138600
 MPI messages size (bytes):
  total size                         1.967504E+09
  min size                           0.000000E+00
  max size                         147.968000E+03
  average size                      14.195554E+03
 MPI breakdown and total messages size (bytes):
             size <=      128              110995                        0
       128 < size <=     8192                1655                  1324000
      8192 < size <=    32768               10470                102745600
     32768 < size <=   131072               13760               1608929280
    131072 < size <=  4194304                1720                254504960
   4194304 < size <= 16777216                   0                        0
  16777216 < size                               0                        0
 -------------------------------------------------------------------------------
 -                                                                             -
 -                      DBCSR MESSAGE PASSING PERFORMANCE                      -
 -                                                                             -
 -------------------------------------------------------------------------------
 ROUTINE             CALLS      AVE VOLUME [Bytes]
 MP_Bcast               17                     12.
 MP_Allreduce         2075                      8.
 MP_Alltoall          1580                   4672.
 MP_ISend             9232                   6572.
 MP_IRecv             9232                   6631.
 -------------------------------------------------------------------------------

 -------------------------------------------------------------------------------
 -                                                                             -
 -                                GRID STATISTICS                              -
 -                                                                             -
 -------------------------------------------------------------------------------
 LP    KERNEL    OPERATION                                     COUNT     PERCENT
 0     general   collocate                                       288       0.17%
 0     ortho     integrate                                      9350       5.38%
 0     ortho     collocate                                      9900       5.70%
 1     ortho     integrate                                     15776       9.08%
 1     ortho     collocate                                     16704       9.61%
 2     ortho     integrate                                     10574       6.09%
 2     ortho     collocate                                     11196       6.44%
 3     ortho     integrate                                     10472       6.03%
 3     ortho     collocate                                     11088       6.38%
 4     ortho     integrate                                     17408      10.02%
 4     ortho     collocate                                     18432      10.61%
 5     ortho     integrate                                     10880       6.26%
 5     ortho     collocate                                     11520       6.63%
 6     ortho     integrate                                      2720       1.57%
 6     ortho     collocate                                      2880       1.66%
 7     ortho     integrate                                      4352       2.50%
 7     ortho     collocate                                      4608       2.65%
 8     ortho     integrate                                      2720       1.57%
 8     ortho     collocate                                      2880       1.66%
 -------------------------------------------------------------------------------

 MEMORY| Estimated peak process memory [MiB]                                6782

 -------------------------------------------------------------------------------
 -                                                                             -
 -                         MESSAGE PASSING PERFORMANCE                         -
 -                                                                             -
 -------------------------------------------------------------------------------

 ROUTINE             CALLS      AVE VOLUME [Bytes]
 MP_Group                5
 MP_Bcast              310                 600807.
 MP_Allreduce          886                   1595.
 MP_Sync               106
 MP_Alltoall           343                6197742.
 MP_ISendRecv         4935                 113134.
 MP_Wait              6483
 MP_comm_split          14
 MP_ISend             1440                 254016.
 MP_IRecv             1440                 254016.
 MP_Recv                 4                  11776.
 -------------------------------------------------------------------------------


 -------------------------------------------------------------------------------
 -                                                                             -
 -                           R E F E R E N C E S                               -
 -                                                                             -
 -------------------------------------------------------------------------------
 
 CP2K version 8.0 (Development Version), the CP2K developers group (2020).
 CP2K is freely available from https://www.cp2k.org/ .

 Kuehne,Thomas D.; Iannuzzi,Marcella; Del Ben,Mauro;
 Rybkin,Vladimir V.; Seewald,Patrick; Stein,Frederick; Laino,Teodoro;
 Khaliullin,Rustam Z.; Schuett,Ole; Schiffmann,Florian; Golze,Dorothea;
 Wilhelm,Jan; Chulkov,Sergey; Bani-Hashemian,Mohammad Hossein;
 Weber,Valery; Borstnik,Urban; Taillefumier,Mathieu;
 Jakobovits,Alice Shoshana; Lazzaro,Alfio; Pabst,Hans; Mueller,Tiziano;
 Schade,Robert; Guidon,Manuel; Andermatt,Samuel; Holmberg,Nico;
 Schenter,Gregory K.; Hehn,Anna; Bussy,Augustin; Belleflamme,Fabian;
 Tabacchi,Gloria; Gloess,Andreas; Lass,Michael; Bethune,Iain;
 Mundy,Christopher J.; Plessl,Christian; Watkins,Matt;
 VandeVondele,Joost; Krack,Matthias; Hutter,Juerg. 
 The Journal of Chemical Physics, 152 (19), (2020). 
 CP2K: An electronic structure and molecular dynamics software package -
 Quickstep: Efficient and accurate electronic structure calculations.
 https://doi.org/10.1063/5.0007045

 Schuett, Ole; Messmer, Peter; Hutter, Juerg; VandeVondele, Joost. 
 Electronic Structure Calculations on Graphics Processing Units, John
 Wiley & Sons, Ltd, 173-190 (2016). 
 GPU-Accelerated Sparse Matrix-Matrix Multiplication for
 Linear Scaling Density Functional Theory.
 https://doi.org/10.1002/9781118670712.ch8

 Borstnik, U; VandeVondele, J; Weber, V; Hutter, J. 
 PARALLEL COMPUTING, 40 (5-6), 47-58 (2014). 
 Sparse matrix multiplication: The distributed block-compressed sparse
 row library.
 https://doi.org/10.1016/j.parco.2014.03.012

 Hutter, J; Iannuzzi, M; Schiffmann, F; VandeVondele, J. 
 WIREs Comput Mol Sci., 4 (1), 15-25 (2014). 
 CP2K: atomistic simulations of condensed matter systems.
 https://doi.org/10.1002/wcms.1159

 Marek, A; Blum, V; Johanni, R; Havu, V; Lang, B; Auckenthaler, T;
 Heinecke, A; Bungartz, H; Lederer, H. 
 Journal of Physics: Condensed Matter, 26 (21), (2014). 
 The ELPA library: scalable parallel eigenvalue solutions for
 electronic structure
 theory and computational science.
 https://doi.org/10.1088/0953-8984/26/21/213201

 Guidon, M; Hutter, J; VandeVondele, J. 
 JOURNAL OF CHEMICAL THEORY AND COMPUTATION, 5 (11), 3010-3021 (2009). 
 Robust Periodic Hartree-Fock Exchange for Large-Scale Simulations Using
 Gaussian Basis Sets.
 https://doi.org/10.1021/ct900494g

 Guidon, M; Schiffmann, F; Hutter, J; VandeVondele, J. 
 JOURNAL OF CHEMICAL PHYSICS, 128 (21), 214104 (2008). 
 Ab initio molecular dynamics using hybrid density functionals.
 https://doi.org/10.1063/1.2931945

 Krack, M. 
 THEORETICAL CHEMISTRY ACCOUNTS, 114 (1-3), 145-152 (2005). 
 Pseudopotentials for H to Kr optimized for gradient-corrected
 exchange-correlation functionals.
 https://doi.org/10.1007/s00214-005-0655-y

 VandeVondele, J; Krack, M; Mohamed, F; Parrinello, M; Chassaing, T;
 Hutter, J. COMPUTER PHYSICS COMMUNICATIONS, 167 (2), 103-128 (2005). 
 QUICKSTEP: Fast and accurate density functional calculations using a
 mixed Gaussian and plane waves approach.
 https://doi.org/10.1016/j.cpc.2004.12.014

 Frigo, M; Johnson, SG. 
 PROCEEDINGS OF THE IEEE, 93 (2), 216-231 (2005). 
 The design and implementation of FFTW3.
 https://doi.org/10.1109/JPROC.2004.840301

 VandeVondele, J; Hutter, J. 
 JOURNAL OF CHEMICAL PHYSICS, 118 (10), 4365-4369 (2003). 
 An efficient orbital transformation method for electronic structure
 calculations.
 https://doi.org/10.1063/1.1543154

 Martyna, GJ; Tuckerman, ME. 
 JOURNAL OF CHEMICAL PHYSICS, 110 (6), 2810-2821 (1999). 
 A reciprocal space based method for treating long range interactions in
 ab initio and force-field-based calculations in clusters.
 https://doi.org/10.1063/1.477923

 Hartwigsen, C; Goedecker, S; Hutter, J. 
 PHYSICAL REVIEW B, 58 (7), 3641-3662 (1998). 
 Relativistic separable dual-space Gaussian pseudopotentials from H to Rn.
 https://doi.org/10.1103/PhysRevB.58.3641

 Lippert, G; Hutter, J; Parrinello, M. 
 MOLECULAR PHYSICS, 92 (3), 477-487 (1997). 
 A hybrid Gaussian and plane wave density functional scheme.
 https://doi.org/10.1080/002689797170220

 Perdew, JP; Burke, K; Ernzerhof, M. 
 PHYSICAL REVIEW LETTERS, 77 (18), 3865-3868 (1996). 
 Generalized gradient approximation made simple.
 https://doi.org/10.1103/PhysRevLett.77.3865

 Goedecker, S; Teter, M; Hutter, J. 
 PHYSICAL REVIEW B, 54 (3), 1703-1710 (1996). 
 Separable dual-space Gaussian pseudopotentials.
 https://doi.org/10.1103/PhysRevB.54.1703


 -------------------------------------------------------------------------------
 -                                                                             -
 -                                T I M I N G                                  -
 -                                                                             -
 -------------------------------------------------------------------------------
 SUBROUTINE                       CALLS  ASD         SELF TIME        TOTAL TIME
                                MAXIMUM       AVERAGE  MAXIMUM  AVERAGE  MAXIMUM
 CP2K                                 1  1.0    0.860    1.019  327.127  327.140
 qs_energies                          1  2.0    0.000    0.000  325.883  325.896
 scf_env_do_scf                       1  3.0    0.000    0.000  325.658  325.671
 qs_ks_update_qs_env                 19  5.0    0.000    0.000  322.486  322.498
 rebuild_ks_matrix                   17  6.0    0.000    0.000  322.484  322.495
 qs_ks_build_kohn_sham_matrix        17  7.0    0.003    0.003  322.484  322.495
 hfx_ks_matrix                       17  8.0    0.001    0.001  315.900  315.912
 integrate_four_center               17  9.0    0.042    0.053  315.898  315.911
 integrate_four_center_main          17 10.0    0.004    0.005  269.064  291.806
 integrate_four_center_bin         1887 11.0  269.060  291.802  269.060  291.802
 scf_env_do_scf_inner_loop           17  4.0    0.001    0.002  199.171  199.179
 init_scf_loop                        2  4.0    0.000    0.000  126.485  126.491
 mp_sync                            106 10.8   25.574  109.172   25.574  109.172
 calc_screening_functions             1 10.0   18.479   18.782   19.096   19.399
 -------------------------------------------------------------------------------

 The number of warnings for this run is : 0
 
 -------------------------------------------------------------------------------
  **** **** ******  **  PROGRAM ENDED AT                 2020-11-30 13:27:45.752
 ***** ** ***  *** **   PROGRAM RAN ON                                   tcopt10
 **    ****   ******    PROGRAM RAN BY                                    hutter
 ***** **    ** ** **   PROGRAM PROCESS ID                                 87957
  **** **  *******  **  PROGRAM STOPPED IN /data/hutter/GITHUB/BASIS/MOLOPT/PBE0
                                           /hbcnof
