 DBCSR| CPU Multiplication driver                                           XSMM
 DBCSR| Multrec recursion limit                                              512
 DBCSR| Multiplication stack size                                           1000
 DBCSR| Maximum elements for images                                    UNLIMITED
 DBCSR| Multiplicative factor virtual images                                   1
 DBCSR| Use multiplication densification                                       T
 DBCSR| Multiplication size stacks                                             3
 DBCSR| Use memory pool for CPU allocation                                     F
 DBCSR| Number of 3D layers                                               SINGLE
 DBCSR| Use MPI memory allocation                                              F
 DBCSR| Use RMA algorithm                                                      F
 DBCSR| Use Communication thread                                               T
 DBCSR| Communication thread load                                             87
 DBCSR| Split modifier for TAS multiplication algorithm                  1.0E+00


  **** **** ******  **  PROGRAM STARTED AT               2020-11-30 14:35:16.268
 ***** ** ***  *** **   PROGRAM STARTED ON                               tcopt10
 **    ****   ******    PROGRAM STARTED BY                                hutter
 ***** **    ** ** **   PROGRAM PROCESS ID                                 95334
  **** **  *******  **  PROGRAM STARTED IN /data/hutter/GITHUB/BASIS/MOLOPT/PBE0
                                           /hbcnof

 CP2K| version string:                    CP2K version 8.0 (Development Version)
 CP2K| source code revision number:                                  git:afc71fa
 CP2K| cp2kflags: omp libint fftw3 libxc elpa parallel mpi3 scalapack xsmm spgli
 CP2K|            b sirius
 CP2K| is freely available from                            https://www.cp2k.org/
 CP2K| Program compiled at                          Tue Nov 17 10:27:14 CET 2020
 CP2K| Program compiled on                                               tcopt10
 CP2K| Program compiled for                                                local
 CP2K| Data directory path                 /data/hutter/GITHUB/CURRENT/cp2k/data
 CP2K| Input file name                                             C5H5N-ref.inp

 GLOBAL| Force Environment number                                              1
 GLOBAL| Basis set file name                                  ../PBE0_UCSEGBASIS
 GLOBAL| Potential file name                                        ../POTENTIAL
 GLOBAL| MM Potential file name                                     MM_POTENTIAL
 GLOBAL| Coordinate file name                                      __STD_INPUT__
 GLOBAL| Method name                                                        CP2K
 GLOBAL| Project name                                                   refC5H5N
 GLOBAL| Preferred FFT library                                             FFTW3
 GLOBAL| Preferred diagonalization lib.                                     ELPA
 GLOBAL| Run type                                                         ENERGY
 GLOBAL| All-to-all communication in single precision                          F
 GLOBAL| FFTs using library dependent lengths                                  F
 GLOBAL| Global print level                                               MEDIUM
 GLOBAL| MPI I/O enabled                                                       T
 GLOBAL| Total number of message passing processes                            36
 GLOBAL| Number of threads for this process                                    1
 GLOBAL| This output is from process                                           0
 GLOBAL| CPU model name                          AMD EPYC 7401 24-Core Processor
 GLOBAL| CPUID                                                              1002

 MEMORY| system memory details [Kb]
 MEMORY|                        rank 0           min           max       average
 MEMORY| MemTotal            263987256     263987256     263987256     263987256
 MEMORY| MemFree             259382800     259382800     259382800     259382800
 MEMORY| Buffers                    32            32            32            32
 MEMORY| Cached                 975804        975804        975804        975804
 MEMORY| Slab                   784724        784724        784724        784724
 MEMORY| SReclaimable           285868        285868        285868        285868
 MEMORY| MemLikelyFree       260644504     260644504     260644504     260644504


 *** Fundamental physical constants (SI units) ***

 *** Literature: B. J. Mohr and B. N. Taylor,
 ***             CODATA recommended values of the fundamental physical
 ***             constants: 2006, Web Version 5.1
 ***             http://physics.nist.gov/constants

 Speed of light in vacuum [m/s]                             2.99792458000000E+08
 Magnetic constant or permeability of vacuum [N/A**2]       1.25663706143592E-06
 Electric constant or permittivity of vacuum [F/m]          8.85418781762039E-12
 Planck constant (h) [J*s]                                  6.62606896000000E-34
 Planck constant (h-bar) [J*s]                              1.05457162825177E-34
 Elementary charge [C]                                      1.60217648700000E-19
 Electron mass [kg]                                         9.10938215000000E-31
 Electron g factor [ ]                                     -2.00231930436220E+00
 Proton mass [kg]                                           1.67262163700000E-27
 Fine-structure constant                                    7.29735253760000E-03
 Rydberg constant [1/m]                                     1.09737315685270E+07
 Avogadro constant [1/mol]                                  6.02214179000000E+23
 Boltzmann constant [J/K]                                   1.38065040000000E-23
 Atomic mass unit [kg]                                      1.66053878200000E-27
 Bohr radius [m]                                            5.29177208590000E-11

 *** Conversion factors ***

 [u] -> [a.u.]                                              1.82288848426455E+03
 [Angstrom] -> [Bohr] = [a.u.]                              1.88972613288564E+00
 [a.u.] = [Bohr] -> [Angstrom]                              5.29177208590000E-01
 [a.u.] -> [s]                                              2.41888432650478E-17
 [a.u.] -> [fs]                                             2.41888432650478E-02
 [a.u.] -> [J]                                              4.35974393937059E-18
 [a.u.] -> [N]                                              8.23872205491840E-08
 [a.u.] -> [K]                                              3.15774647902944E+05
 [a.u.] -> [kJ/mol]                                         2.62549961709828E+03
 [a.u.] -> [kcal/mol]                                       6.27509468713739E+02
 [a.u.] -> [Pa]                                             2.94210107994716E+13
 [a.u.] -> [bar]                                            2.94210107994716E+08
 [a.u.] -> [atm]                                            2.90362800883016E+08
 [a.u.] -> [eV]                                             2.72113838565563E+01
 [a.u.] -> [Hz]                                             6.57968392072181E+15
 [a.u.] -> [1/cm] (wave numbers)                            2.19474631370540E+05
 [a.u./Bohr**2] -> [1/cm]                                   5.14048714338585E+03
 

 CELL_TOP| Volume [angstrom^3]:                                      1728.000000
 CELL_TOP| Vector a [angstrom    12.000     0.000     0.000   |a| =    12.000000
 CELL_TOP| Vector b [angstrom     0.000    12.000     0.000   |b| =    12.000000
 CELL_TOP| Vector c [angstrom     0.000     0.000    12.000   |c| =    12.000000
 CELL_TOP| Angle (b,c), alpha [degree]:                                90.000000
 CELL_TOP| Angle (a,c), beta  [degree]:                                90.000000
 CELL_TOP| Angle (a,b), gamma [degree]:                                90.000000
 CELL_TOP| Numerically orthorhombic:                                         YES

 GENERATE|  Preliminary Number of Bonds generated:                             0
 GENERATE|  Achieved consistency in connectivity generation.

 CELL| Volume [angstrom^3]:                                          1728.000000
 CELL| Vector a [angstrom]:      12.000     0.000     0.000   |a| =    12.000000
 CELL| Vector b [angstrom]:       0.000    12.000     0.000   |b| =    12.000000
 CELL| Vector c [angstrom]:       0.000     0.000    12.000   |c| =    12.000000
 CELL| Angle (b,c), alpha [degree]:                                    90.000000
 CELL| Angle (a,c), beta  [degree]:                                    90.000000
 CELL| Angle (a,b), gamma [degree]:                                    90.000000
 CELL| Numerically orthorhombic:                                             YES

 CELL_REF| Volume [angstrom^3]:                                      1728.000000
 CELL_REF| Vector a [angstrom    12.000     0.000     0.000   |a| =    12.000000
 CELL_REF| Vector b [angstrom     0.000    12.000     0.000   |b| =    12.000000
 CELL_REF| Vector c [angstrom     0.000     0.000    12.000   |c| =    12.000000
 CELL_REF| Angle (b,c), alpha [degree]:                                90.000000
 CELL_REF| Angle (a,c), beta  [degree]:                                90.000000
 CELL_REF| Angle (a,b), gamma [degree]:                                90.000000
 CELL_REF| Numerically orthorhombic:                                         YES

 *******************************************************************************
 *******************************************************************************
 **                                                                           **
 **     #####                         ##              ##                      **
 **    ##   ##            ##          ##              ##                      **
 **   ##     ##                       ##            ######                    **
 **   ##     ##  ##   ##  ##   #####  ##  ##   ####   ##    #####    #####    **
 **   ##     ##  ##   ##  ##  ##      ## ##   ##      ##   ##   ##  ##   ##   **
 **   ##  ## ##  ##   ##  ##  ##      ####     ###    ##   ######   ######    **
 **    ##  ###   ##   ##  ##  ##      ## ##      ##   ##   ##       ##        **
 **     #######   #####   ##   #####  ##  ##  ####    ##    #####   ##        **
 **           ##                                                    ##        **
 **                                                                           **
 **                                                ... make the atoms dance   **
 **                                                                           **
 **            Copyright (C) by CP2K developers group (2000 - 2020)           **
 **                      J. Chem. Phys. 152, 194103 (2020)                    **
 **                                                                           **
 *******************************************************************************

 DFT| Spin restricted Kohn-Sham (RKS) calculation                            RKS
 DFT| Multiplicity                                                             1
 DFT| Number of spin states                                                    1
 DFT| Charge                                                                   0
 DFT| Self-interaction correction (SIC)                                       NO
 DFT| Cutoffs: density                                              1.000000E-10
 DFT|          gradient                                             1.000000E-10
 DFT|          tau                                                  1.000000E-10
 DFT|          cutoff_smoothing_range                               0.000000E+00
 DFT| XC density smoothing                                                  NONE
 DFT| XC derivatives                                                          PW
 FUNCTIONAL| ROUTINE=NEW
 FUNCTIONAL| PBE:
 FUNCTIONAL| J.P.Perdew, K.Burke, M.Ernzerhof, Phys. Rev. Letter, vol. 77, n 18,
 FUNCTIONAL|  pp. 3865-3868, (1996)sx=0.750sc=1.000{spin unpolarized}           

 QS| Method:                                                                 GPW
 QS| Density plane wave grid type                        NON-SPHERICAL FULLSPACE
 QS| Number of grid levels:                                                    4
 QS| Density cutoff [a.u.]:                                                300.0
 QS| Multi grid cutoff [a.u.]: 1) grid level                               300.0
 QS|                           2) grid level                               100.0
 QS|                           3) grid level                                33.3
 QS|                           4) grid level                                11.1
 QS| Grid level progression factor:                                          3.0
 QS| Relative density cutoff [a.u.]:                                        30.0
 QS| Interaction thresholds: eps_pgf_orb:                                1.0E-06
 QS|                         eps_filter_matrix:                          0.0E+00
 QS|                         eps_core_charge:                            1.0E-14
 QS|                         eps_rho_gspace:                             1.0E-12
 QS|                         eps_rho_rspace:                             1.0E-12
 QS|                         eps_gvg_rspace:                             1.0E-06
 QS|                         eps_ppl:                                    1.0E-02
 QS|                         eps_ppnl:                                   1.0E-08


 ATOMIC KIND INFORMATION

  1. Atomic kind: N                                     Number of atoms:       1

     Orbital Basis Set                                                 uc-bas-q5

       Number of orbital shell sets:                                          12
       Number of orbital shells:                                              20
       Number of primitive Cartesian functions:                               12
       Number of Cartesian basis functions:                                   56
       Number of spherical basis functions:                                   52
       Norm type:                                                              2

       Normalised Cartesian orbitals:

                        Set   Shell   Orbital            Exponent    Coefficient

                          1       1    1s               17.999870       6.228194

                          1       2    2px              17.999870      52.847787
                          1       2    2py              17.999870      52.847787
                          1       2    2pz              17.999870      52.847787

                          2       1    1s                7.972028       3.381323

                          2       2    2px               7.972028      19.094185
                          2       2    2py               7.972028      19.094185
                          2       2    2pz               7.972028      19.094185

                          3       1    1s                3.530761       1.835741

                          3       2    2px               3.530761       6.898830
                          3       2    2py               3.530761       6.898830
                          3       2    2pz               3.530761       6.898830

                          4       1    1s                1.563752       0.996634

                          4       2    2px               1.563752       2.492584
                          4       2    2py               1.563752       2.492584
                          4       2    2pz               1.563752       2.492584

                          5       1    1s                0.692576       0.541079

                          5       2    2px               0.692576       0.900584
                          5       2    2py               0.692576       0.900584
                          5       2    2pz               0.692576       0.900584

                          6       1    1s                0.306737       0.293755

                          6       2    2px               0.306737       0.325386
                          6       2    2py               0.306737       0.325386
                          6       2    2pz               0.306737       0.325386

                          7       1    1s                0.135852       0.159481

                          7       2    2px               0.135852       0.117564
                          7       2    2py               0.135852       0.117564
                          7       2    2pz               0.135852       0.117564

                          8       1    1s                0.060168       0.086583

                          8       2    2px               0.060168       0.042476
                          8       2    2py               0.060168       0.042476
                          8       2    2pz               0.060168       0.042476

                          9       1    1dx2              1.563752       3.599175
                          9       1    1dxy              1.563752       6.233955
                          9       1    1dxz              1.563752       6.233955
                          9       1    1dy2              1.563752       3.599175
                          9       1    1dyz              1.563752       6.233955
                          9       1    1dz2              1.563752       3.599175

                         10       1    1dx2              0.692576       0.865420
                         10       1    1dxy              0.692576       1.498952
                         10       1    1dxz              0.692576       1.498952
                         10       1    1dy2              0.692576       0.865420
                         10       1    1dyz              0.692576       1.498952
                         10       1    1dz2              0.692576       0.865420

                         11       1    1dx2              0.306737       0.208090
                         11       1    1dxy              0.306737       0.360422
                         11       1    1dxz              0.306737       0.360422
                         11       1    1dy2              0.306737       0.208090
                         11       1    1dyz              0.306737       0.360422
                         11       1    1dz2              0.306737       0.208090

                         12       1    1dx2              0.135852       0.050035
                         12       1    1dxy              0.135852       0.086663
                         12       1    1dxz              0.135852       0.086663
                         12       1    1dy2              0.135852       0.050035
                         12       1    1dyz              0.135852       0.086663
                         12       1    1dz2              0.135852       0.050035

     GTH Potential information for                                   GTH-PBE0-q5

       Description:                       Goedecker-Teter-Hutter pseudopotential
                                           Goedecker et al., PRB 54, 1703 (1996)
                                          Hartwigsen et al., PRB 58, 3641 (1998)
                                                      Krack, TCA 114, 145 (2005)

       Gaussian exponent of the core charge distribution:               6.196924
       Electronic configuration (s p d ...):                       2   3   0   0

       Parameters of the local part of the GTH pseudopotential:

                          rloc        C1          C2          C3          C4
                        0.284051  -12.396524    1.863724

       Parameters of the non-local part of the GTH pseudopotential:

                   l      r(l)      h(i,j,l)

                   0    0.255381   13.630734

  2. Atomic kind: C                                     Number of atoms:       5

     Orbital Basis Set                                                 uc-bas-q4

       Number of orbital shell sets:                                          12
       Number of orbital shells:                                              28
       Number of primitive Cartesian functions:                               12
       Number of Cartesian basis functions:                                  156
       Number of spherical basis functions:                                  116
       Norm type:                                                              2

       Normalised Cartesian orbitals:

                        Set   Shell   Orbital            Exponent    Coefficient

                          1       1    1s               12.304192       4.682199

                          1       2    2px              12.304192      32.847812
                          1       2    2py              12.304192      32.847812
                          1       2    2pz              12.304192      32.847812

                          2       1    1s                5.473196       2.550297

                          2       2    2px               5.473196      11.932771
                          2       2    2py               5.473196      11.932771
                          2       2    2pz               5.473196      11.932771

                          3       1    1s                2.434607       1.389094

                          3       2    2px               2.434607       4.334871
                          3       2    2py               2.434607       4.334871
                          3       2    2pz               2.434607       4.334871

                          4       1    1s                1.082971       0.756611

                          4       2    2px               1.082971       1.574748
                          4       2    2py               1.082971       1.574748
                          4       2    2pz               1.082971       1.574748

                          5       1    1s                0.481731       0.412110

                          5       2    2px               0.481731       0.572066
                          5       2    2py               0.481731       0.572066
                          5       2    2pz               0.481731       0.572066

                          6       1    1s                0.214285       0.224468

                          6       2    2px               0.214285       0.207817
                          6       2    2py               0.214285       0.207817
                          6       2    2pz               0.214285       0.207817

                          7       1    1s                0.095319       0.122263

                          7       2    2px               0.095319       0.075495
                          7       2    2py               0.095319       0.075495
                          7       2    2pz               0.095319       0.075495

                          8       1    1s                0.042400       0.066594

                          8       2    2px               0.042400       0.027425
                          8       2    2py               0.042400       0.027425
                          8       2    2pz               0.042400       0.027425

                          9       1    1dx2              1.082971       1.892295
                          9       1    1dxy              1.082971       3.277551
                          9       1    1dxz              1.082971       3.277551
                          9       1    1dy2              1.082971       1.892295
                          9       1    1dyz              1.082971       3.277551
                          9       1    1dz2              1.082971       1.892295

                          9       2    2fx3              1.082971       1.761336
                          9       2    2fx2y             1.082971       3.938466
                          9       2    2fx2z             1.082971       3.938466
                          9       2    2fxy2             1.082971       3.938466
                          9       2    2fxyz             1.082971       6.821624
                          9       2    2fxz2             1.082971       3.938466
                          9       2    2fy3              1.082971       1.761336
                          9       2    2fy2z             1.082971       3.938466
                          9       2    2fyz2             1.082971       3.938466
                          9       2    2fz3              1.082971       1.761336

                          9       3    3gx4              1.082971       1.385580
                          9       3    3gx3y             1.082971       3.665899
                          9       3    3gx3z             1.082971       3.665899
                          9       3    3gx2y2            1.082971       4.732655
                          9       3    3gx2yz            1.082971       8.197200
                          9       3    3gx2z2            1.082971       4.732655
                          9       3    3gxy3             1.082971       3.665899
                          9       3    3gxy2z            1.082971       8.197200
                          9       3    3gxyz2            1.082971       8.197200
                          9       3    3gxz3             1.082971       3.665899
                          9       3    3gy4              1.082971       1.385580
                          9       3    3gy3z             1.082971       3.665899
                          9       3    3gy2z2            1.082971       4.732655
                          9       3    3gyz3             1.082971       3.665899
                          9       3    3gz4              1.082971       1.385580

                         10       1    1dx2              0.481731       0.458477
                         10       1    1dxy              0.481731       0.794106
                         10       1    1dxz              0.481731       0.794106
                         10       1    1dy2              0.481731       0.458477
                         10       1    1dyz              0.481731       0.794106
                         10       1    1dz2              0.481731       0.458477

                         10       2    2fx3              0.481731       0.284620
                         10       2    2fx2y             0.481731       0.636429
                         10       2    2fx2z             0.481731       0.636429
                         10       2    2fxy2             0.481731       0.636429
                         10       2    2fxyz             0.481731       1.102327
                         10       2    2fxz2             0.481731       0.636429
                         10       2    2fy3              0.481731       0.284620
                         10       2    2fy2z             0.481731       0.636429
                         10       2    2fyz2             0.481731       0.636429
                         10       2    2fz3              0.481731       0.284620

                         10       3    3gx4              0.481731       0.149330
                         10       3    3gx3y             0.481731       0.395091
                         10       3    3gx3z             0.481731       0.395091
                         10       3    3gx2y2            0.481731       0.510060
                         10       3    3gx2yz            0.481731       0.883450
                         10       3    3gx2z2            0.481731       0.510060
                         10       3    3gxy3             0.481731       0.395091
                         10       3    3gxy2z            0.481731       0.883450
                         10       3    3gxyz2            0.481731       0.883450
                         10       3    3gxz3             0.481731       0.395091
                         10       3    3gy4              0.481731       0.149330
                         10       3    3gy3z             0.481731       0.395091
                         10       3    3gy2z2            0.481731       0.510060
                         10       3    3gyz3             0.481731       0.395091
                         10       3    3gz4              0.481731       0.149330

                         11       1    1dx2              0.214285       0.111083
                         11       1    1dxy              0.214285       0.192401
                         11       1    1dxz              0.214285       0.192401
                         11       1    1dy2              0.214285       0.111083
                         11       1    1dyz              0.214285       0.192401
                         11       1    1dz2              0.214285       0.111083

                         11       2    2fx3              0.214285       0.045993
                         11       2    2fx2y             0.214285       0.102843
                         11       2    2fx2z             0.214285       0.102843
                         11       2    2fxy2             0.214285       0.102843
                         11       2    2fxyz             0.214285       0.178128
                         11       2    2fxz2             0.214285       0.102843
                         11       2    2fy3              0.214285       0.045993
                         11       2    2fy2z             0.214285       0.102843
                         11       2    2fyz2             0.214285       0.102843
                         11       2    2fz3              0.214285       0.045993

                         11       3    3gx4              0.214285       0.016094
                         11       3    3gx3y             0.214285       0.042581
                         11       3    3gx3z             0.214285       0.042581
                         11       3    3gx2y2            0.214285       0.054972
                         11       3    3gx2yz            0.214285       0.095214
                         11       3    3gx2z2            0.214285       0.054972
                         11       3    3gxy3             0.214285       0.042581
                         11       3    3gxy2z            0.214285       0.095214
                         11       3    3gxyz2            0.214285       0.095214
                         11       3    3gxz3             0.214285       0.042581
                         11       3    3gy4              0.214285       0.016094
                         11       3    3gy3z             0.214285       0.042581
                         11       3    3gy2z2            0.214285       0.054972
                         11       3    3gyz3             0.214285       0.042581
                         11       3    3gz4              0.214285       0.016094

                         12       1    1dx2              0.095319       0.026914
                         12       1    1dxy              0.095319       0.046616
                         12       1    1dxz              0.095319       0.046616
                         12       1    1dy2              0.095319       0.026914
                         12       1    1dyz              0.095319       0.046616
                         12       1    1dz2              0.095319       0.026914

                         12       2    2fx3              0.095319       0.007432
                         12       2    2fx2y             0.095319       0.016619
                         12       2    2fx2z             0.095319       0.016619
                         12       2    2fxy2             0.095319       0.016619
                         12       2    2fxyz             0.095319       0.028784
                         12       2    2fxz2             0.095319       0.016619
                         12       2    2fy3              0.095319       0.007432
                         12       2    2fy2z             0.095319       0.016619
                         12       2    2fyz2             0.095319       0.016619
                         12       2    2fz3              0.095319       0.007432

                         12       3    3gx4              0.095319       0.001735
                         12       3    3gx3y             0.095319       0.004589
                         12       3    3gx3z             0.095319       0.004589
                         12       3    3gx2y2            0.095319       0.005925
                         12       3    3gx2yz            0.095319       0.010262
                         12       3    3gx2z2            0.095319       0.005925
                         12       3    3gxy3             0.095319       0.004589
                         12       3    3gxy2z            0.095319       0.010262
                         12       3    3gxyz2            0.095319       0.010262
                         12       3    3gxz3             0.095319       0.004589
                         12       3    3gy4              0.095319       0.001735
                         12       3    3gy3z             0.095319       0.004589
                         12       3    3gy2z2            0.095319       0.005925
                         12       3    3gyz3             0.095319       0.004589
                         12       3    3gz4              0.095319       0.001735

     GTH Potential information for                                   GTH-PBE0-q4

       Description:                       Goedecker-Teter-Hutter pseudopotential
                                           Goedecker et al., PRB 54, 1703 (1996)
                                          Hartwigsen et al., PRB 58, 3641 (1998)
                                                      Krack, TCA 114, 145 (2005)

       Gaussian exponent of the core charge distribution:               4.321387
       Electronic configuration (s p d ...):                       2   2   0   0

       Parameters of the local part of the GTH pseudopotential:

                          rloc        C1          C2          C3          C4
                        0.340152   -8.756260    1.332124

       Parameters of the non-local part of the GTH pseudopotential:

                   l      r(l)      h(i,j,l)

                   0    0.302558    9.589804

  3. Atomic kind: H                                     Number of atoms:       5

     Orbital Basis Set                                                 uc-bas-q1

       Number of orbital shell sets:                                          12
       Number of orbital shells:                                              20
       Number of primitive Cartesian functions:                               12
       Number of Cartesian basis functions:                                   84
       Number of spherical basis functions:                                   68
       Norm type:                                                              2

       Normalised Cartesian orbitals:

                        Set   Shell   Orbital            Exponent    Coefficient

                          1       1    1s               12.800459       4.823133

                          2       1    1s                5.558785       2.580150

                          3       1    1s                2.413983       1.380260

                          4       1    1s                1.048307       0.738374

                          5       1    1s                0.455243       0.394996

                          6       1    1s                0.197696       0.211304

                          7       1    1s                0.085852       0.113038

                          8       1    1s                0.037283       0.060470

                          9       1    2px               1.048307       1.511997
                          9       1    2py               1.048307       1.511997
                          9       1    2pz               1.048307       1.511997

                          9       2    3dx2              1.048307       1.787576
                          9       2    3dxy              1.048307       3.096173
                          9       2    3dxz              1.048307       3.096173
                          9       2    3dy2              1.048307       1.787576
                          9       2    3dyz              1.048307       3.096173
                          9       2    3dz2              1.048307       1.787576

                          9       3    4fx3              1.048307       1.637020
                          9       3    4fx2y             1.048307       3.660488
                          9       3    4fx2z             1.048307       3.660488
                          9       3    4fxy2             1.048307       3.660488
                          9       3    4fxyz             1.048307       6.340151
                          9       3    4fxz2             1.048307       3.660488
                          9       3    4fy3              1.048307       1.637020
                          9       3    4fy2z             1.048307       3.660488
                          9       3    4fyz2             1.048307       3.660488
                          9       3    4fz3              1.048307       1.637020

                         10       1    2px               0.455243       0.533020
                         10       1    2py               0.455243       0.533020
                         10       1    2pz               0.455243       0.533020

                         10       2    3dx2              0.455243       0.415274
                         10       2    3dxy              0.455243       0.719276
                         10       2    3dxz              0.455243       0.719276
                         10       2    3dy2              0.455243       0.415274
                         10       2    3dyz              0.455243       0.719276
                         10       2    3dz2              0.455243       0.415274

                         10       3    4fx3              0.455243       0.250612
                         10       3    4fx2y             0.455243       0.560385
                         10       3    4fx2z             0.455243       0.560385
                         10       3    4fxy2             0.455243       0.560385
                         10       3    4fxyz             0.455243       0.970615
                         10       3    4fxz2             0.455243       0.560385
                         10       3    4fy3              0.455243       0.250612
                         10       3    4fy2z             0.455243       0.560385
                         10       3    4fyz2             0.455243       0.560385
                         10       3    4fz3              0.455243       0.250612

                         11       1    2px               0.197696       0.187904
                         11       1    2py               0.197696       0.187904
                         11       1    2pz               0.197696       0.187904

                         11       2    3dx2              0.197696       0.096473
                         11       2    3dxy              0.197696       0.167096
                         11       2    3dxz              0.197696       0.167096
                         11       2    3dy2              0.197696       0.096473
                         11       2    3dyz              0.197696       0.167096
                         11       2    3dz2              0.197696       0.096473

                         11       3    4fx3              0.197696       0.038366
                         11       3    4fx2y             0.197696       0.085789
                         11       3    4fx2z             0.197696       0.085789
                         11       3    4fxy2             0.197696       0.085789
                         11       3    4fxyz             0.197696       0.148592
                         11       3    4fxz2             0.197696       0.085789
                         11       3    4fy3              0.197696       0.038366
                         11       3    4fy2z             0.197696       0.085789
                         11       3    4fyz2             0.197696       0.085789
                         11       3    4fz3              0.197696       0.038366

                         12       1    2px               0.085852       0.066241
                         12       1    2py               0.085852       0.066241
                         12       1    2pz               0.085852       0.066241

                         12       2    3dx2              0.085852       0.022412
                         12       2    3dxy              0.085852       0.038818
                         12       2    3dxz              0.085852       0.038818
                         12       2    3dy2              0.085852       0.022412
                         12       2    3dyz              0.085852       0.038818
                         12       2    3dz2              0.085852       0.022412

                         12       3    4fx3              0.085852       0.005873
                         12       3    4fx2y             0.085852       0.013134
                         12       3    4fx2z             0.085852       0.013134
                         12       3    4fxy2             0.085852       0.013134
                         12       3    4fxyz             0.085852       0.022748
                         12       3    4fxz2             0.085852       0.013134
                         12       3    4fy3              0.085852       0.005873
                         12       3    4fy2z             0.085852       0.013134
                         12       3    4fyz2             0.085852       0.013134
                         12       3    4fz3              0.085852       0.005873

     GTH Potential information for                                   GTH-PBE0-q1

       Description:                       Goedecker-Teter-Hutter pseudopotential
                                           Goedecker et al., PRB 54, 1703 (1996)
                                          Hartwigsen et al., PRB 58, 3641 (1998)
                                                      Krack, TCA 114, 145 (2005)

       Gaussian exponent of the core charge distribution:              12.438305
       Electronic configuration (s p d ...):                       1   0   0   0

       Parameters of the local part of the GTH pseudopotential:

                          rloc        C1          C2          C3          C4
                        0.200495   -4.177803    0.724039


 MOLECULE KIND INFORMATION


 All atoms are their own molecule, skipping detailed information


 TOTAL NUMBERS AND MAXIMUM NUMBERS

  Total number of            - Atomic kinds:                                   3
                             - Atoms:                                         11
                             - Shell sets:                                   132
                             - Shells:                                       260
                             - Primitive Cartesian functions:                132
                             - Cartesian basis functions:                   1256
                             - Spherical basis functions:                    972

  Maximum angular momentum of- Orbital basis functions:                        4
                             - Local part of the GTH pseudopotential:          2
                             - Non-local part of the GTH pseudopotential:      0


 MODULE QUICKSTEP:  ATOMIC COORDINATES IN angstrom

  Atom  Kind  Element       X           Y           Z          Z(eff)       Mass

       1     1 N    7    0.000000   -0.000000    1.420018      5.0000      14.0067
       2     2 C    6    0.000000    0.000000   -1.387309      4.0000      12.0107
       3     2 C    6    0.000000    1.144804    0.720645      4.0000      12.0107
       4     2 C    6    0.000000   -1.144804    0.720645      4.0000      12.0107
       5     2 C    6    0.000000    1.198773   -0.674673      4.0000      12.0107
       6     2 C    6    0.000000   -1.198773   -0.674673      4.0000      12.0107
       7     3 H    1    0.000000    0.000000   -2.477498      1.0000       1.0079
       8     3 H    1    0.000000    2.066059    1.309407      1.0000       1.0079
       9     3 H    1    0.000000   -2.066059    1.309407      1.0000       1.0079
      10     3 H    1    0.000000    2.160862   -1.186692      1.0000       1.0079
      11     3 H    1    0.000000   -2.160862   -1.186692      1.0000       1.0079




 SCF PARAMETERS         Density guess:                                    ATOMIC
                        --------------------------------------------------------
                        max_scf:                                              10
                        max_scf_history:                                       0
                        max_diis:                                              4
                        --------------------------------------------------------
                        eps_scf:                                        1.00E-07
                        eps_scf_history:                                0.00E+00
                        eps_diis:                                       1.00E-01
                        eps_eigval:                                     1.00E-05
                        --------------------------------------------------------
                        level_shift [a.u.]:                                 0.00
                        --------------------------------------------------------
                        Outer loop SCF in use 
                        No variables optimised in outer loop
                        eps_scf                                         1.00E-07
                        max_scf                                               10
                        No outer loop optimization
                        step_size                                       5.00E-01

 PW_GRID| Information for grid number                                          1
 PW_GRID| Grid distributed over                                    36 processors
 PW_GRID| Real space group dimensions                                    36    1
 PW_GRID| the grid is blocked:                                                NO
 PW_GRID| Cutoff [a.u.]                                                    600.0
 PW_GRID| spherical cutoff:                                                   NO
 PW_GRID|   Bounds   1           -128     127                Points:         256
 PW_GRID|   Bounds   2           -128     127                Points:         256
 PW_GRID|   Bounds   3           -128     127                Points:         256
 PW_GRID| Volume element (a.u.^3)  0.6951E-03     Volume (a.u.^3)     11661.1222
 PW_GRID| Grid span                                                    FULLSPACE
 PW_GRID|   Distribution                         Average         Max         Min
 PW_GRID|   G-Vectors                           466033.8      466176      465920
 PW_GRID|   G-Rays                                1820.4        1821        1820
 PW_GRID|   Real Space Points                   466033.8      524288      458752

 PW_GRID| Information for grid number                                          2
 PW_GRID| Number of the reference grid                                         1
 PW_GRID| Grid distributed over                                    36 processors
 PW_GRID| Real space group dimensions                                    36    1
 PW_GRID| the grid is blocked:                                                NO
 PW_GRID| Cutoff [a.u.]                                                    300.0
 PW_GRID| spherical cutoff:                                                   NO
 PW_GRID|   Bounds   1            -90      89                Points:         180
 PW_GRID|   Bounds   2            -90      89                Points:         180
 PW_GRID|   Bounds   3            -90      89                Points:         180
 PW_GRID| Volume element (a.u.^3)  0.2000E-02     Volume (a.u.^3)     11661.1222
 PW_GRID| Grid span                                                    FULLSPACE
 PW_GRID|   Distribution                         Average         Max         Min
 PW_GRID|   G-Vectors                           162000.0      162540      161640
 PW_GRID|   G-Rays                                 900.0         903         898
 PW_GRID|   Real Space Points                   162000.0      162000      162000

 PW_GRID| Information for grid number                                          3
 PW_GRID| Number of the reference grid                                         2
 PW_GRID| Grid distributed over                                    36 processors
 PW_GRID| Real space group dimensions                                    36    1
 PW_GRID| the grid is blocked:                                                NO
 PW_GRID| Cutoff [a.u.]                                                    100.0
 PW_GRID| spherical cutoff:                                                   NO
 PW_GRID|   Bounds   1            -54      53                Points:         108
 PW_GRID|   Bounds   2            -54      53                Points:         108
 PW_GRID|   Bounds   3            -54      53                Points:         108
 PW_GRID| Volume element (a.u.^3)  0.9257E-02     Volume (a.u.^3)     11661.1222
 PW_GRID| Grid span                                                    FULLSPACE
 PW_GRID|   Distribution                         Average         Max         Min
 PW_GRID|   G-Vectors                            34992.0       35316       34776
 PW_GRID|   G-Rays                                 324.0         327         322
 PW_GRID|   Real Space Points                    34992.0       34992       34992

 PW_GRID| Information for grid number                                          4
 PW_GRID| Number of the reference grid                                         2
 PW_GRID| Grid distributed over                                    36 processors
 PW_GRID| Real space group dimensions                                    36    1
 PW_GRID| the grid is blocked:                                                NO
 PW_GRID| Cutoff [a.u.]                                                     33.3
 PW_GRID| spherical cutoff:                                                   NO
 PW_GRID|   Bounds   1            -30      29                Points:          60
 PW_GRID|   Bounds   2            -30      29                Points:          60
 PW_GRID|   Bounds   3            -30      29                Points:          60
 PW_GRID| Volume element (a.u.^3)  0.5399E-01     Volume (a.u.^3)     11661.1222
 PW_GRID| Grid span                                                    FULLSPACE
 PW_GRID|   Distribution                         Average         Max         Min
 PW_GRID|   G-Vectors                             6000.0        6060        5940
 PW_GRID|   G-Rays                                 100.0         101          99
 PW_GRID|   Real Space Points                     6000.0        7200        3600

 PW_GRID| Information for grid number                                          5
 PW_GRID| Number of the reference grid                                         2
 PW_GRID| Grid distributed over                                    36 processors
 PW_GRID| Real space group dimensions                                    36    1
 PW_GRID| the grid is blocked:                                                NO
 PW_GRID| Cutoff [a.u.]                                                     11.1
 PW_GRID| spherical cutoff:                                                   NO
 PW_GRID|   Bounds   1            -18      17                Points:          36
 PW_GRID|   Bounds   2            -18      17                Points:          36
 PW_GRID|   Bounds   3            -18      17                Points:          36
 PW_GRID| Volume element (a.u.^3)  0.2499         Volume (a.u.^3)     11661.1222
 PW_GRID| Grid span                                                    FULLSPACE
 PW_GRID|   Distribution                         Average         Max         Min
 PW_GRID|   G-Vectors                             1296.0        1404        1224
 PW_GRID|   G-Rays                                  36.0          39          34
 PW_GRID|   Real Space Points                     1296.0        1296        1296

 POISSON| Solver                                          Martyna-Tuckerman (MT)
 POISSON| MT| Alpha                                                        7.000
 POISSON| MT| Relative cutoff                                                2.0
 POISSON| Periodicity                                                       NONE

 RS_GRID| Information for grid number                                          2
 RS_GRID|   Bounds   1            -90      89                Points:         180
 RS_GRID|   Bounds   2            -90      89                Points:         180
 RS_GRID|   Bounds   3            -90      89                Points:         180
 RS_GRID| Real space distribution over                                  6 groups
 RS_GRID| Real space distribution along direction                              2
 RS_GRID| Border size                                                         27
 RS_GRID| Real space distribution over                                  6 groups
 RS_GRID| Real space distribution along direction                              3
 RS_GRID| Border size                                                         27
 RS_GRID|   Distribution                         Average         Max         Min
 RS_GRID|   Planes                                  84.0          84          84
 RS_GRID|   Distribution                         Average         Max         Min
 RS_GRID|   Planes                                  84.0          84          84

 RS_GRID| Information for grid number                                          3
 RS_GRID|   Bounds   1            -54      53                Points:         108
 RS_GRID|   Bounds   2            -54      53                Points:         108
 RS_GRID|   Bounds   3            -54      53                Points:         108
 RS_GRID| Real space fully replicated
 RS_GRID| Group size                                                           1

 RS_GRID| Information for grid number                                          4
 RS_GRID|   Bounds   1            -30      29                Points:          60
 RS_GRID|   Bounds   2            -30      29                Points:          60
 RS_GRID|   Bounds   3            -30      29                Points:          60
 RS_GRID| Real space fully replicated
 RS_GRID| Group size                                                           1

 RS_GRID| Information for grid number                                          5
 RS_GRID|   Bounds   1            -18      17                Points:          36
 RS_GRID|   Bounds   2            -18      17                Points:          36
 RS_GRID|   Bounds   3            -18      17                Points:          36
 RS_GRID| Real space fully replicated
 RS_GRID| Group size                                                           1

  HFX_INFO| Replica ID:                                                        1
  HFX_INFO| FRACTION:                                               0.2500000000
  HFX_INFO| Interaction Potential:                                       COULOMB
  HFX_INFO| EPS_SCHWARZ:                                                 1.0E-14
  HFX_INFO| EPS_SCHWARZ_FORCES                                           1.0E-06
  HFX_INFO| EPS_STORAGE_SCALING:                                         1.0E+00
  HFX_INFO| NBINS:                                                            64
  HFX_INFO| BLOCK_SIZE:                                                        1
  HFX_INFO| Number of periodic shells considered:                           NONE
  HFX_INFO| Number of periodic cells considered:                            NONE


 Number of electrons:                                                         30
 Number of occupied orbitals:                                                 15
 Number of molecular orbitals:                                                15

 Number of orbital functions:                                                972
 Number of independent orbital functions:                                    972

 Extrapolation method: initial_guess

 Atomic guess: The first density matrix is obtained in terms of atomic orbitals
               and electronic configurations assigned to each atomic kind

 Guess for atomic kind: N

 Electronic structure
    Total number of core electrons                                          2.00
    Total number of valence electrons                                       5.00
    Total number of electrons                                               7.00
    Multiplicity                                                   not specified
    S   [  2.00] 2.00
    P      3.00


 *******************************************************************************
                  Iteration          Convergence                     Energy [au]
 *******************************************************************************
                          1        0.312088                      -9.511195990562
                          2        0.296040                      -9.518680955260
                          3        0.744154E-02                  -9.547737030452
                          4        0.583494E-03                  -9.547769388934
                          5        0.802219E-05                  -9.547769485727
                          6        0.509676E-07                  -9.547769485756

 Energy components [Hartree]           Total Energy ::           -9.547769485756
                                        Band Energy ::           -2.055885802470
                                     Kinetic Energy ::            6.750470172892
                                   Potential Energy ::          -16.298239658648
                                      Virial (-V/T) ::            2.414385848870
                                        Core Energy ::          -15.544842151449
                                          XC Energy ::           -2.163268731527
                                     Coulomb Energy ::            8.160341397220
                       Total Pseudopotential Energy ::          -22.332490097568
                       Local Pseudopotential Energy ::          -23.278484105744
                    Nonlocal Pseudopotential Energy ::            0.945994008176
                                        Confinement ::            0.371777732265

 Orbital energies  State     L     Occupation   Energy[a.u.]          Energy[eV]

                       1     0          2.000      -0.663940          -18.066734

                       1     1          3.000      -0.242668           -6.603343


 Total Electron Density at R=0:                                         0.000003

 Guess for atomic kind: C

 Electronic structure
    Total number of core electrons                                          2.00
    Total number of valence electrons                                       4.00
    Total number of electrons                                               6.00
    Multiplicity                                                   not specified
    S   [  2.00] 2.00
    P      2.00


 *******************************************************************************
                  Iteration          Convergence                     Energy [au]
 *******************************************************************************
                          1        0.104066                      -5.277514158479
                          2        0.783252E-01                  -5.282561003731
                          3        0.395924E-03                  -5.287853538787
                          4        0.156389E-03                  -5.287853695238
                          5        0.481157E-06                  -5.287853718232

 Energy components [Hartree]           Total Energy ::           -5.287853718232
                                        Band Energy ::           -1.318748254387
                                     Kinetic Energy ::            3.391422607345
                                   Potential Energy ::           -8.679276325577
                                      Virial (-V/T) ::            2.559184545972
                                        Core Energy ::           -8.301371298587
                                          XC Energy ::           -1.377957233345
                                     Coulomb Energy ::            4.391474813700
                       Total Pseudopotential Energy ::          -11.726913257231
                       Local Pseudopotential Energy ::          -12.376077062176
                    Nonlocal Pseudopotential Energy ::            0.649163804945
                                        Confinement ::            0.341193512987

 Orbital energies  State     L     Occupation   Energy[a.u.]          Energy[eV]

                       1     0          2.000      -0.485466          -13.210205

                       1     1          2.000      -0.173908           -4.732278


 Total Electron Density at R=0:                                         0.000010

 Guess for atomic kind: H

 Electronic structure
    Total number of core electrons                                          0.00
    Total number of valence electrons                                       1.00
    Total number of electrons                                               1.00
    Multiplicity                                                   not specified
    S      1.00


 *******************************************************************************
                  Iteration          Convergence                     Energy [au]
 *******************************************************************************
                          1        0.481119E-02                  -0.424930859262
                          2        0.399020E-03                  -0.424956390157
                          3        0.524171E-04                  -0.424956718765
                          4        0.204113E-06                  -0.424956722167

 Energy components [Hartree]           Total Energy ::           -0.424956722167
                                        Band Energy ::           -0.200233351412
                                     Kinetic Energy ::            0.459251989398
                                   Potential Energy ::           -0.884208711565
                                      Virial (-V/T) ::            1.925323639261
                                        Core Energy ::           -0.479861102176
                                          XC Energy ::           -0.243831006575
                                     Coulomb Energy ::            0.298735386583
                       Total Pseudopotential Energy ::           -0.958316441026
                       Local Pseudopotential Energy ::           -0.958316441026
                    Nonlocal Pseudopotential Energy ::            0.000000000000
                                        Confinement ::            0.192033494526

 Orbital energies  State     L     Occupation   Energy[a.u.]          Energy[eV]

                       1     0          1.000      -0.200233           -5.448627


 Total Electron Density at R=0:                                         0.233450
 Re-scaling the density matrix to get the right number of electrons
                  # Electrons              Trace(P)               Scaling factor
                           30                30.000                        1.000


 SCF WAVEFUNCTION OPTIMIZATION

  ----------------------------------- OT ---------------------------------------
  Minimizer      : DIIS                : direct inversion
                                         in the iterative subspace
                                         using   7 DIIS vectors
                                         safer DIIS on
  Preconditioner : FULL_ALL            : diagonalization, state selective
  Precond_solver : DEFAULT
  stepsize       :    0.15000000                  energy_gap     :    0.08000000
  eps_taylor     :   0.10000E-15                  max_taylor     :             4
  ----------------------------------- OT ---------------------------------------

  Step     Update method      Time    Convergence         Total energy    Change
  ------------------------------------------------------------------------------

  HFX_MEM_INFO| Est. max. program size before HFX [MiB]:                     281
  HFX_MEM_INFO| Number of cart. primitive ERI's calculated:         381698131021
  HFX_MEM_INFO| Number of sph. ERI's calculated:                    135407390531
  HFX_MEM_INFO| Number of sph. ERI's stored in-core:                 47494648841
  HFX_MEM_INFO| Number of sph. ERI's stored on disk:                           0
  HFX_MEM_INFO| Number of sph. ERI's calculated on the fly:          87912741690
  HFX_MEM_INFO| Total memory consumption ERI's RAM [MiB]:                 224082
  HFX_MEM_INFO| Whereof max-vals [MiB]:                                       10
  HFX_MEM_INFO| Total compression factor ERI's RAM:                         1.62
  HFX_MEM_INFO| Total memory consumption ERI's disk [MiB]:                     0
  HFX_MEM_INFO| Total compression factor ERI's disk:                        0.00
  HFX_MEM_INFO| Size of density/Fock matrix [MiB]:                             6
  HFX_MEM_INFO| Size of buffers [MiB]:                                         1
  HFX_MEM_INFO| Est. max. program size after HFX  [MiB]:                    7194

     1 OT DIIS     0.15E+00  266.4     0.05056164       -37.4971592670 -3.75E+01
     2 OT DIIS     0.15E+00  164.6     0.06561962       -38.9051974504 -1.41E+00
     3 OT DIIS     0.15E+00  164.6     0.02252814       -40.5323037791 -1.63E+00
     4 OT DIIS     0.15E+00  165.0     0.01379605       -41.0150940294 -4.83E-01
     5 OT DIIS     0.15E+00  164.2     0.01046025       -41.1719235471 -1.57E-01
     6 OT DIIS     0.15E+00  164.5     0.00619828       -41.2718554836 -9.99E-02
     7 OT DIIS     0.15E+00  169.3     0.00676245       -41.2923130127 -2.05E-02
     8 OT DIIS     0.15E+00  164.2     0.00267263       -41.3299033265 -3.76E-02
     9 OT DIIS     0.15E+00  164.2     0.00165503       -41.3453272706 -1.54E-02
    10 OT DIIS     0.15E+00  165.8     0.00114145       -41.3504564798 -5.13E-03

  Leaving inner SCF loop after reaching    10 steps.


  Electronic density on regular grids:        -29.9999999997        0.0000000003
  Core density on regular grids:               30.0000000000       -0.0000000000
  Total charge density on r-space grids:        0.0000000003
  Total charge density g-space grids:           0.0000000003

  Overlap energy of the core charge distribution:               0.00000289760055
  Self energy of the core charge distribution:                -98.20826545375169
  Core Hamiltonian energy:                                     30.34599705184445
  Hartree energy:                                              39.47249101378736
  Exchange-correlation energy:                                -10.00947207030210
  Hartree-Fock Exchange energy:                                -2.95120991895777

  Total energy:                                               -41.35045647977920

  outer SCF iter =    1 RMS gradient =   0.11E-02 energy =        -41.3504564798

  ----------------------------------- OT ---------------------------------------
  Minimizer      : DIIS                : direct inversion
                                         in the iterative subspace
                                         using   7 DIIS vectors
                                         safer DIIS on
  Preconditioner : FULL_ALL            : diagonalization, state selective
  Precond_solver : DEFAULT
  stepsize       :    0.15000000                  energy_gap     :    0.08000000
  eps_taylor     :   0.10000E-15                  max_taylor     :             4
  ----------------------------------- OT ---------------------------------------

  Step     Update method      Time    Convergence         Total energy    Change
  ------------------------------------------------------------------------------
     1 OT DIIS     0.15E+00  357.7     0.00090550       -41.3532175305 -2.76E-03
     2 OT DIIS     0.15E+00  165.8     0.00045368       -41.3544985525 -1.28E-03
     3 OT DIIS     0.15E+00  165.8     0.00022609       -41.3548730908 -3.75E-04
