 DBCSR| CPU Multiplication driver                                           XSMM
 DBCSR| Multrec recursion limit                                              512
 DBCSR| Multiplication stack size                                           1000
 DBCSR| Maximum elements for images                                    UNLIMITED
 DBCSR| Multiplicative factor virtual images                                   1
 DBCSR| Use multiplication densification                                       T
 DBCSR| Multiplication size stacks                                             3
 DBCSR| Use memory pool for CPU allocation                                     F
 DBCSR| Number of 3D layers                                               SINGLE
 DBCSR| Use MPI memory allocation                                              F
 DBCSR| Use RMA algorithm                                                      F
 DBCSR| Use Communication thread                                               T
 DBCSR| Communication thread load                                             87
 DBCSR| Split modifier for TAS multiplication algorithm                  1.0E+00


  **** **** ******  **  PROGRAM STARTED AT               2020-11-30 15:19:15.802
 ***** ** ***  *** **   PROGRAM STARTED ON                               tcopt13
 **    ****   ******    PROGRAM STARTED BY                                hutter
 ***** **    ** ** **   PROGRAM PROCESS ID                                 21589
  **** **  *******  **  PROGRAM STARTED IN /data/hutter/GITHUB/BASIS/MOLOPT/PBE0
                                           /hbcnof

 CP2K| version string:                    CP2K version 8.0 (Development Version)
 CP2K| source code revision number:                                  git:971f4a7
 CP2K| cp2kflags: omp libint fftw3 libxc elpa parallel mpi3 scalapack xsmm spgli
 CP2K|            b sirius
 CP2K| is freely available from                            https://www.cp2k.org/
 CP2K| Program compiled at                          Mon Nov 30 14:07:31 CET 2020
 CP2K| Program compiled on                                               tcopt13
 CP2K| Program compiled for                                                local
 CP2K| Data directory path                 /data/hutter/GITHUB/CURRENT/cp2k/data
 CP2K| Input file name                                            C6H5OH-ref.inp

 GLOBAL| Force Environment number                                              1
 GLOBAL| Basis set file name                                  ../PBE0_UCSEGBASIS
 GLOBAL| Potential file name                                        ../POTENTIAL
 GLOBAL| MM Potential file name                                     MM_POTENTIAL
 GLOBAL| Coordinate file name                                      __STD_INPUT__
 GLOBAL| Method name                                                        CP2K
 GLOBAL| Project name                                                  refC6H5OH
 GLOBAL| Preferred FFT library                                             FFTW3
 GLOBAL| Preferred diagonalization lib.                                     ELPA
 GLOBAL| Run type                                                         ENERGY
 GLOBAL| All-to-all communication in single precision                          F
 GLOBAL| FFTs using library dependent lengths                                  F
 GLOBAL| Global print level                                               MEDIUM
 GLOBAL| MPI I/O enabled                                                       T
 GLOBAL| Total number of message passing processes                            96
 GLOBAL| Number of threads for this process                                    1
 GLOBAL| This output is from process                                           0
 GLOBAL| CPU model name                          AMD EPYC 7742 64-Core Processor
 GLOBAL| CPUID                                                              1002

 MEMORY| system memory details [Kb]
 MEMORY|                        rank 0           min           max       average
 MEMORY| MemTotal           1056629884    1056629884    1056629884    1056629884
 MEMORY| MemFree             880548464     880548464     880548464     880548464
 MEMORY| Buffers                  1220          1220          1220          1220
 MEMORY| Cached              161006092     161006092     161006092     161006092
 MEMORY| Slab                  5477372       5477372       5477372       5477372
 MEMORY| SReclaimable          3832728       3832728       3832728       3832728
 MEMORY| MemLikelyFree      1045388504    1045388504    1045388504    1045388504


 *** Fundamental physical constants (SI units) ***

 *** Literature: B. J. Mohr and B. N. Taylor,
 ***             CODATA recommended values of the fundamental physical
 ***             constants: 2006, Web Version 5.1
 ***             http://physics.nist.gov/constants

 Speed of light in vacuum [m/s]                             2.99792458000000E+08
 Magnetic constant or permeability of vacuum [N/A**2]       1.25663706143592E-06
 Electric constant or permittivity of vacuum [F/m]          8.85418781762039E-12
 Planck constant (h) [J*s]                                  6.62606896000000E-34
 Planck constant (h-bar) [J*s]                              1.05457162825177E-34
 Elementary charge [C]                                      1.60217648700000E-19
 Electron mass [kg]                                         9.10938215000000E-31
 Electron g factor [ ]                                     -2.00231930436220E+00
 Proton mass [kg]                                           1.67262163700000E-27
 Fine-structure constant                                    7.29735253760000E-03
 Rydberg constant [1/m]                                     1.09737315685270E+07
 Avogadro constant [1/mol]                                  6.02214179000000E+23
 Boltzmann constant [J/K]                                   1.38065040000000E-23
 Atomic mass unit [kg]                                      1.66053878200000E-27
 Bohr radius [m]                                            5.29177208590000E-11

 *** Conversion factors ***

 [u] -> [a.u.]                                              1.82288848426455E+03
 [Angstrom] -> [Bohr] = [a.u.]                              1.88972613288564E+00
 [a.u.] = [Bohr] -> [Angstrom]                              5.29177208590000E-01
 [a.u.] -> [s]                                              2.41888432650478E-17
 [a.u.] -> [fs]                                             2.41888432650478E-02
 [a.u.] -> [J]                                              4.35974393937059E-18
 [a.u.] -> [N]                                              8.23872205491840E-08
 [a.u.] -> [K]                                              3.15774647902944E+05
 [a.u.] -> [kJ/mol]                                         2.62549961709828E+03
 [a.u.] -> [kcal/mol]                                       6.27509468713739E+02
 [a.u.] -> [Pa]                                             2.94210107994716E+13
 [a.u.] -> [bar]                                            2.94210107994716E+08
 [a.u.] -> [atm]                                            2.90362800883016E+08
 [a.u.] -> [eV]                                             2.72113838565563E+01
 [a.u.] -> [Hz]                                             6.57968392072181E+15
 [a.u.] -> [1/cm] (wave numbers)                            2.19474631370540E+05
 [a.u./Bohr**2] -> [1/cm]                                   5.14048714338585E+03
 

 CELL_TOP| Volume [angstrom^3]:                                      3375.000000
 CELL_TOP| Vector a [angstrom    15.000     0.000     0.000   |a| =    15.000000
 CELL_TOP| Vector b [angstrom     0.000    15.000     0.000   |b| =    15.000000
 CELL_TOP| Vector c [angstrom     0.000     0.000    15.000   |c| =    15.000000
 CELL_TOP| Angle (b,c), alpha [degree]:                                90.000000
 CELL_TOP| Angle (a,c), beta  [degree]:                                90.000000
 CELL_TOP| Angle (a,b), gamma [degree]:                                90.000000
 CELL_TOP| Numerically orthorhombic:                                         YES

 GENERATE|  Preliminary Number of Bonds generated:                             0
 GENERATE|  Achieved consistency in connectivity generation.

 CELL| Volume [angstrom^3]:                                          3375.000000
 CELL| Vector a [angstrom]:      15.000     0.000     0.000   |a| =    15.000000
 CELL| Vector b [angstrom]:       0.000    15.000     0.000   |b| =    15.000000
 CELL| Vector c [angstrom]:       0.000     0.000    15.000   |c| =    15.000000
 CELL| Angle (b,c), alpha [degree]:                                    90.000000
 CELL| Angle (a,c), beta  [degree]:                                    90.000000
 CELL| Angle (a,b), gamma [degree]:                                    90.000000
 CELL| Numerically orthorhombic:                                             YES

 CELL_REF| Volume [angstrom^3]:                                      3375.000000
 CELL_REF| Vector a [angstrom    15.000     0.000     0.000   |a| =    15.000000
 CELL_REF| Vector b [angstrom     0.000    15.000     0.000   |b| =    15.000000
 CELL_REF| Vector c [angstrom     0.000     0.000    15.000   |c| =    15.000000
 CELL_REF| Angle (b,c), alpha [degree]:                                90.000000
 CELL_REF| Angle (a,c), beta  [degree]:                                90.000000
 CELL_REF| Angle (a,b), gamma [degree]:                                90.000000
 CELL_REF| Numerically orthorhombic:                                         YES

 *******************************************************************************
 *******************************************************************************
 **                                                                           **
 **     #####                         ##              ##                      **
 **    ##   ##            ##          ##              ##                      **
 **   ##     ##                       ##            ######                    **
 **   ##     ##  ##   ##  ##   #####  ##  ##   ####   ##    #####    #####    **
 **   ##     ##  ##   ##  ##  ##      ## ##   ##      ##   ##   ##  ##   ##   **
 **   ##  ## ##  ##   ##  ##  ##      ####     ###    ##   ######   ######    **
 **    ##  ###   ##   ##  ##  ##      ## ##      ##   ##   ##       ##        **
 **     #######   #####   ##   #####  ##  ##  ####    ##    #####   ##        **
 **           ##                                                    ##        **
 **                                                                           **
 **                                                ... make the atoms dance   **
 **                                                                           **
 **            Copyright (C) by CP2K developers group (2000 - 2020)           **
 **                      J. Chem. Phys. 152, 194103 (2020)                    **
 **                                                                           **
 *******************************************************************************

 DFT| Spin restricted Kohn-Sham (RKS) calculation                            RKS
 DFT| Multiplicity                                                             1
 DFT| Number of spin states                                                    1
 DFT| Charge                                                                   0
 DFT| Self-interaction correction (SIC)                                       NO
 DFT| Cutoffs: density                                              1.000000E-10
 DFT|          gradient                                             1.000000E-10
 DFT|          tau                                                  1.000000E-10
 DFT|          cutoff_smoothing_range                               0.000000E+00
 DFT| XC density smoothing                                                  NONE
 DFT| XC derivatives                                                          PW
 FUNCTIONAL| ROUTINE=NEW
 FUNCTIONAL| PBE:
 FUNCTIONAL| J.P.Perdew, K.Burke, M.Ernzerhof, Phys. Rev. Letter, vol. 77, n 18,
 FUNCTIONAL|  pp. 3865-3868, (1996)sx=0.750sc=1.000{spin unpolarized}           

 QS| Method:                                                                 GPW
 QS| Density plane wave grid type                        NON-SPHERICAL FULLSPACE
 QS| Number of grid levels:                                                    4
 QS| Density cutoff [a.u.]:                                                300.0
 QS| Multi grid cutoff [a.u.]: 1) grid level                               300.0
 QS|                           2) grid level                               100.0
 QS|                           3) grid level                                33.3
 QS|                           4) grid level                                11.1
 QS| Grid level progression factor:                                          3.0
 QS| Relative density cutoff [a.u.]:                                        30.0
 QS| Interaction thresholds: eps_pgf_orb:                                1.0E-07
 QS|                         eps_filter_matrix:                          0.0E+00
 QS|                         eps_core_charge:                            1.0E-16
 QS|                         eps_rho_gspace:                             1.0E-14
 QS|                         eps_rho_rspace:                             1.0E-14
 QS|                         eps_gvg_rspace:                             1.0E-07
 QS|                         eps_ppl:                                    1.0E-02
 QS|                         eps_ppnl:                                   1.0E-09


 ATOMIC KIND INFORMATION

  1. Atomic kind: C                                     Number of atoms:       6

     Orbital Basis Set                                                 uc-bas-q4

       Number of orbital shell sets:                                          12
       Number of orbital shells:                                              28
       Number of primitive Cartesian functions:                               12
       Number of Cartesian basis functions:                                  156
       Number of spherical basis functions:                                  116
       Norm type:                                                              2

       Normalised Cartesian orbitals:

                        Set   Shell   Orbital            Exponent    Coefficient

                          1       1    1s               12.304192       4.682199

                          1       2    2px              12.304192      32.847812
                          1       2    2py              12.304192      32.847812
                          1       2    2pz              12.304192      32.847812

                          2       1    1s                5.473196       2.550297

                          2       2    2px               5.473196      11.932771
                          2       2    2py               5.473196      11.932771
                          2       2    2pz               5.473196      11.932771

                          3       1    1s                2.434607       1.389094

                          3       2    2px               2.434607       4.334871
                          3       2    2py               2.434607       4.334871
                          3       2    2pz               2.434607       4.334871

                          4       1    1s                1.082971       0.756611

                          4       2    2px               1.082971       1.574748
                          4       2    2py               1.082971       1.574748
                          4       2    2pz               1.082971       1.574748

                          5       1    1s                0.481731       0.412110

                          5       2    2px               0.481731       0.572066
                          5       2    2py               0.481731       0.572066
                          5       2    2pz               0.481731       0.572066

                          6       1    1s                0.214285       0.224468

                          6       2    2px               0.214285       0.207817
                          6       2    2py               0.214285       0.207817
                          6       2    2pz               0.214285       0.207817

                          7       1    1s                0.095319       0.122263

                          7       2    2px               0.095319       0.075495
                          7       2    2py               0.095319       0.075495
                          7       2    2pz               0.095319       0.075495

                          8       1    1s                0.042400       0.066594

                          8       2    2px               0.042400       0.027425
                          8       2    2py               0.042400       0.027425
                          8       2    2pz               0.042400       0.027425

                          9       1    1dx2              1.082971       1.892295
                          9       1    1dxy              1.082971       3.277551
                          9       1    1dxz              1.082971       3.277551
                          9       1    1dy2              1.082971       1.892295
                          9       1    1dyz              1.082971       3.277551
                          9       1    1dz2              1.082971       1.892295

                          9       2    2fx3              1.082971       1.761336
                          9       2    2fx2y             1.082971       3.938466
                          9       2    2fx2z             1.082971       3.938466
                          9       2    2fxy2             1.082971       3.938466
                          9       2    2fxyz             1.082971       6.821624
                          9       2    2fxz2             1.082971       3.938466
                          9       2    2fy3              1.082971       1.761336
                          9       2    2fy2z             1.082971       3.938466
                          9       2    2fyz2             1.082971       3.938466
                          9       2    2fz3              1.082971       1.761336

                          9       3    3gx4              1.082971       1.385580
                          9       3    3gx3y             1.082971       3.665899
                          9       3    3gx3z             1.082971       3.665899
                          9       3    3gx2y2            1.082971       4.732655
                          9       3    3gx2yz            1.082971       8.197200
                          9       3    3gx2z2            1.082971       4.732655
                          9       3    3gxy3             1.082971       3.665899
                          9       3    3gxy2z            1.082971       8.197200
                          9       3    3gxyz2            1.082971       8.197200
                          9       3    3gxz3             1.082971       3.665899
                          9       3    3gy4              1.082971       1.385580
                          9       3    3gy3z             1.082971       3.665899
                          9       3    3gy2z2            1.082971       4.732655
                          9       3    3gyz3             1.082971       3.665899
                          9       3    3gz4              1.082971       1.385580

                         10       1    1dx2              0.481731       0.458477
                         10       1    1dxy              0.481731       0.794106
                         10       1    1dxz              0.481731       0.794106
                         10       1    1dy2              0.481731       0.458477
                         10       1    1dyz              0.481731       0.794106
                         10       1    1dz2              0.481731       0.458477

                         10       2    2fx3              0.481731       0.284620
                         10       2    2fx2y             0.481731       0.636429
                         10       2    2fx2z             0.481731       0.636429
                         10       2    2fxy2             0.481731       0.636429
                         10       2    2fxyz             0.481731       1.102327
                         10       2    2fxz2             0.481731       0.636429
                         10       2    2fy3              0.481731       0.284620
                         10       2    2fy2z             0.481731       0.636429
                         10       2    2fyz2             0.481731       0.636429
                         10       2    2fz3              0.481731       0.284620

                         10       3    3gx4              0.481731       0.149330
                         10       3    3gx3y             0.481731       0.395091
                         10       3    3gx3z             0.481731       0.395091
                         10       3    3gx2y2            0.481731       0.510060
                         10       3    3gx2yz            0.481731       0.883450
                         10       3    3gx2z2            0.481731       0.510060
                         10       3    3gxy3             0.481731       0.395091
                         10       3    3gxy2z            0.481731       0.883450
                         10       3    3gxyz2            0.481731       0.883450
                         10       3    3gxz3             0.481731       0.395091
                         10       3    3gy4              0.481731       0.149330
                         10       3    3gy3z             0.481731       0.395091
                         10       3    3gy2z2            0.481731       0.510060
                         10       3    3gyz3             0.481731       0.395091
                         10       3    3gz4              0.481731       0.149330

                         11       1    1dx2              0.214285       0.111083
                         11       1    1dxy              0.214285       0.192401
                         11       1    1dxz              0.214285       0.192401
                         11       1    1dy2              0.214285       0.111083
                         11       1    1dyz              0.214285       0.192401
                         11       1    1dz2              0.214285       0.111083

                         11       2    2fx3              0.214285       0.045993
                         11       2    2fx2y             0.214285       0.102843
                         11       2    2fx2z             0.214285       0.102843
                         11       2    2fxy2             0.214285       0.102843
                         11       2    2fxyz             0.214285       0.178128
                         11       2    2fxz2             0.214285       0.102843
                         11       2    2fy3              0.214285       0.045993
                         11       2    2fy2z             0.214285       0.102843
                         11       2    2fyz2             0.214285       0.102843
                         11       2    2fz3              0.214285       0.045993

                         11       3    3gx4              0.214285       0.016094
                         11       3    3gx3y             0.214285       0.042581
                         11       3    3gx3z             0.214285       0.042581
                         11       3    3gx2y2            0.214285       0.054972
                         11       3    3gx2yz            0.214285       0.095214
                         11       3    3gx2z2            0.214285       0.054972
                         11       3    3gxy3             0.214285       0.042581
                         11       3    3gxy2z            0.214285       0.095214
                         11       3    3gxyz2            0.214285       0.095214
                         11       3    3gxz3             0.214285       0.042581
                         11       3    3gy4              0.214285       0.016094
                         11       3    3gy3z             0.214285       0.042581
                         11       3    3gy2z2            0.214285       0.054972
                         11       3    3gyz3             0.214285       0.042581
                         11       3    3gz4              0.214285       0.016094

                         12       1    1dx2              0.095319       0.026914
                         12       1    1dxy              0.095319       0.046616
                         12       1    1dxz              0.095319       0.046616
                         12       1    1dy2              0.095319       0.026914
                         12       1    1dyz              0.095319       0.046616
                         12       1    1dz2              0.095319       0.026914

                         12       2    2fx3              0.095319       0.007432
                         12       2    2fx2y             0.095319       0.016619
                         12       2    2fx2z             0.095319       0.016619
                         12       2    2fxy2             0.095319       0.016619
                         12       2    2fxyz             0.095319       0.028784
                         12       2    2fxz2             0.095319       0.016619
                         12       2    2fy3              0.095319       0.007432
                         12       2    2fy2z             0.095319       0.016619
                         12       2    2fyz2             0.095319       0.016619
                         12       2    2fz3              0.095319       0.007432

                         12       3    3gx4              0.095319       0.001735
                         12       3    3gx3y             0.095319       0.004589
                         12       3    3gx3z             0.095319       0.004589
                         12       3    3gx2y2            0.095319       0.005925
                         12       3    3gx2yz            0.095319       0.010262
                         12       3    3gx2z2            0.095319       0.005925
                         12       3    3gxy3             0.095319       0.004589
                         12       3    3gxy2z            0.095319       0.010262
                         12       3    3gxyz2            0.095319       0.010262
                         12       3    3gxz3             0.095319       0.004589
                         12       3    3gy4              0.095319       0.001735
                         12       3    3gy3z             0.095319       0.004589
                         12       3    3gy2z2            0.095319       0.005925
                         12       3    3gyz3             0.095319       0.004589
                         12       3    3gz4              0.095319       0.001735

     GTH Potential information for                                   GTH-PBE0-q4

       Description:                       Goedecker-Teter-Hutter pseudopotential
                                           Goedecker et al., PRB 54, 1703 (1996)
                                          Hartwigsen et al., PRB 58, 3641 (1998)
                                                      Krack, TCA 114, 145 (2005)

       Gaussian exponent of the core charge distribution:               4.321387
       Electronic configuration (s p d ...):                       2   2   0   0

       Parameters of the local part of the GTH pseudopotential:

                          rloc        C1          C2          C3          C4
                        0.340152   -8.756260    1.332124

       Parameters of the non-local part of the GTH pseudopotential:

                   l      r(l)      h(i,j,l)

                   0    0.302558    9.589804

  2. Atomic kind: O                                     Number of atoms:       1

     Orbital Basis Set                                                 uc-bas-q6

       Number of orbital shell sets:                                          12
       Number of orbital shells:                                              20
       Number of primitive Cartesian functions:                               12
       Number of Cartesian basis functions:                                   56
       Number of spherical basis functions:                                   52
       Norm type:                                                              2

       Normalised Cartesian orbitals:

                        Set   Shell   Orbital            Exponent    Coefficient

                          1       1    1s               24.528967       7.855422

                          1       2    2px              24.528967      77.810669
                          1       2    2py              24.528967      77.810669
                          1       2    2pz              24.528967      77.810669

                          2       1    1s               10.791878       4.243584

                          2       2    2px              10.791878      27.881193
                          2       2    2py              10.791878      27.881193
                          2       2    2pz              10.791878      27.881193

                          3       1    1s                4.748044       2.292430

                          3       2    2px               4.748044       9.990416
                          3       2    2py               4.748044       9.990416
                          3       2    2pz               4.748044       9.990416

                          4       1    1s                2.088972       1.238396

                          4       2    2px               2.088972       3.579775
                          4       2    2py               2.088972       3.579775
                          4       2    2pz               2.088972       3.579775

                          5       1    1s                0.919074       0.668995

                          5       2    2px               0.919074       1.282709
                          5       2    2py               0.919074       1.282709
                          5       2    2pz               0.919074       1.282709

                          6       1    1s                0.404360       0.361398

                          6       2    2px               0.404360       0.459621
                          6       2    2py               0.404360       0.459621
                          6       2    2pz               0.404360       0.459621

                          7       1    1s                0.177904       0.195231

                          7       2    2px               0.177904       0.164692
                          7       2    2py               0.177904       0.164692
                          7       2    2pz               0.177904       0.164692

                          8       1    1s                0.078271       0.105466

                          8       2    2px               0.078271       0.059013
                          8       2    2py               0.078271       0.059013
                          8       2    2pz               0.078271       0.059013

                          9       1    1dx2              2.088972       5.974360
                          9       1    1dxy              2.088972      10.347896
                          9       1    1dxz              2.088972      10.347896
                          9       1    1dy2              2.088972       5.974360
                          9       1    1dyz              2.088972      10.347896
                          9       1    1dz2              2.088972       5.974360

                         10       1    1dx2              0.919074       1.419948
                         10       1    1dxy              0.919074       2.459422
                         10       1    1dxz              0.919074       2.459422
                         10       1    1dy2              0.919074       1.419948
                         10       1    1dyz              0.919074       2.459422
                         10       1    1dz2              0.919074       1.419948

                         11       1    1dx2              0.404360       0.337484
                         11       1    1dxy              0.404360       0.584540
                         11       1    1dxz              0.404360       0.584540
                         11       1    1dy2              0.404360       0.337484
                         11       1    1dyz              0.404360       0.584540
                         11       1    1dz2              0.404360       0.337484

                         12       1    1dx2              0.177904       0.080211
                         12       1    1dxy              0.177904       0.138930
                         12       1    1dxz              0.177904       0.138930
                         12       1    1dy2              0.177904       0.080211
                         12       1    1dyz              0.177904       0.138930
                         12       1    1dz2              0.177904       0.080211

     GTH Potential information for                                   GTH-PBE0-q6

       Description:                       Goedecker-Teter-Hutter pseudopotential
                                           Goedecker et al., PRB 54, 1703 (1996)
                                          Hartwigsen et al., PRB 58, 3641 (1998)
                                                      Krack, TCA 114, 145 (2005)

       Gaussian exponent of the core charge distribution:               8.214783
       Electronic configuration (s p d ...):                       2   4   0   0

       Parameters of the local part of the GTH pseudopotential:

                          rloc        C1          C2          C3          C4
                        0.246710  -16.655333    2.508548

       Parameters of the non-local part of the GTH pseudopotential:

                   l      r(l)      h(i,j,l)

                   0    0.221002   18.343705

  3. Atomic kind: H                                     Number of atoms:       6

     Orbital Basis Set                                                 uc-bas-q1

       Number of orbital shell sets:                                          12
       Number of orbital shells:                                              20
       Number of primitive Cartesian functions:                               12
       Number of Cartesian basis functions:                                   84
       Number of spherical basis functions:                                   68
       Norm type:                                                              2

       Normalised Cartesian orbitals:

                        Set   Shell   Orbital            Exponent    Coefficient

                          1       1    1s               12.800459       4.823133

                          2       1    1s                5.558785       2.580150

                          3       1    1s                2.413983       1.380260

                          4       1    1s                1.048307       0.738374

                          5       1    1s                0.455243       0.394996

                          6       1    1s                0.197696       0.211304

                          7       1    1s                0.085852       0.113038

                          8       1    1s                0.037283       0.060470

                          9       1    2px               1.048307       1.511997
                          9       1    2py               1.048307       1.511997
                          9       1    2pz               1.048307       1.511997

                          9       2    3dx2              1.048307       1.787576
                          9       2    3dxy              1.048307       3.096173
                          9       2    3dxz              1.048307       3.096173
                          9       2    3dy2              1.048307       1.787576
                          9       2    3dyz              1.048307       3.096173
                          9       2    3dz2              1.048307       1.787576

                          9       3    4fx3              1.048307       1.637020
                          9       3    4fx2y             1.048307       3.660488
                          9       3    4fx2z             1.048307       3.660488
                          9       3    4fxy2             1.048307       3.660488
                          9       3    4fxyz             1.048307       6.340151
                          9       3    4fxz2             1.048307       3.660488
                          9       3    4fy3              1.048307       1.637020
                          9       3    4fy2z             1.048307       3.660488
                          9       3    4fyz2             1.048307       3.660488
                          9       3    4fz3              1.048307       1.637020

                         10       1    2px               0.455243       0.533020
                         10       1    2py               0.455243       0.533020
                         10       1    2pz               0.455243       0.533020

                         10       2    3dx2              0.455243       0.415274
                         10       2    3dxy              0.455243       0.719276
                         10       2    3dxz              0.455243       0.719276
                         10       2    3dy2              0.455243       0.415274
                         10       2    3dyz              0.455243       0.719276
                         10       2    3dz2              0.455243       0.415274

                         10       3    4fx3              0.455243       0.250612
                         10       3    4fx2y             0.455243       0.560385
                         10       3    4fx2z             0.455243       0.560385
                         10       3    4fxy2             0.455243       0.560385
                         10       3    4fxyz             0.455243       0.970615
                         10       3    4fxz2             0.455243       0.560385
                         10       3    4fy3              0.455243       0.250612
                         10       3    4fy2z             0.455243       0.560385
                         10       3    4fyz2             0.455243       0.560385
                         10       3    4fz3              0.455243       0.250612

                         11       1    2px               0.197696       0.187904
                         11       1    2py               0.197696       0.187904
                         11       1    2pz               0.197696       0.187904

                         11       2    3dx2              0.197696       0.096473
                         11       2    3dxy              0.197696       0.167096
                         11       2    3dxz              0.197696       0.167096
                         11       2    3dy2              0.197696       0.096473
                         11       2    3dyz              0.197696       0.167096
                         11       2    3dz2              0.197696       0.096473

                         11       3    4fx3              0.197696       0.038366
                         11       3    4fx2y             0.197696       0.085789
                         11       3    4fx2z             0.197696       0.085789
                         11       3    4fxy2             0.197696       0.085789
                         11       3    4fxyz             0.197696       0.148592
                         11       3    4fxz2             0.197696       0.085789
                         11       3    4fy3              0.197696       0.038366
                         11       3    4fy2z             0.197696       0.085789
                         11       3    4fyz2             0.197696       0.085789
                         11       3    4fz3              0.197696       0.038366

                         12       1    2px               0.085852       0.066241
                         12       1    2py               0.085852       0.066241
                         12       1    2pz               0.085852       0.066241

                         12       2    3dx2              0.085852       0.022412
                         12       2    3dxy              0.085852       0.038818
                         12       2    3dxz              0.085852       0.038818
                         12       2    3dy2              0.085852       0.022412
                         12       2    3dyz              0.085852       0.038818
                         12       2    3dz2              0.085852       0.022412

                         12       3    4fx3              0.085852       0.005873
                         12       3    4fx2y             0.085852       0.013134
                         12       3    4fx2z             0.085852       0.013134
                         12       3    4fxy2             0.085852       0.013134
                         12       3    4fxyz             0.085852       0.022748
                         12       3    4fxz2             0.085852       0.013134
                         12       3    4fy3              0.085852       0.005873
                         12       3    4fy2z             0.085852       0.013134
                         12       3    4fyz2             0.085852       0.013134
                         12       3    4fz3              0.085852       0.005873

     GTH Potential information for                                   GTH-PBE0-q1

       Description:                       Goedecker-Teter-Hutter pseudopotential
                                           Goedecker et al., PRB 54, 1703 (1996)
                                          Hartwigsen et al., PRB 58, 3641 (1998)
                                                      Krack, TCA 114, 145 (2005)

       Gaussian exponent of the core charge distribution:              12.438305
       Electronic configuration (s p d ...):                       1   0   0   0

       Parameters of the local part of the GTH pseudopotential:

                          rloc        C1          C2          C3          C4
                        0.200495   -4.177803    0.724039


 MOLECULE KIND INFORMATION


 All atoms are their own molecule, skipping detailed information


 TOTAL NUMBERS AND MAXIMUM NUMBERS

  Total number of            - Atomic kinds:                                   3
                             - Atoms:                                         13
                             - Shell sets:                                   156
                             - Shells:                                       308
                             - Primitive Cartesian functions:                156
                             - Cartesian basis functions:                   1496
                             - Spherical basis functions:                   1156

  Maximum angular momentum of- Orbital basis functions:                        4
                             - Local part of the GTH pseudopotential:          2
                             - Non-local part of the GTH pseudopotential:      0


 MODULE QUICKSTEP:  ATOMIC COORDINATES IN angstrom

  Atom  Kind  Element       X           Y           Z          Z(eff)       Mass

       1     1 C    6    0.016858    0.926014    0.000000      4.0000      12.0107
       2     1 C    6   -1.194871    0.226698    0.000000      4.0000      12.0107
       3     1 C    6   -1.188882   -1.169145    0.000000      4.0000      12.0107
       4     1 C    6    0.017002   -1.872167    0.000000      4.0000      12.0107
       5     1 C    6    1.222231   -1.163673    0.000000      4.0000      12.0107
       6     1 C    6    1.230839    0.230105    0.000000      4.0000      12.0107
       7     2 O    8    0.075119    2.299194    0.000000      6.0000      15.9994
       8     3 H    1   -0.830355    2.651814    0.000000      1.0000       1.0079
       9     3 H    1   -2.139833    0.774794    0.000000      1.0000       1.0079
      10     3 H    1   -2.137099   -1.706733    0.000000      1.0000       1.0079
      11     3 H    1    0.018559   -2.961305    0.000000      1.0000       1.0079
      12     3 H    1    2.170055   -1.702345    0.000000      1.0000       1.0079
      13     3 H    1    2.164092    0.792046    0.000000      1.0000       1.0079




 SCF PARAMETERS         Density guess:                                    ATOMIC
                        --------------------------------------------------------
                        max_scf:                                              10
                        max_scf_history:                                       0
                        max_diis:                                              4
                        --------------------------------------------------------
                        eps_scf:                                        1.00E-07
                        eps_scf_history:                                0.00E+00
                        eps_diis:                                       1.00E-01
                        eps_eigval:                                     1.00E-05
                        --------------------------------------------------------
                        level_shift [a.u.]:                                 0.00
                        --------------------------------------------------------
                        Outer loop SCF in use 
                        No variables optimised in outer loop
                        eps_scf                                         1.00E-07
                        max_scf                                               10
                        No outer loop optimization
                        step_size                                       5.00E-01

 PW_GRID| Information for grid number                                          1
 PW_GRID| Grid distributed over                                    96 processors
 PW_GRID| Real space group dimensions                                    96    1
 PW_GRID| the grid is blocked:                                                NO
 PW_GRID| Cutoff [a.u.]                                                    600.0
 PW_GRID| spherical cutoff:                                                   NO
 PW_GRID|   Bounds   1           -160     159                Points:         320
 PW_GRID|   Bounds   2           -160     159                Points:         320
 PW_GRID|   Bounds   3           -160     159                Points:         320
 PW_GRID| Volume element (a.u.^3)  0.6951E-03     Volume (a.u.^3)     22775.6292
 PW_GRID| Grid span                                                    FULLSPACE
 PW_GRID|   Distribution                         Average         Max         Min
 PW_GRID|   G-Vectors                           341333.3      341440      341120
 PW_GRID|   G-Rays                                1066.7        1067        1066
 PW_GRID|   Real Space Points                   341333.3      409600      307200

 PW_GRID| Information for grid number                                          2
 PW_GRID| Number of the reference grid                                         1
 PW_GRID| Grid distributed over                                    96 processors
 PW_GRID| Real space group dimensions                                    96    1
 PW_GRID| the grid is blocked:                                                NO
 PW_GRID| Cutoff [a.u.]                                                    300.0
 PW_GRID| spherical cutoff:                                                   NO
 PW_GRID|   Bounds   1           -112     112                Points:         225
 PW_GRID|   Bounds   2           -112     112                Points:         225
 PW_GRID|   Bounds   3           -112     112                Points:         225
 PW_GRID| Volume element (a.u.^3)  0.2000E-02     Volume (a.u.^3)     22775.6292
 PW_GRID| Grid span                                                    FULLSPACE
 PW_GRID|   Distribution                         Average         Max         Min
 PW_GRID|   G-Vectors                           118652.3      119025      118350
 PW_GRID|   G-Rays                                 527.3         529         526
 PW_GRID|   Real Space Points                   118652.3      151875      101250

 PW_GRID| Information for grid number                                          3
 PW_GRID| Number of the reference grid                                         2
 PW_GRID| Grid distributed over                                    96 processors
 PW_GRID| Real space group dimensions                                    96    1
 PW_GRID| the grid is blocked:                                                NO
 PW_GRID| Cutoff [a.u.]                                                    100.0
 PW_GRID| spherical cutoff:                                                   NO
 PW_GRID|   Bounds   1            -64      63                Points:         128
 PW_GRID|   Bounds   2            -64      63                Points:         128
 PW_GRID|   Bounds   3            -64      63                Points:         128
 PW_GRID| Volume element (a.u.^3)  0.1086E-01     Volume (a.u.^3)     22775.6292
 PW_GRID| Grid span                                                    FULLSPACE
 PW_GRID|   Distribution                         Average         Max         Min
 PW_GRID|   G-Vectors                            21845.3       21888       21760
 PW_GRID|   G-Rays                                 170.7         171         170
 PW_GRID|   Real Space Points                    21845.3       32768       16384

 PW_GRID| Information for grid number                                          4
 PW_GRID| Number of the reference grid                                         2
 PW_GRID| Grid distributed over                                    96 processors
 PW_GRID| Real space group dimensions                                     8   12
 PW_GRID| the grid is blocked:                                                NO
 PW_GRID| Cutoff [a.u.]                                                     33.3
 PW_GRID| spherical cutoff:                                                   NO
 PW_GRID|   Bounds   1            -37      37                Points:          75
 PW_GRID|   Bounds   2            -37      37                Points:          75
 PW_GRID|   Bounds   3            -37      37                Points:          75
 PW_GRID| Volume element (a.u.^3)  0.5399E-01     Volume (a.u.^3)     22775.6292
 PW_GRID| Grid span                                                    FULLSPACE
 PW_GRID|   Distribution                         Average         Max         Min
 PW_GRID|   G-Vectors                             4394.5        4500        4275
 PW_GRID|   G-Rays                                  58.6          60          57
 PW_GRID|   Real Space Points                     4394.5        5250        4050

 PW_GRID| Information for grid number                                          5
 PW_GRID| Number of the reference grid                                         2
 PW_GRID| Grid distributed over                                    96 processors
 PW_GRID| Real space group dimensions                                     8   12
 PW_GRID| the grid is blocked:                                                NO
 PW_GRID| Cutoff [a.u.]                                                     11.1
 PW_GRID| spherical cutoff:                                                   NO
 PW_GRID|   Bounds   1            -22      22                Points:          45
 PW_GRID|   Bounds   2            -22      22                Points:          45
 PW_GRID|   Bounds   3            -22      22                Points:          45
 PW_GRID| Volume element (a.u.^3)  0.2499         Volume (a.u.^3)     22775.6292
 PW_GRID| Grid span                                                    FULLSPACE
 PW_GRID|   Distribution                         Average         Max         Min
 PW_GRID|   G-Vectors                              949.2        1080         855
 PW_GRID|   G-Rays                                  21.1          24          19
 PW_GRID|   Real Space Points                      949.2        1080         675

 POISSON| Solver                                          Martyna-Tuckerman (MT)
 POISSON| MT| Alpha                                                        7.000
 POISSON| MT| Relative cutoff                                                2.0
 POISSON| Periodicity                                                       NONE

 RS_GRID| Information for grid number                                          2
 RS_GRID|   Bounds   1           -112     112                Points:         225
 RS_GRID|   Bounds   2           -112     112                Points:         225
 RS_GRID|   Bounds   3           -112     112                Points:         225
 RS_GRID| Real space distribution over                                  4 groups
 RS_GRID| Real space distribution along direction                              1
 RS_GRID| Border size                                                         29
 RS_GRID| Real space distribution over                                  4 groups
 RS_GRID| Real space distribution along direction                              2
 RS_GRID| Border size                                                         29
 RS_GRID| Real space distribution over                                  6 groups
 RS_GRID| Real space distribution along direction                              3
 RS_GRID| Border size                                                         29
 RS_GRID|   Distribution                         Average         Max         Min
 RS_GRID|   Planes                                 114.2         115         114
 RS_GRID|   Distribution                         Average         Max         Min
 RS_GRID|   Planes                                 114.2         115         114
 RS_GRID|   Distribution                         Average         Max         Min
 RS_GRID|   Planes                                  95.5          96          95

 RS_GRID| Information for grid number                                          3
 RS_GRID|   Bounds   1            -64      63                Points:         128
 RS_GRID|   Bounds   2            -64      63                Points:         128
 RS_GRID|   Bounds   3            -64      63                Points:         128
 RS_GRID| Real space distribution over                                  4 groups
 RS_GRID| Real space distribution along direction                              1
 RS_GRID| Border size                                                         31
 RS_GRID| Real space distribution over                                  4 groups
 RS_GRID| Real space distribution along direction                              2
 RS_GRID| Border size                                                         31
 RS_GRID| Real space distribution over                                  6 groups
 RS_GRID| Real space distribution along direction                              3
 RS_GRID| Border size                                                         31
 RS_GRID|   Distribution                         Average         Max         Min
 RS_GRID|   Planes                                  94.0          94          94
 RS_GRID|   Distribution                         Average         Max         Min
 RS_GRID|   Planes                                  94.0          94          94
 RS_GRID|   Distribution                         Average         Max         Min
 RS_GRID|   Planes                                  83.3          84          83

 RS_GRID| Information for grid number                                          4
 RS_GRID|   Bounds   1            -37      37                Points:          75
 RS_GRID|   Bounds   2            -37      37                Points:          75
 RS_GRID|   Bounds   3            -37      37                Points:          75
 RS_GRID| Real space fully replicated
 RS_GRID| Group size                                                           1

 RS_GRID| Information for grid number                                          5
 RS_GRID|   Bounds   1            -22      22                Points:          45
 RS_GRID|   Bounds   2            -22      22                Points:          45
 RS_GRID|   Bounds   3            -22      22                Points:          45
 RS_GRID| Real space fully replicated
 RS_GRID| Group size                                                           1

  HFX_INFO| Replica ID:                                                        1
  HFX_INFO| FRACTION:                                               0.2500000000
  HFX_INFO| Interaction Potential:                                       COULOMB
  HFX_INFO| EPS_SCHWARZ:                                                 1.0E-14
  HFX_INFO| EPS_SCHWARZ_FORCES                                           1.0E-06
  HFX_INFO| EPS_STORAGE_SCALING:                                         1.0E+00
  HFX_INFO| NBINS:                                                            64
  HFX_INFO| BLOCK_SIZE:                                                        1
  HFX_INFO| Number of periodic shells considered:                           NONE
  HFX_INFO| Number of periodic cells considered:                            NONE


 Number of electrons:                                                         36
 Number of occupied orbitals:                                                 18
 Number of molecular orbitals:                                                18

 Number of orbital functions:                                               1156
 Number of independent orbital functions:                                   1156

 Extrapolation method: initial_guess

 Atomic guess: The first density matrix is obtained in terms of atomic orbitals
               and electronic configurations assigned to each atomic kind

 Guess for atomic kind: C

 Electronic structure
    Total number of core electrons                                          2.00
    Total number of valence electrons                                       4.00
    Total number of electrons                                               6.00
    Multiplicity                                                   not specified
    S   [  2.00] 2.00
    P      2.00


 *******************************************************************************
                  Iteration          Convergence                     Energy [au]
 *******************************************************************************
                          1        0.104066                      -5.277514158479
                          2        0.783252E-01                  -5.282561003731
                          3        0.395924E-03                  -5.287853538787
                          4        0.156389E-03                  -5.287853695238
                          5        0.481157E-06                  -5.287853718232

 Energy components [Hartree]           Total Energy ::           -5.287853718232
                                        Band Energy ::           -1.318748254387
                                     Kinetic Energy ::            3.391422607345
                                   Potential Energy ::           -8.679276325577
                                      Virial (-V/T) ::            2.559184545972
                                        Core Energy ::           -8.301371298587
                                          XC Energy ::           -1.377957233345
                                     Coulomb Energy ::            4.391474813700
                       Total Pseudopotential Energy ::          -11.726913257231
                       Local Pseudopotential Energy ::          -12.376077062176
                    Nonlocal Pseudopotential Energy ::            0.649163804945
                                        Confinement ::            0.341193512987

 Orbital energies  State     L     Occupation   Energy[a.u.]          Energy[eV]

                       1     0          2.000      -0.485466          -13.210205

                       1     1          2.000      -0.173908           -4.732278


 Total Electron Density at R=0:                                         0.000010

 Guess for atomic kind: O

 Electronic structure
    Total number of core electrons                                          2.00
    Total number of valence electrons                                       6.00
    Total number of electrons                                               8.00
    Multiplicity                                                   not specified
    S   [  2.00] 2.00
    P      4.00


 *******************************************************************************
                  Iteration          Convergence                     Energy [au]
 *******************************************************************************
                          1        0.696992                     -15.567823058159
                          2        0.768881                     -15.564383199874
                          3        0.382724E-01                 -15.660915373889
                          4        0.179172E-02                 -15.661295145791
                          5        0.801827E-04                 -15.661295594834
                          6        0.214420E-06                 -15.661295595952

 Energy components [Hartree]           Total Energy ::          -15.661295595952
                                        Band Energy ::           -3.000727877234
                                     Kinetic Energy ::           11.791751314440
                                   Potential Energy ::          -27.453046910392
                                      Virial (-V/T) ::            2.328156876644
                                        Core Energy ::          -26.148300604314
                                          XC Energy ::           -3.155176336235
                                     Coulomb Energy ::           13.642181344596
                       Total Pseudopotential Energy ::          -37.975197948965
                       Local Pseudopotential Energy ::          -39.275000965247
                    Nonlocal Pseudopotential Energy ::            1.299803016282
                                        Confinement ::            0.351460302117

 Orbital energies  State     L     Occupation   Energy[a.u.]          Energy[eV]

                       1     0          2.000      -0.863838          -23.506214

                       1     1          4.000      -0.318263           -8.660382


 Total Electron Density at R=0:                                         0.000000

 Guess for atomic kind: H

 Electronic structure
    Total number of core electrons                                          0.00
    Total number of valence electrons                                       1.00
    Total number of electrons                                               1.00
    Multiplicity                                                   not specified
    S      1.00


 *******************************************************************************
                  Iteration          Convergence                     Energy [au]
 *******************************************************************************
                          1        0.481119E-02                  -0.424930859262
                          2        0.399020E-03                  -0.424956390157
                          3        0.524171E-04                  -0.424956718765
                          4        0.204113E-06                  -0.424956722167

 Energy components [Hartree]           Total Energy ::           -0.424956722167
                                        Band Energy ::           -0.200233351412
                                     Kinetic Energy ::            0.459251989398
                                   Potential Energy ::           -0.884208711565
                                      Virial (-V/T) ::            1.925323639261
                                        Core Energy ::           -0.479861102176
                                          XC Energy ::           -0.243831006575
                                     Coulomb Energy ::            0.298735386583
                       Total Pseudopotential Energy ::           -0.958316441026
                       Local Pseudopotential Energy ::           -0.958316441026
                    Nonlocal Pseudopotential Energy ::            0.000000000000
                                        Confinement ::            0.192033494526

 Orbital energies  State     L     Occupation   Energy[a.u.]          Energy[eV]

                       1     0          1.000      -0.200233           -5.448627


 Total Electron Density at R=0:                                         0.233450
 Re-scaling the density matrix to get the right number of electrons
                  # Electrons              Trace(P)               Scaling factor
                           36                36.000                        1.000


 SCF WAVEFUNCTION OPTIMIZATION

  ----------------------------------- OT ---------------------------------------
  Minimizer      : DIIS                : direct inversion
                                         in the iterative subspace
                                         using   7 DIIS vectors
                                         safer DIIS on
  Preconditioner : FULL_ALL            : diagonalization, state selective
  Precond_solver : DEFAULT
  stepsize       :    0.15000000                  energy_gap     :    0.08000000
  eps_taylor     :   0.10000E-15                  max_taylor     :             4
  ----------------------------------- OT ---------------------------------------

  Step     Update method      Time    Convergence         Total energy    Change
  ------------------------------------------------------------------------------

  HFX_MEM_INFO| Est. max. program size before HFX [MiB]:                     250
  HFX_MEM_INFO| Number of cart. primitive ERI's calculated:         736737129633
  HFX_MEM_INFO| Number of sph. ERI's calculated:                    259415874457
  HFX_MEM_INFO| Number of sph. ERI's stored in-core:                128837110856
  HFX_MEM_INFO| Number of sph. ERI's stored on disk:                           0
  HFX_MEM_INFO| Number of sph. ERI's calculated on the fly:         130578763601
  HFX_MEM_INFO| Total memory consumption ERI's RAM [MiB]:                 595116
  HFX_MEM_INFO| Whereof max-vals [MiB]:                                       27
  HFX_MEM_INFO| Total compression factor ERI's RAM:                         1.65
  HFX_MEM_INFO| Total memory consumption ERI's disk [MiB]:                     0
  HFX_MEM_INFO| Total compression factor ERI's disk:                        0.00
  HFX_MEM_INFO| Size of density/Fock matrix [MiB]:                            10
  HFX_MEM_INFO| Size of buffers [MiB]:                                         1
  HFX_MEM_INFO| Est. max. program size after HFX  [MiB]:                    7073

     1 OT DIIS     0.15E+00  164.2     0.04484288       -49.5557563296 -4.96E+01
     2 OT DIIS     0.15E+00   91.1     0.05778887       -51.3034045671 -1.75E+00
     3 OT DIIS     0.15E+00   93.0     0.02095752       -53.0040389782 -1.70E+00
     4 OT SD       0.15E+00   94.0  6054.09003294    -19806.6491334141 -1.98E+04
     5 OT SD       0.15E+00   94.0     7.6477E+12 ********************  6.16E+12
