 DBCSR| CPU Multiplication driver                                           XSMM
 DBCSR| Multrec recursion limit                                              512
 DBCSR| Multiplication stack size                                           1000
 DBCSR| Maximum elements for images                                    UNLIMITED
 DBCSR| Multiplicative factor virtual images                                   1
 DBCSR| Use multiplication densification                                       T
 DBCSR| Multiplication size stacks                                             3
 DBCSR| Use memory pool for CPU allocation                                     F
 DBCSR| Number of 3D layers                                               SINGLE
 DBCSR| Use MPI memory allocation                                              F
 DBCSR| Use RMA algorithm                                                      F
 DBCSR| Use Communication thread                                               T
 DBCSR| Communication thread load                                             87
 DBCSR| Split modifier for TAS multiplication algorithm                  1.0E+00


  **** **** ******  **  PROGRAM STARTED AT               2020-11-30 12:49:42.705
 ***** ** ***  *** **   PROGRAM STARTED ON                               tcopt10
 **    ****   ******    PROGRAM STARTED BY                                hutter
 ***** **    ** ** **   PROGRAM PROCESS ID                                 80698
  **** **  *******  **  PROGRAM STARTED IN /data/hutter/GITHUB/BASIS/MOLOPT/PBE0
                                           /hbcnof

 CP2K| version string:                    CP2K version 8.0 (Development Version)
 CP2K| source code revision number:                                  git:afc71fa
 CP2K| cp2kflags: omp libint fftw3 libxc elpa parallel mpi3 scalapack xsmm spgli
 CP2K|            b sirius
 CP2K| is freely available from                            https://www.cp2k.org/
 CP2K| Program compiled at                          Tue Nov 17 10:27:14 CET 2020
 CP2K| Program compiled on                                               tcopt10
 CP2K| Program compiled for                                                local
 CP2K| Data directory path                 /data/hutter/GITHUB/CURRENT/cp2k/data
 CP2K| Input file name                                               CF4-ref.inp

 GLOBAL| Force Environment number                                              1
 GLOBAL| Basis set file name                                  ../PBE0_UCSEGBASIS
 GLOBAL| Potential file name                                        ../POTENTIAL
 GLOBAL| MM Potential file name                                     MM_POTENTIAL
 GLOBAL| Coordinate file name                                      __STD_INPUT__
 GLOBAL| Method name                                                        CP2K
 GLOBAL| Project name                                                     refCF4
 GLOBAL| Preferred FFT library                                             FFTW3
 GLOBAL| Preferred diagonalization lib.                                     ELPA
 GLOBAL| Run type                                                         ENERGY
 GLOBAL| All-to-all communication in single precision                          F
 GLOBAL| FFTs using library dependent lengths                                  F
 GLOBAL| Global print level                                                  LOW
 GLOBAL| MPI I/O enabled                                                       T
 GLOBAL| Total number of message passing processes                            36
 GLOBAL| Number of threads for this process                                    1
 GLOBAL| This output is from process                                           0
 GLOBAL| CPU model name                          AMD EPYC 7401 24-Core Processor
 GLOBAL| CPUID                                                              1002

 MEMORY| system memory details [Kb]
 MEMORY|                        rank 0           min           max       average
 MEMORY| MemTotal            263987256     263987256     263987256     263987256
 MEMORY| MemFree             242286672     242286672     242286672     242286672
 MEMORY| Buffers                   148           148           148           148
 MEMORY| Cached               17817648      17817648      17817648      17817648
 MEMORY| Slab                   933684        933684        933684        933684
 MEMORY| SReclaimable           419128        419128        419128        419128
 MEMORY| MemLikelyFree       260523596     260523596     260523596     260523596


 GENERATE|  Preliminary Number of Bonds generated:                             0
 GENERATE|  Achieved consistency in connectivity generation.

 *******************************************************************************
 *******************************************************************************
 **                                                                           **
 **     #####                         ##              ##                      **
 **    ##   ##            ##          ##              ##                      **
 **   ##     ##                       ##            ######                    **
 **   ##     ##  ##   ##  ##   #####  ##  ##   ####   ##    #####    #####    **
 **   ##     ##  ##   ##  ##  ##      ## ##   ##      ##   ##   ##  ##   ##   **
 **   ##  ## ##  ##   ##  ##  ##      ####     ###    ##   ######   ######    **
 **    ##  ###   ##   ##  ##  ##      ## ##      ##   ##   ##       ##        **
 **     #######   #####   ##   #####  ##  ##  ####    ##    #####   ##        **
 **           ##                                                    ##        **
 **                                                                           **
 **                                                ... make the atoms dance   **
 **                                                                           **
 **            Copyright (C) by CP2K developers group (2000 - 2020)           **
 **                      J. Chem. Phys. 152, 194103 (2020)                    **
 **                                                                           **
 *******************************************************************************


 TOTAL NUMBERS AND MAXIMUM NUMBERS

  Total number of            - Atomic kinds:                                   2
                             - Atoms:                                          5
                             - Shell sets:                                    60
                             - Shells:                                       108
                             - Primitive Cartesian functions:                 60
                             - Cartesian basis functions:                    380
                             - Spherical basis functions:                    324

  Maximum angular momentum of- Orbital basis functions:                        4
                             - Local part of the GTH pseudopotential:          2
                             - Non-local part of the GTH pseudopotential:      0


 SCF PARAMETERS         Density guess:                                    ATOMIC
                        --------------------------------------------------------
                        max_scf:                                              10
                        max_scf_history:                                       0
                        max_diis:                                              4
                        --------------------------------------------------------
                        eps_scf:                                        1.00E-07
                        eps_scf_history:                                0.00E+00
                        eps_diis:                                       1.00E-01
                        eps_eigval:                                     1.00E-05
                        --------------------------------------------------------
                        level_shift [a.u.]:                                 0.00
                        --------------------------------------------------------
                        Outer loop SCF in use 
                        No variables optimised in outer loop
                        eps_scf                                         1.00E-07
                        max_scf                                               10
                        No outer loop optimization
                        step_size                                       5.00E-01

 Number of electrons:                                                         32
 Number of occupied orbitals:                                                 16
 Number of molecular orbitals:                                                16

 Number of orbital functions:                                                324
 Number of independent orbital functions:                                    324

 Extrapolation method: initial_guess


 SCF WAVEFUNCTION OPTIMIZATION

  ----------------------------------- OT ---------------------------------------
  Minimizer      : DIIS                : direct inversion
                                         in the iterative subspace
                                         using   7 DIIS vectors
                                         safer DIIS on
  Preconditioner : FULL_ALL            : diagonalization, state selective
  Precond_solver : DEFAULT
  stepsize       :    0.15000000                  energy_gap     :    0.08000000
  eps_taylor     :   0.10000E-15                  max_taylor     :             4
  ----------------------------------- OT ---------------------------------------

  Step     Update method      Time    Convergence         Total energy    Change
  ------------------------------------------------------------------------------
     1 OT DIIS     0.15E+00   28.1     0.06392974       -99.7260903330 -9.97E+01
     2 OT DIIS     0.15E+00    1.4     0.06615291      -101.3194187945 -1.59E+00
     3 OT DIIS     0.15E+00    1.2     0.03332620      -102.2402428658 -9.21E-01
     4 OT DIIS     0.15E+00    1.2     0.03104638      -102.4225488867 -1.82E-01
     5 OT DIIS     0.15E+00    1.2     0.02378658      -102.4775908432 -5.50E-02
     6 OT DIIS     0.15E+00    1.2     0.00564575      -102.5612870343 -8.37E-02
     7 OT DIIS     0.15E+00    1.2     0.00257268      -102.5715192921 -1.02E-02
     8 OT DIIS     0.15E+00    1.2     0.00117338      -102.5739268429 -2.41E-03
     9 OT DIIS     0.15E+00    1.2     0.00059635      -102.5746701062 -7.43E-04
    10 OT DIIS     0.15E+00    1.2     0.00041733      -102.5748277692 -1.58E-04

  Leaving inner SCF loop after reaching    10 steps.


  Electronic density on regular grids:        -31.9999998572        0.0000001428
  Core density on regular grids:               32.0000000000       -0.0000000000
  Total charge density on r-space grids:        0.0000001428
  Total charge density g-space grids:           0.0000001428

  Overlap energy of the core charge distribution:               0.00000001296162
  Self energy of the core charge distribution:               -275.64828957596967
  Core Hamiltonian energy:                                     76.83193163123032
  Hartree energy:                                             116.59943282549153
  Exchange-correlation energy:                                -15.61172110434862
  Hartree-Fock Exchange energy:                                -4.74618155854833

  Total energy:                                              -102.57482776918317

  outer SCF iter =    1 RMS gradient =   0.42E-03 energy =       -102.5748277692

  ----------------------------------- OT ---------------------------------------
  Minimizer      : DIIS                : direct inversion
                                         in the iterative subspace
                                         using   7 DIIS vectors
                                         safer DIIS on
  Preconditioner : FULL_ALL            : diagonalization, state selective
  Precond_solver : DEFAULT
  stepsize       :    0.15000000                  energy_gap     :    0.08000000
  eps_taylor     :   0.10000E-15                  max_taylor     :             4
  ----------------------------------- OT ---------------------------------------

  Step     Update method      Time    Convergence         Total energy    Change
  ------------------------------------------------------------------------------
     1 OT DIIS     0.15E+00    2.5     0.00016607      -102.5748938276 -6.61E-05
     2 OT DIIS     0.15E+00    1.2     0.00007134      -102.5749077239 -1.39E-05
     3 OT DIIS     0.15E+00    1.2     0.00003084      -102.5749103654 -2.64E-06
     4 OT DIIS     0.15E+00    1.2     0.00000203      -102.5749107874 -4.22E-07
     5 OT DIIS     0.15E+00    1.2     0.00000039      -102.5749107903 -2.88E-09
     6 OT DIIS     0.15E+00    1.2     0.00000008      -102.5749107904 -1.02E-10

  *** SCF run converged in     6 steps ***


  Electronic density on regular grids:        -31.9999998570        0.0000001430
  Core density on regular grids:               32.0000000000       -0.0000000000
  Total charge density on r-space grids:        0.0000001430
  Total charge density g-space grids:           0.0000001430

  Overlap energy of the core charge distribution:               0.00000001296162
  Self energy of the core charge distribution:               -275.64828957596967
  Core Hamiltonian energy:                                     76.83444378832377
  Hartree energy:                                             116.59699858764733
  Exchange-correlation energy:                                -15.61187702916990
  Hartree-Fock Exchange energy:                                -4.74618657418336

  Total energy:                                              -102.57491079039023

  outer SCF iter =    2 RMS gradient =   0.81E-07 energy =       -102.5749107904
  outer SCF loop converged in   2 iterations or   16 steps


 ENERGY| Total FORCE_EVAL ( QS ) energy [a.u.]:             -102.574910790390234

 -------------------------------------------------------------------------------
 -                                                                             -
 -                                DBCSR STATISTICS                             -
 -                                                                             -
 -------------------------------------------------------------------------------
 COUNTER                                    TOTAL       BLAS       SMM       ACC
 flops    16 x    16 x    16               950272       0.0%    100.0%      0.0%
 flops    16 x    16 x   116              3919872       0.0%    100.0%      0.0%
 flops   116 x    16 x    16              4870144       0.0%    100.0%      0.0%
 flops    52 x   116 x    16              6562816       0.0%    100.0%      0.0%
 flops   116 x    52 x    16              6562816       0.0%    100.0%      0.0%
 flops    16 x    16 x    52              7028736       0.0%    100.0%      0.0%
 flops   116 x   116 x    16              7320064       0.0%    100.0%      0.0%
 flops    52 x    16 x    16              8732672       0.0%    100.0%      0.0%
 flops    52 x    52 x    16             14709760       0.0%    100.0%      0.0%
 flops   116 x    16 x   116             35308544       0.0%    100.0%      0.0%
 flops   116 x    16 x    52             63311872       0.0%    100.0%      0.0%
 flops    52 x    16 x   116             63311872       0.0%    100.0%      0.0%
 flops    52 x    16 x    52            113524736       0.0%    100.0%      0.0%
 flops inhomo. stacks                           0       0.0%      0.0%      0.0%
 flops total                       336.114176E+06       0.0%    100.0%      0.0%
 flops max/rank                    122.709504E+06       0.0%    100.0%      0.0%
 matmuls inhomo. stacks                         0       0.0%      0.0%      0.0%
 matmuls total                               3161       0.0%    100.0%      0.0%
 number of processed stacks                  3161       0.0%    100.0%      0.0%
 average stack size                                     0.0       1.0       0.0
 marketing flops                   358.397504E+06
 -------------------------------------------------------------------------------
 # multiplications                            365
 max memory usage/rank               1.298231E+09
 # max total images/rank                        1
 # max 3D layers                                1
 # MPI messages exchanged                  131400
 MPI messages size (bytes):
  total size                       415.965440E+06
  min size                           0.000000E+00
  max size                         107.648000E+03
  average size                       3.165643E+03
 MPI breakdown and total messages size (bytes):
             size <=      128              111330                        0
       128 < size <=     8192                8170                 47144960
      8192 < size <=    32768                8210                166405120
     32768 < size <=   131072                3690                202415360
    131072 < size <=  4194304                   0                        0
   4194304 < size <= 16777216                   0                        0
  16777216 < size                               0                        0
 -------------------------------------------------------------------------------
 -                                                                             -
 -                      DBCSR MESSAGE PASSING PERFORMANCE                      -
 -                                                                             -
 -------------------------------------------------------------------------------
 ROUTINE             CALLS      AVE VOLUME [Bytes]
 MP_Bcast               14                     12.
 MP_Allreduce         1959                      8.
 MP_Alltoall          1526                   4864.
 MP_ISend             8752                   4159.
 MP_IRecv             8752                   2516.
 -------------------------------------------------------------------------------

 -------------------------------------------------------------------------------
 -                                                                             -
 -                                GRID STATISTICS                              -
 -                                                                             -
 -------------------------------------------------------------------------------
 LP    KERNEL    OPERATION                                     COUNT     PERCENT
 0     general   collocate                                       180       0.27%
 2     ortho     integrate                                     13728      20.52%
 2     ortho     collocate                                     14586      21.80%
 3     ortho     integrate                                     11712      17.51%
 3     ortho     collocate                                     12444      18.60%
 4     ortho     integrate                                      2560       3.83%
 4     ortho     collocate                                      2720       4.07%
 5     ortho     integrate                                      3072       4.59%
 5     ortho     collocate                                      3264       4.88%
 6     ortho     integrate                                      1024       1.53%
 6     ortho     collocate                                      1088       1.63%
 8     ortho     integrate                                       256       0.38%
 8     ortho     collocate                                       272       0.41%
 -------------------------------------------------------------------------------

 MEMORY| Estimated peak process memory [MiB]                                1239

 -------------------------------------------------------------------------------
 -                                                                             -
 -                         MESSAGE PASSING PERFORMANCE                         -
 -                                                                             -
 -------------------------------------------------------------------------------

 ROUTINE             CALLS      AVE VOLUME [Bytes]
 MP_Group                5
 MP_Bcast              344                 541422.
 MP_Allreduce          964                   1487.
 MP_Sync                87
 MP_Alltoall           324                6197863.
 MP_ISendRecv         4655                 112238.
 MP_Wait              6117
 MP_ISend             1360                 254016.
 MP_IRecv             1360                 254016.
 MP_Recv                 5                   7776.
 -------------------------------------------------------------------------------


 -------------------------------------------------------------------------------
 -                                                                             -
 -                           R E F E R E N C E S                               -
 -                                                                             -
 -------------------------------------------------------------------------------
 
 CP2K version 8.0 (Development Version), the CP2K developers group (2020).
 CP2K is freely available from https://www.cp2k.org/ .

 Kuehne,Thomas D.; Iannuzzi,Marcella; Del Ben,Mauro;
 Rybkin,Vladimir V.; Seewald,Patrick; Stein,Frederick; Laino,Teodoro;
 Khaliullin,Rustam Z.; Schuett,Ole; Schiffmann,Florian; Golze,Dorothea;
 Wilhelm,Jan; Chulkov,Sergey; Bani-Hashemian,Mohammad Hossein;
 Weber,Valery; Borstnik,Urban; Taillefumier,Mathieu;
 Jakobovits,Alice Shoshana; Lazzaro,Alfio; Pabst,Hans; Mueller,Tiziano;
 Schade,Robert; Guidon,Manuel; Andermatt,Samuel; Holmberg,Nico;
 Schenter,Gregory K.; Hehn,Anna; Bussy,Augustin; Belleflamme,Fabian;
 Tabacchi,Gloria; Gloess,Andreas; Lass,Michael; Bethune,Iain;
 Mundy,Christopher J.; Plessl,Christian; Watkins,Matt;
 VandeVondele,Joost; Krack,Matthias; Hutter,Juerg. 
 The Journal of Chemical Physics, 152 (19), (2020). 
 CP2K: An electronic structure and molecular dynamics software package -
 Quickstep: Efficient and accurate electronic structure calculations.
 https://doi.org/10.1063/5.0007045

 Schuett, Ole; Messmer, Peter; Hutter, Juerg; VandeVondele, Joost. 
 Electronic Structure Calculations on Graphics Processing Units, John
 Wiley & Sons, Ltd, 173-190 (2016). 
 GPU-Accelerated Sparse Matrix-Matrix Multiplication for
 Linear Scaling Density Functional Theory.
 https://doi.org/10.1002/9781118670712.ch8

 Borstnik, U; VandeVondele, J; Weber, V; Hutter, J. 
 PARALLEL COMPUTING, 40 (5-6), 47-58 (2014). 
 Sparse matrix multiplication: The distributed block-compressed sparse
 row library.
 https://doi.org/10.1016/j.parco.2014.03.012

 Hutter, J; Iannuzzi, M; Schiffmann, F; VandeVondele, J. 
 WIREs Comput Mol Sci., 4 (1), 15-25 (2014). 
 CP2K: atomistic simulations of condensed matter systems.
 https://doi.org/10.1002/wcms.1159

 Marek, A; Blum, V; Johanni, R; Havu, V; Lang, B; Auckenthaler, T;
 Heinecke, A; Bungartz, H; Lederer, H. 
 Journal of Physics: Condensed Matter, 26 (21), (2014). 
 The ELPA library: scalable parallel eigenvalue solutions for
 electronic structure
 theory and computational science.
 https://doi.org/10.1088/0953-8984/26/21/213201

 Guidon, M; Hutter, J; VandeVondele, J. 
 JOURNAL OF CHEMICAL THEORY AND COMPUTATION, 5 (11), 3010-3021 (2009). 
 Robust Periodic Hartree-Fock Exchange for Large-Scale Simulations Using
 Gaussian Basis Sets.
 https://doi.org/10.1021/ct900494g

 Guidon, M; Schiffmann, F; Hutter, J; VandeVondele, J. 
 JOURNAL OF CHEMICAL PHYSICS, 128 (21), 214104 (2008). 
 Ab initio molecular dynamics using hybrid density functionals.
 https://doi.org/10.1063/1.2931945

 Krack, M. 
 THEORETICAL CHEMISTRY ACCOUNTS, 114 (1-3), 145-152 (2005). 
 Pseudopotentials for H to Kr optimized for gradient-corrected
 exchange-correlation functionals.
 https://doi.org/10.1007/s00214-005-0655-y

 VandeVondele, J; Krack, M; Mohamed, F; Parrinello, M; Chassaing, T;
 Hutter, J. COMPUTER PHYSICS COMMUNICATIONS, 167 (2), 103-128 (2005). 
 QUICKSTEP: Fast and accurate density functional calculations using a
 mixed Gaussian and plane waves approach.
 https://doi.org/10.1016/j.cpc.2004.12.014

 Frigo, M; Johnson, SG. 
 PROCEEDINGS OF THE IEEE, 93 (2), 216-231 (2005). 
 The design and implementation of FFTW3.
 https://doi.org/10.1109/JPROC.2004.840301

 VandeVondele, J; Hutter, J. 
 JOURNAL OF CHEMICAL PHYSICS, 118 (10), 4365-4369 (2003). 
 An efficient orbital transformation method for electronic structure
 calculations.
 https://doi.org/10.1063/1.1543154

 Martyna, GJ; Tuckerman, ME. 
 JOURNAL OF CHEMICAL PHYSICS, 110 (6), 2810-2821 (1999). 
 A reciprocal space based method for treating long range interactions in
 ab initio and force-field-based calculations in clusters.
 https://doi.org/10.1063/1.477923

 Hartwigsen, C; Goedecker, S; Hutter, J. 
 PHYSICAL REVIEW B, 58 (7), 3641-3662 (1998). 
 Relativistic separable dual-space Gaussian pseudopotentials from H to Rn.
 https://doi.org/10.1103/PhysRevB.58.3641

 Lippert, G; Hutter, J; Parrinello, M. 
 MOLECULAR PHYSICS, 92 (3), 477-487 (1997). 
 A hybrid Gaussian and plane wave density functional scheme.
 https://doi.org/10.1080/002689797170220

 Perdew, JP; Burke, K; Ernzerhof, M. 
 PHYSICAL REVIEW LETTERS, 77 (18), 3865-3868 (1996). 
 Generalized gradient approximation made simple.
 https://doi.org/10.1103/PhysRevLett.77.3865

 Goedecker, S; Teter, M; Hutter, J. 
 PHYSICAL REVIEW B, 54 (3), 1703-1710 (1996). 
 Separable dual-space Gaussian pseudopotentials.
 https://doi.org/10.1103/PhysRevB.54.1703


 -------------------------------------------------------------------------------
 -                                                                             -
 -                                T I M I N G                                  -
 -                                                                             -
 -------------------------------------------------------------------------------
 SUBROUTINE                       CALLS  ASD         SELF TIME        TOTAL TIME
                                MAXIMUM       AVERAGE  MAXIMUM  AVERAGE  MAXIMUM
 CP2K                                 1  1.0    0.036    0.068   47.168   47.169
 qs_energies                          1  2.0    0.000    0.000   46.879   46.880
 scf_env_do_scf                       1  3.0    0.000    0.000   46.674   46.674
 qs_ks_update_qs_env                 18  5.0    0.000    0.000   44.389   44.392
 rebuild_ks_matrix                   16  6.0    0.000    0.000   44.387   44.389
 qs_ks_build_kohn_sham_matrix        16  7.0    0.003    0.003   44.387   44.389
 hfx_ks_matrix                       16  8.0    0.001    0.001   38.809   38.810
 integrate_four_center               16  9.0    0.014    0.017   38.808   38.809
 init_scf_loop                        2  4.0    0.000    0.000   29.214   29.215
 integrate_four_center_main          16 10.0    0.002    0.003    8.007   23.230
 integrate_four_center_bin         2016 11.0    8.005   23.228    8.005   23.228
 scf_env_do_scf_inner_loop           16  4.0    0.001    0.001   17.459   17.459
 mp_sync                             87 10.7   15.233   17.022   15.233   17.022
 calc_screening_functions             1 10.0   12.945   13.301   13.680   14.021
 pw_transfer                        311  9.6    0.028    0.035    3.957    4.564
 fft_wrap_pw1pw2                    279 10.7    0.004    0.005    3.899    4.508
 fft_wrap_pw1pw2_300                179 11.8    0.197    0.239    3.666    4.243
 fft3d_ps                           279 12.7    1.393    1.605    3.136    3.861
 qs_vxc_create                       16  8.0    0.000    0.001    3.515    3.526
 xc_vxc_pw_create                    16  9.0    0.028    0.029    3.515    3.526
 mp_alltoall_z22v                   279 14.7    1.408    2.224    1.408    2.224
 xc_rho_set_and_dset_create          16 10.0    0.015    0.018    1.884    2.189
 qs_rho_update_rho                   17  5.0    0.000    0.000    1.968    1.969
 calculate_rho_elec                  17  6.0    0.012    0.013    1.968    1.969
 yz_to_x                            134 13.1    0.139    0.166    0.951    1.631
 rs_pw_transfer                     133  9.4    0.003    0.004    1.469    1.572
 density_rs2pw                       17  7.0    0.001    0.001    1.420    1.528
 sum_up_and_integrate                16  8.0    0.006    0.008    1.459    1.461
 integrate_v_rspace_low              16  9.0    0.077    0.279    1.453    1.455
 calc_pair_dist_radii                 1 10.0    1.097    1.147    1.290    1.340
 potential_pw2rs                     16 10.0    0.001    0.001    1.162    1.164
 xc_functional_eval                  16 11.0    0.000    0.000    0.801    1.104
 pbe_lda_eval                        16 12.0    0.800    1.104    0.800    1.104
 powell_optimize                 341499 11.0    0.928    0.963    0.928    0.963
 -------------------------------------------------------------------------------

 The number of warnings for this run is : 0
 
 -------------------------------------------------------------------------------
  **** **** ******  **  PROGRAM ENDED AT                 2020-11-30 12:50:30.603
 ***** ** ***  *** **   PROGRAM RAN ON                                   tcopt10
 **    ****   ******    PROGRAM RAN BY                                    hutter
 ***** **    ** ** **   PROGRAM PROCESS ID                                 80698
  **** **  *******  **  PROGRAM STOPPED IN /data/hutter/GITHUB/BASIS/MOLOPT/PBE0
                                           /hbcnof
