 DBCSR| CPU Multiplication driver                                           XSMM
 DBCSR| Multrec recursion limit                                              512
 DBCSR| Multiplication stack size                                           1000
 DBCSR| Maximum elements for images                                    UNLIMITED
 DBCSR| Multiplicative factor virtual images                                   1
 DBCSR| Use multiplication densification                                       T
 DBCSR| Multiplication size stacks                                             3
 DBCSR| Use memory pool for CPU allocation                                     F
 DBCSR| Number of 3D layers                                               SINGLE
 DBCSR| Use MPI memory allocation                                              F
 DBCSR| Use RMA algorithm                                                      F
 DBCSR| Use Communication thread                                               T
 DBCSR| Communication thread load                                             87
 DBCSR| Split modifier for TAS multiplication algorithm                  1.0E+00


  **** **** ******  **  PROGRAM STARTED AT               2020-11-30 13:06:19.128
 ***** ** ***  *** **   PROGRAM STARTED ON                               tcopt10
 **    ****   ******    PROGRAM STARTED BY                                hutter
 ***** **    ** ** **   PROGRAM PROCESS ID                                 85105
  **** **  *******  **  PROGRAM STARTED IN /data/hutter/GITHUB/BASIS/MOLOPT/PBE0
                                           /hbcnof

 CP2K| version string:                    CP2K version 8.0 (Development Version)
 CP2K| source code revision number:                                  git:afc71fa
 CP2K| cp2kflags: omp libint fftw3 libxc elpa parallel mpi3 scalapack xsmm spgli
 CP2K|            b sirius
 CP2K| is freely available from                            https://www.cp2k.org/
 CP2K| Program compiled at                          Tue Nov 17 10:27:14 CET 2020
 CP2K| Program compiled on                                               tcopt10
 CP2K| Program compiled for                                                local
 CP2K| Data directory path                 /data/hutter/GITHUB/CURRENT/cp2k/data
 CP2K| Input file name                                               CH4-ref.inp

 GLOBAL| Force Environment number                                              1
 GLOBAL| Basis set file name                                  ../PBE0_UCSEGBASIS
 GLOBAL| Potential file name                                        ../POTENTIAL
 GLOBAL| MM Potential file name                                     MM_POTENTIAL
 GLOBAL| Coordinate file name                                      __STD_INPUT__
 GLOBAL| Method name                                                        CP2K
 GLOBAL| Project name                                                     refCH4
 GLOBAL| Preferred FFT library                                             FFTW3
 GLOBAL| Preferred diagonalization lib.                                     ELPA
 GLOBAL| Run type                                                         ENERGY
 GLOBAL| All-to-all communication in single precision                          F
 GLOBAL| FFTs using library dependent lengths                                  F
 GLOBAL| Global print level                                                  LOW
 GLOBAL| MPI I/O enabled                                                       T
 GLOBAL| Total number of message passing processes                            36
 GLOBAL| Number of threads for this process                                    1
 GLOBAL| This output is from process                                           0
 GLOBAL| CPU model name                          AMD EPYC 7401 24-Core Processor
 GLOBAL| CPUID                                                              1002

 MEMORY| system memory details [Kb]
 MEMORY|                        rank 0           min           max       average
 MEMORY| MemTotal            263987256     263987256     263987256     263987256
 MEMORY| MemFree             242280908     242280908     242280908     242280908
 MEMORY| Buffers                   148           148           148           148
 MEMORY| Cached               17824024      17824024      17824024      17824024
 MEMORY| Slab                   937868        937868        937868        937868
 MEMORY| SReclaimable           420280        420280        420280        420280
 MEMORY| MemLikelyFree       260525360     260525360     260525360     260525360


 GENERATE|  Preliminary Number of Bonds generated:                             3
 GENERATE|  Achieved consistency in connectivity generation.
 GENERATE|  Number of Bonds generated:                                         3
 GENERATE|  Preliminary Number of Bends generated:                             2
 GENERATE|  Number of Bends generated:                                         2
 GENERATE|  Number of UB generated:                                            2
 GENERATE|  Preliminary Number of Torsions generated:                          1
 GENERATE|  Number of Torsions generated:                                      1
 GENERATE|  Number of 1-4 interactions generated:                              1

 *******************************************************************************
 *******************************************************************************
 **                                                                           **
 **     #####                         ##              ##                      **
 **    ##   ##            ##          ##              ##                      **
 **   ##     ##                       ##            ######                    **
 **   ##     ##  ##   ##  ##   #####  ##  ##   ####   ##    #####    #####    **
 **   ##     ##  ##   ##  ##  ##      ## ##   ##      ##   ##   ##  ##   ##   **
 **   ##  ## ##  ##   ##  ##  ##      ####     ###    ##   ######   ######    **
 **    ##  ###   ##   ##  ##  ##      ## ##      ##   ##   ##       ##        **
 **     #######   #####   ##   #####  ##  ##  ####    ##    #####   ##        **
 **           ##                                                    ##        **
 **                                                                           **
 **                                                ... make the atoms dance   **
 **                                                                           **
 **            Copyright (C) by CP2K developers group (2000 - 2020)           **
 **                      J. Chem. Phys. 152, 194103 (2020)                    **
 **                                                                           **
 *******************************************************************************


 TOTAL NUMBERS AND MAXIMUM NUMBERS

  Total number of            - Atomic kinds:                                   2
                             - Atoms:                                          5
                             - Shell sets:                                    60
                             - Shells:                                       108
                             - Primitive Cartesian functions:                 60
                             - Cartesian basis functions:                    492
                             - Spherical basis functions:                    388

  Maximum angular momentum of- Orbital basis functions:                        4
                             - Local part of the GTH pseudopotential:          2
                             - Non-local part of the GTH pseudopotential:      0


 SCF PARAMETERS         Density guess:                                    ATOMIC
                        --------------------------------------------------------
                        max_scf:                                              10
                        max_scf_history:                                       0
                        max_diis:                                              4
                        --------------------------------------------------------
                        eps_scf:                                        1.00E-07
                        eps_scf_history:                                0.00E+00
                        eps_diis:                                       1.00E-01
                        eps_eigval:                                     1.00E-05
                        --------------------------------------------------------
                        level_shift [a.u.]:                                 0.00
                        --------------------------------------------------------
                        Outer loop SCF in use 
                        No variables optimised in outer loop
                        eps_scf                                         1.00E-07
                        max_scf                                               10
                        No outer loop optimization
                        step_size                                       5.00E-01

 Number of electrons:                                                          8
 Number of occupied orbitals:                                                  4
 Number of molecular orbitals:                                                 4

 Number of orbital functions:                                                388
 Number of independent orbital functions:                                    388

 Extrapolation method: initial_guess


 SCF WAVEFUNCTION OPTIMIZATION

  ----------------------------------- OT ---------------------------------------
  Minimizer      : DIIS                : direct inversion
                                         in the iterative subspace
                                         using   7 DIIS vectors
                                         safer DIIS on
  Preconditioner : FULL_ALL            : diagonalization, state selective
  Precond_solver : DEFAULT
  stepsize       :    0.15000000                  energy_gap     :    0.08000000
  eps_taylor     :   0.10000E-15                  max_taylor     :             4
  ----------------------------------- OT ---------------------------------------

  Step     Update method      Time    Convergence         Total energy    Change
  ------------------------------------------------------------------------------
     1 OT DIIS     0.15E+00   33.9     0.09080758        -7.3143685635 -7.31E+00
     2 OT DIIS     0.15E+00    1.3     0.06004576        -7.7742530609 -4.60E-01
     3 OT DIIS     0.15E+00    1.3     0.01156170        -8.0662409979 -2.92E-01
     4 OT DIIS     0.15E+00    1.2     0.00588257        -8.0827577915 -1.65E-02
     5 OT DIIS     0.15E+00    1.3     0.00159187        -8.0858823103 -3.12E-03
     6 OT DIIS     0.15E+00    1.2     0.00069345        -8.0861714082 -2.89E-04
     7 OT DIIS     0.15E+00    1.2     0.00017084        -8.0862317226 -6.03E-05
     8 OT DIIS     0.15E+00    1.2     0.00003233        -8.0862369434 -5.22E-06
     9 OT DIIS     0.15E+00    1.3     0.00001038        -8.0862371337 -1.90E-07
    10 OT DIIS     0.15E+00    1.2     0.00000616        -8.0862371514 -1.78E-08

  Leaving inner SCF loop after reaching    10 steps.


  Electronic density on regular grids:         -8.0000000000        0.0000000000
  Core density on regular grids:                8.0000000000       -0.0000000000
  Total charge density on r-space grids:        0.0000000000
  Total charge density g-space grids:           0.0000000000

  Overlap energy of the core charge distribution:               0.00000092682472
  Self energy of the core charge distribution:                -18.89706045233634
  Core Hamiltonian energy:                                      6.11740360172987
  Hartree energy:                                               7.86283050034101
  Exchange-correlation energy:                                 -2.43662213601208
  Hartree-Fock Exchange energy:                                -0.73278959198406

  Total energy:                                                -8.08623715143687

  outer SCF iter =    1 RMS gradient =   0.62E-05 energy =         -8.0862371514

  ----------------------------------- OT ---------------------------------------
  Minimizer      : DIIS                : direct inversion
                                         in the iterative subspace
                                         using   7 DIIS vectors
                                         safer DIIS on
  Preconditioner : FULL_ALL            : diagonalization, state selective
  Precond_solver : DEFAULT
  stepsize       :    0.15000000                  energy_gap     :    0.08000000
  eps_taylor     :   0.10000E-15                  max_taylor     :             4
  ----------------------------------- OT ---------------------------------------

  Step     Update method      Time    Convergence         Total energy    Change
  ------------------------------------------------------------------------------
     1 OT DIIS     0.15E+00    2.6     0.00000165        -8.0862371555 -4.05E-09
     2 OT DIIS     0.15E+00    1.2     0.00000071        -8.0862371559 -4.47E-10
     3 OT DIIS     0.15E+00    1.2     0.00000011        -8.0862371560 -1.04E-10
     4 OT DIIS     0.15E+00    1.2     0.00000002        -8.0862371560 -1.81E-12

  *** SCF run converged in     4 steps ***


  Electronic density on regular grids:         -8.0000000000        0.0000000000
  Core density on regular grids:                8.0000000000       -0.0000000000
  Total charge density on r-space grids:        0.0000000000
  Total charge density g-space grids:           0.0000000000

  Overlap energy of the core charge distribution:               0.00000092682472
  Self energy of the core charge distribution:                -18.89706045233634
  Core Hamiltonian energy:                                      6.11747046339304
  Hartree energy:                                               7.86278080539492
  Exchange-correlation energy:                                 -2.43663515920012
  Hartree-Fock Exchange energy:                                -0.73279374011421

  Total energy:                                                -8.08623715603799

  outer SCF iter =    2 RMS gradient =   0.20E-07 energy =         -8.0862371560
  outer SCF loop converged in   2 iterations or   14 steps


 ENERGY| Total FORCE_EVAL ( QS ) energy [a.u.]:               -8.086237156037990

 -------------------------------------------------------------------------------
 -                                                                             -
 -                                DBCSR STATISTICS                             -
 -                                                                             -
 -------------------------------------------------------------------------------
 COUNTER                                    TOTAL       BLAS       SMM       ACC
 flops     4 x     4 x     4                11264       0.0%    100.0%      0.0%
 flops     4 x     4 x   116               215296       0.0%    100.0%      0.0%
 flops   116 x     4 x     4               267264       0.0%    100.0%      0.0%
 flops     4 x     4 x    68               504832       0.0%    100.0%      0.0%
 flops    68 x     4 x     4               626688       0.0%    100.0%      0.0%
 flops   116 x   116 x     4              1614720       0.0%    100.0%      0.0%
 flops    68 x   116 x     4              1893120       0.0%    100.0%      0.0%
 flops   116 x    68 x     4              1893120       0.0%    100.0%      0.0%
 flops    68 x    68 x     4              5548800       0.0%    100.0%      0.0%
 flops   116 x     4 x   116              7965952       0.0%    100.0%      0.0%
 flops   116 x     4 x    68             18678784       0.0%    100.0%      0.0%
 flops    68 x     4 x   116             18678784       0.0%    100.0%      0.0%
 flops    68 x     4 x    68             43798528       0.0%    100.0%      0.0%
 flops inhomo. stacks                           0       0.0%      0.0%      0.0%
 flops total                       101.697152E+06       0.0%    100.0%      0.0%
 flops max/rank                     29.258112E+06       0.0%    100.0%      0.0%
 matmuls inhomo. stacks                         0       0.0%      0.0%      0.0%
 matmuls total                               2813       0.0%    100.0%      0.0%
 number of processed stacks                  2813       0.0%    100.0%      0.0%
 average stack size                                     0.0       1.0       0.0
 marketing flops                   108.837576E+06
 -------------------------------------------------------------------------------
 # multiplications                            309
 max memory usage/rank               1.298342E+09
 # max total images/rank                        1
 # max 3D layers                                1
 # MPI messages exchanged                  111240
 MPI messages size (bytes):
  total size                       463.896320E+06
  min size                           0.000000E+00
  max size                         107.648000E+03
  average size                       4.170229E+03
 MPI breakdown and total messages size (bytes):
             size <=      128               94690                   158720
       128 < size <=     8192                7300                 18127360
      8192 < size <=    32768                   0                        0
     32768 < size <=   131072                9250                445610240
    131072 < size <=  4194304                   0                        0
   4194304 < size <= 16777216                   0                        0
  16777216 < size                               0                        0
 -------------------------------------------------------------------------------
 -                                                                             -
 -                      DBCSR MESSAGE PASSING PERFORMANCE                      -
 -                                                                             -
 -------------------------------------------------------------------------------
 ROUTINE             CALLS      AVE VOLUME [Bytes]
 MP_Bcast               14                     12.
 MP_Allreduce         1662                      8.
 MP_Alltoall          1386                   4280.
 MP_ISend             7408                   4028.
 MP_IRecv             7408                   2801.
 -------------------------------------------------------------------------------

 -------------------------------------------------------------------------------
 -                                                                             -
 -                                GRID STATISTICS                              -
 -                                                                             -
 -------------------------------------------------------------------------------
 LP    KERNEL    OPERATION                                     COUNT     PERCENT
 0     general   collocate                                       180       0.29%
 0     ortho     integrate                                      8624      13.88%
 0     ortho     collocate                                      9240      14.87%
 1     ortho     integrate                                      3584       5.77%
 1     ortho     collocate                                      3840       6.18%
 2     ortho     integrate                                       896       1.44%
 2     ortho     collocate                                       960       1.55%
 3     ortho     integrate                                      8960      14.42%
 3     ortho     collocate                                      9600      15.45%
 4     ortho     integrate                                      3584       5.77%
 4     ortho     collocate                                      3840       6.18%
 5     ortho     integrate                                       896       1.44%
 5     ortho     collocate                                       960       1.55%
 6     ortho     integrate                                      2240       3.61%
 6     ortho     collocate                                      2400       3.86%
 7     ortho     integrate                                       896       1.44%
 7     ortho     collocate                                       960       1.55%
 8     ortho     integrate                                       224       0.36%
 8     ortho     collocate                                       240       0.39%
 -------------------------------------------------------------------------------

 MEMORY| Estimated peak process memory [MiB]                                1239

 -------------------------------------------------------------------------------
 -                                                                             -
 -                         MESSAGE PASSING PERFORMANCE                         -
 -                                                                             -
 -------------------------------------------------------------------------------

 ROUTINE             CALLS      AVE VOLUME [Bytes]
 MP_Group                5
 MP_Bcast              182                1023170.
 MP_Allreduce          566                   2457.
 MP_Sync                91
 MP_Alltoall           286                6160921.
 MP_ISendRecv         4095                 112012.
 MP_Wait              5385
 MP_comm_split          14
 MP_ISend             1200                 254016.
 MP_IRecv             1200                 254016.
 MP_Recv                 3                   3104.
 -------------------------------------------------------------------------------


 -------------------------------------------------------------------------------
 -                                                                             -
 -                           R E F E R E N C E S                               -
 -                                                                             -
 -------------------------------------------------------------------------------
 
 CP2K version 8.0 (Development Version), the CP2K developers group (2020).
 CP2K is freely available from https://www.cp2k.org/ .

 Kuehne,Thomas D.; Iannuzzi,Marcella; Del Ben,Mauro;
 Rybkin,Vladimir V.; Seewald,Patrick; Stein,Frederick; Laino,Teodoro;
 Khaliullin,Rustam Z.; Schuett,Ole; Schiffmann,Florian; Golze,Dorothea;
 Wilhelm,Jan; Chulkov,Sergey; Bani-Hashemian,Mohammad Hossein;
 Weber,Valery; Borstnik,Urban; Taillefumier,Mathieu;
 Jakobovits,Alice Shoshana; Lazzaro,Alfio; Pabst,Hans; Mueller,Tiziano;
 Schade,Robert; Guidon,Manuel; Andermatt,Samuel; Holmberg,Nico;
 Schenter,Gregory K.; Hehn,Anna; Bussy,Augustin; Belleflamme,Fabian;
 Tabacchi,Gloria; Gloess,Andreas; Lass,Michael; Bethune,Iain;
 Mundy,Christopher J.; Plessl,Christian; Watkins,Matt;
 VandeVondele,Joost; Krack,Matthias; Hutter,Juerg. 
 The Journal of Chemical Physics, 152 (19), (2020). 
 CP2K: An electronic structure and molecular dynamics software package -
 Quickstep: Efficient and accurate electronic structure calculations.
 https://doi.org/10.1063/5.0007045

 Schuett, Ole; Messmer, Peter; Hutter, Juerg; VandeVondele, Joost. 
 Electronic Structure Calculations on Graphics Processing Units, John
 Wiley & Sons, Ltd, 173-190 (2016). 
 GPU-Accelerated Sparse Matrix-Matrix Multiplication for
 Linear Scaling Density Functional Theory.
 https://doi.org/10.1002/9781118670712.ch8

 Borstnik, U; VandeVondele, J; Weber, V; Hutter, J. 
 PARALLEL COMPUTING, 40 (5-6), 47-58 (2014). 
 Sparse matrix multiplication: The distributed block-compressed sparse
 row library.
 https://doi.org/10.1016/j.parco.2014.03.012

 Hutter, J; Iannuzzi, M; Schiffmann, F; VandeVondele, J. 
 WIREs Comput Mol Sci., 4 (1), 15-25 (2014). 
 CP2K: atomistic simulations of condensed matter systems.
 https://doi.org/10.1002/wcms.1159

 Marek, A; Blum, V; Johanni, R; Havu, V; Lang, B; Auckenthaler, T;
 Heinecke, A; Bungartz, H; Lederer, H. 
 Journal of Physics: Condensed Matter, 26 (21), (2014). 
 The ELPA library: scalable parallel eigenvalue solutions for
 electronic structure
 theory and computational science.
 https://doi.org/10.1088/0953-8984/26/21/213201

 Guidon, M; Hutter, J; VandeVondele, J. 
 JOURNAL OF CHEMICAL THEORY AND COMPUTATION, 5 (11), 3010-3021 (2009). 
 Robust Periodic Hartree-Fock Exchange for Large-Scale Simulations Using
 Gaussian Basis Sets.
 https://doi.org/10.1021/ct900494g

 Guidon, M; Schiffmann, F; Hutter, J; VandeVondele, J. 
 JOURNAL OF CHEMICAL PHYSICS, 128 (21), 214104 (2008). 
 Ab initio molecular dynamics using hybrid density functionals.
 https://doi.org/10.1063/1.2931945

 Krack, M. 
 THEORETICAL CHEMISTRY ACCOUNTS, 114 (1-3), 145-152 (2005). 
 Pseudopotentials for H to Kr optimized for gradient-corrected
 exchange-correlation functionals.
 https://doi.org/10.1007/s00214-005-0655-y

 VandeVondele, J; Krack, M; Mohamed, F; Parrinello, M; Chassaing, T;
 Hutter, J. COMPUTER PHYSICS COMMUNICATIONS, 167 (2), 103-128 (2005). 
 QUICKSTEP: Fast and accurate density functional calculations using a
 mixed Gaussian and plane waves approach.
 https://doi.org/10.1016/j.cpc.2004.12.014

 Frigo, M; Johnson, SG. 
 PROCEEDINGS OF THE IEEE, 93 (2), 216-231 (2005). 
 The design and implementation of FFTW3.
 https://doi.org/10.1109/JPROC.2004.840301

 VandeVondele, J; Hutter, J. 
 JOURNAL OF CHEMICAL PHYSICS, 118 (10), 4365-4369 (2003). 
 An efficient orbital transformation method for electronic structure
 calculations.
 https://doi.org/10.1063/1.1543154

 Martyna, GJ; Tuckerman, ME. 
 JOURNAL OF CHEMICAL PHYSICS, 110 (6), 2810-2821 (1999). 
 A reciprocal space based method for treating long range interactions in
 ab initio and force-field-based calculations in clusters.
 https://doi.org/10.1063/1.477923

 Hartwigsen, C; Goedecker, S; Hutter, J. 
 PHYSICAL REVIEW B, 58 (7), 3641-3662 (1998). 
 Relativistic separable dual-space Gaussian pseudopotentials from H to Rn.
 https://doi.org/10.1103/PhysRevB.58.3641

 Lippert, G; Hutter, J; Parrinello, M. 
 MOLECULAR PHYSICS, 92 (3), 477-487 (1997). 
 A hybrid Gaussian and plane wave density functional scheme.
 https://doi.org/10.1080/002689797170220

 Perdew, JP; Burke, K; Ernzerhof, M. 
 PHYSICAL REVIEW LETTERS, 77 (18), 3865-3868 (1996). 
 Generalized gradient approximation made simple.
 https://doi.org/10.1103/PhysRevLett.77.3865

 Goedecker, S; Teter, M; Hutter, J. 
 PHYSICAL REVIEW B, 54 (3), 1703-1710 (1996). 
 Separable dual-space Gaussian pseudopotentials.
 https://doi.org/10.1103/PhysRevB.54.1703


 -------------------------------------------------------------------------------
 -                                                                             -
 -                                T I M I N G                                  -
 -                                                                             -
 -------------------------------------------------------------------------------
 SUBROUTINE                       CALLS  ASD         SELF TIME        TOTAL TIME
                                MAXIMUM       AVERAGE  MAXIMUM  AVERAGE  MAXIMUM
 CP2K                                 1  1.0    0.076    0.097   50.961   50.968
 qs_energies                          1  2.0    0.000    0.000   50.642   50.649
 scf_env_do_scf                       1  3.0    0.000    0.000   50.432   50.438
 qs_ks_update_qs_env                 16  5.0    0.000    0.000   48.313   48.319
 rebuild_ks_matrix                   14  6.0    0.000    0.000   48.312   48.317
 qs_ks_build_kohn_sham_matrix        14  7.0    0.002    0.003   48.311   48.317
 hfx_ks_matrix                       14  8.0    0.001    0.001   43.138   43.143
 integrate_four_center               14  9.0    0.013    0.015   43.137   43.142
 init_scf_loop                        2  4.0    0.000    0.000   35.072   35.076
 integrate_four_center_main          14 10.0    0.002    0.003   15.167   21.997
 integrate_four_center_bin         1764 11.0   15.165   21.995   15.165   21.995
 calc_screening_functions             1 10.0   18.491   18.855   19.109   19.473
 scf_env_do_scf_inner_loop           14  4.0    0.000    0.001   15.359   15.361
 mp_sync                             91 10.8    6.844    9.227    6.844    9.227
 pw_transfer                        273  9.6    0.024    0.029    3.486    3.959
 fft_wrap_pw1pw2                    245 10.7    0.003    0.004    3.435    3.894
 fft_wrap_pw1pw2_300                157 11.8    0.172    0.208    3.213    3.691
 fft3d_ps                           245 12.7    1.222    1.296    2.760    3.229
 qs_vxc_create                       14  8.0    0.000    0.000    3.153    3.162
 xc_vxc_pw_create                    14  9.0    0.024    0.025    3.152    3.162
 xc_rho_set_and_dset_create          14 10.0    0.013    0.016    1.726    1.971
 qs_rho_update_rho                   15  5.0    0.000    0.000    1.855    1.855
 calculate_rho_elec                  15  6.0    0.011    0.011    1.855    1.855
 mp_alltoall_z22v                   245 14.7    1.241    1.798    1.241    1.798
 rs_pw_transfer                     117  9.4    0.002    0.003    1.389    1.512
 sum_up_and_integrate                14  8.0    0.006    0.007    1.483    1.484
 integrate_v_rspace_low              14  9.0    0.094    0.443    1.478    1.479
 density_rs2pw                       15  7.0    0.001    0.001    1.345    1.463
 calc_pair_dist_radii                 1 10.0    1.234    1.244    1.413    1.424
 yz_to_x                            118 13.1    0.124    0.146    0.848    1.329
 xc_functional_eval                  14 11.0    0.000    0.000    0.780    1.024
 potential_pw2rs                     14 10.0    0.001    0.001    1.022    1.024
 pbe_lda_eval                        14 12.0    0.780    1.024    0.780    1.024
 -------------------------------------------------------------------------------

 The number of warnings for this run is : 0
 
 -------------------------------------------------------------------------------
  **** **** ******  **  PROGRAM ENDED AT                 2020-11-30 13:07:10.814
 ***** ** ***  *** **   PROGRAM RAN ON                                   tcopt10
 **    ****   ******    PROGRAM RAN BY                                    hutter
 ***** **    ** ** **   PROGRAM PROCESS ID                                 85105
  **** **  *******  **  PROGRAM STOPPED IN /data/hutter/GITHUB/BASIS/MOLOPT/PBE0
                                           /hbcnof
