 DBCSR| CPU Multiplication driver                                           XSMM
 DBCSR| Multrec recursion limit                                              512
 DBCSR| Multiplication stack size                                           1000
 DBCSR| Maximum elements for images                                    UNLIMITED
 DBCSR| Multiplicative factor virtual images                                   1
 DBCSR| Use multiplication densification                                       T
 DBCSR| Multiplication size stacks                                             3
 DBCSR| Use memory pool for CPU allocation                                     F
 DBCSR| Number of 3D layers                                               SINGLE
 DBCSR| Use MPI memory allocation                                              F
 DBCSR| Use RMA algorithm                                                      F
 DBCSR| Use Communication thread                                               T
 DBCSR| Communication thread load                                             87
 DBCSR| Split modifier for TAS multiplication algorithm                  1.0E+00


  **** **** ******  **  PROGRAM STARTED AT               2020-11-30 13:08:49.043
 ***** ** ***  *** **   PROGRAM STARTED ON                               tcopt10
 **    ****   ******    PROGRAM STARTED BY                                hutter
 ***** **    ** ** **   PROGRAM PROCESS ID                                 85896
  **** **  *******  **  PROGRAM STARTED IN /data/hutter/GITHUB/BASIS/MOLOPT/PBE0
                                           /hbcnof

 CP2K| version string:                    CP2K version 8.0 (Development Version)
 CP2K| source code revision number:                                  git:afc71fa
 CP2K| cp2kflags: omp libint fftw3 libxc elpa parallel mpi3 scalapack xsmm spgli
 CP2K|            b sirius
 CP2K| is freely available from                            https://www.cp2k.org/
 CP2K| Program compiled at                          Tue Nov 17 10:27:14 CET 2020
 CP2K| Program compiled on                                               tcopt10
 CP2K| Program compiled for                                                local
 CP2K| Data directory path                 /data/hutter/GITHUB/CURRENT/cp2k/data
 CP2K| Input file name                                                CO-ref.inp

 GLOBAL| Force Environment number                                              1
 GLOBAL| Basis set file name                                  ../PBE0_UCSEGBASIS
 GLOBAL| Potential file name                                        ../POTENTIAL
 GLOBAL| MM Potential file name                                     MM_POTENTIAL
 GLOBAL| Coordinate file name                                      __STD_INPUT__
 GLOBAL| Method name                                                        CP2K
 GLOBAL| Project name                                                      refCO
 GLOBAL| Preferred FFT library                                             FFTW3
 GLOBAL| Preferred diagonalization lib.                                     ELPA
 GLOBAL| Run type                                                         ENERGY
 GLOBAL| All-to-all communication in single precision                          F
 GLOBAL| FFTs using library dependent lengths                                  F
 GLOBAL| Global print level                                                  LOW
 GLOBAL| MPI I/O enabled                                                       T
 GLOBAL| Total number of message passing processes                            36
 GLOBAL| Number of threads for this process                                    1
 GLOBAL| This output is from process                                           0
 GLOBAL| CPU model name                          AMD EPYC 7401 24-Core Processor
 GLOBAL| CPUID                                                              1002

 MEMORY| system memory details [Kb]
 MEMORY|                        rank 0           min           max       average
 MEMORY| MemTotal            263987256     263987256     263987256     263987256
 MEMORY| MemFree             242274028     242274028     242274028     242274028
 MEMORY| Buffers                   148           148           148           148
 MEMORY| Cached               17824916      17824916      17824916      17824916
 MEMORY| Slab                   939152        939152        939152        939152
 MEMORY| SReclaimable           420728        420728        420728        420728
 MEMORY| MemLikelyFree       260519820     260519820     260519820     260519820


 GENERATE|  Preliminary Number of Bonds generated:                             0
 GENERATE|  Achieved consistency in connectivity generation.

 *******************************************************************************
 *******************************************************************************
 **                                                                           **
 **     #####                         ##              ##                      **
 **    ##   ##            ##          ##              ##                      **
 **   ##     ##                       ##            ######                    **
 **   ##     ##  ##   ##  ##   #####  ##  ##   ####   ##    #####    #####    **
 **   ##     ##  ##   ##  ##  ##      ## ##   ##      ##   ##   ##  ##   ##   **
 **   ##  ## ##  ##   ##  ##  ##      ####     ###    ##   ######   ######    **
 **    ##  ###   ##   ##  ##  ##      ## ##      ##   ##   ##       ##        **
 **     #######   #####   ##   #####  ##  ##  ####    ##    #####   ##        **
 **           ##                                                    ##        **
 **                                                                           **
 **                                                ... make the atoms dance   **
 **                                                                           **
 **            Copyright (C) by CP2K developers group (2000 - 2020)           **
 **                      J. Chem. Phys. 152, 194103 (2020)                    **
 **                                                                           **
 *******************************************************************************


 TOTAL NUMBERS AND MAXIMUM NUMBERS

  Total number of            - Atomic kinds:                                   2
                             - Atoms:                                          2
                             - Shell sets:                                    24
                             - Shells:                                        48
                             - Primitive Cartesian functions:                 24
                             - Cartesian basis functions:                    212
                             - Spherical basis functions:                    168

  Maximum angular momentum of- Orbital basis functions:                        4
                             - Local part of the GTH pseudopotential:          2
                             - Non-local part of the GTH pseudopotential:      0


 SCF PARAMETERS         Density guess:                                    ATOMIC
                        --------------------------------------------------------
                        max_scf:                                              10
                        max_scf_history:                                       0
                        max_diis:                                              4
                        --------------------------------------------------------
                        eps_scf:                                        1.00E-07
                        eps_scf_history:                                0.00E+00
                        eps_diis:                                       1.00E-01
                        eps_eigval:                                     1.00E-05
                        --------------------------------------------------------
                        level_shift [a.u.]:                                 0.00
                        --------------------------------------------------------
                        Outer loop SCF in use 
                        No variables optimised in outer loop
                        eps_scf                                         1.00E-07
                        max_scf                                               10
                        No outer loop optimization
                        step_size                                       5.00E-01

 Number of electrons:                                                         10
 Number of occupied orbitals:                                                  5
 Number of molecular orbitals:                                                 5

 Number of orbital functions:                                                168
 Number of independent orbital functions:                                    168

 Extrapolation method: initial_guess


 SCF WAVEFUNCTION OPTIMIZATION

  ----------------------------------- OT ---------------------------------------
  Minimizer      : DIIS                : direct inversion
                                         in the iterative subspace
                                         using   7 DIIS vectors
                                         safer DIIS on
  Preconditioner : FULL_ALL            : diagonalization, state selective
  Precond_solver : DEFAULT
  stepsize       :    0.15000000                  energy_gap     :    0.08000000
  eps_taylor     :   0.10000E-15                  max_taylor     :             4
  ----------------------------------- OT ---------------------------------------

  Step     Update method      Time    Convergence         Total energy    Change
  ------------------------------------------------------------------------------
     1 OT DIIS     0.15E+00   28.1     0.12374177       -20.4327353289 -2.04E+01
     2 OT DIIS     0.15E+00    1.4     0.12233707       -20.4557278109 -2.30E-02
     3 OT DIIS     0.15E+00    1.2     0.07066448       -21.1509410164 -6.95E-01
     4 OT SD       0.15E+00    1.2     0.05499756       -21.4282735774 -2.77E-01
     5 OT DIIS     0.15E+00    1.2     0.02468657       -21.6377046030 -2.09E-01
     6 OT DIIS     0.15E+00    1.2     0.04196759       -21.6002952554  3.74E-02
     7 OT DIIS     0.15E+00    1.2     0.02291995       -21.6567555840 -5.65E-02
     8 OT DIIS     0.15E+00    1.2     0.01190011       -21.6757296983 -1.90E-02
     9 OT DIIS     0.15E+00    1.2     0.00531457       -21.6788388519 -3.11E-03
    10 OT DIIS     0.15E+00    1.2     0.00279403       -21.6797060063 -8.67E-04

  Leaving inner SCF loop after reaching    10 steps.


  Electronic density on regular grids:         -9.9999999999        0.0000000001
  Core density on regular grids:               10.0000000000       -0.0000000000
  Total charge density on r-space grids:        0.0000000001
  Total charge density g-space grids:           0.0000000001

  Overlap energy of the core charge distribution:               0.00000312624149
  Self energy of the core charge distribution:                -54.43244496656952
  Core Hamiltonian energy:                                     15.56483716472166
  Hartree energy:                                              22.25374661496905
  Exchange-correlation energy:                                 -3.90081163574920
  Hartree-Fock Exchange energy:                                -1.16503630986371

  Total energy:                                               -21.67970600625023

  outer SCF iter =    1 RMS gradient =   0.28E-02 energy =        -21.6797060063

  ----------------------------------- OT ---------------------------------------
  Minimizer      : DIIS                : direct inversion
                                         in the iterative subspace
                                         using   7 DIIS vectors
                                         safer DIIS on
  Preconditioner : FULL_ALL            : diagonalization, state selective
  Precond_solver : DEFAULT
  stepsize       :    0.15000000                  energy_gap     :    0.08000000
  eps_taylor     :   0.10000E-15                  max_taylor     :             4
  ----------------------------------- OT ---------------------------------------

  Step     Update method      Time    Convergence         Total energy    Change
  ------------------------------------------------------------------------------
     1 OT DIIS     0.15E+00    2.4     0.00095450       -21.6799284331 -2.22E-04
     2 OT DIIS     0.15E+00    1.2     0.00046282       -21.6799964582 -6.80E-05
     3 OT DIIS     0.15E+00    1.2     0.00030459       -21.6800074087 -1.10E-05
     4 OT DIIS     0.15E+00    1.2     0.00004038       -21.6800123039 -4.90E-06
     5 OT DIIS     0.15E+00    1.2     0.00000886       -21.6800124738 -1.70E-07
     6 OT DIIS     0.15E+00    1.2     0.00000200       -21.6800124832 -9.39E-09
     7 OT DIIS     0.15E+00    1.2     0.00000022       -21.6800124836 -4.93E-10
     8 OT DIIS     0.15E+00    1.2     0.00000002       -21.6800124837 -5.65E-12

  *** SCF run converged in     8 steps ***


  Electronic density on regular grids:         -9.9999999999        0.0000000001
  Core density on regular grids:               10.0000000000       -0.0000000000
  Total charge density on r-space grids:        0.0000000001
  Total charge density g-space grids:           0.0000000001

  Overlap energy of the core charge distribution:               0.00000312624149
  Self energy of the core charge distribution:                -54.43244496656952
  Core Hamiltonian energy:                                     15.53745408865958
  Hartree energy:                                              22.27589483642378
  Exchange-correlation energy:                                 -3.89728379362234
  Hartree-Fock Exchange energy:                                -1.16363577478633

  Total energy:                                               -21.68001248365334

  outer SCF iter =    2 RMS gradient =   0.24E-07 energy =        -21.6800124837
  outer SCF loop converged in   2 iterations or   18 steps


 ENERGY| Total FORCE_EVAL ( QS ) energy [a.u.]:              -21.680012483653339

 -------------------------------------------------------------------------------
 -                                                                             -
 -                                DBCSR STATISTICS                             -
 -                                                                             -
 -------------------------------------------------------------------------------
 COUNTER                                    TOTAL       BLAS       SMM       ACC
 flops     5 x     5 x     5                32000       0.0%    100.0%      0.0%
 flops     5 x     5 x    52               192400       0.0%    100.0%      0.0%
 flops    52 x     5 x     5               239200       0.0%    100.0%      0.0%
 flops     5 x     5 x   116               429200       0.0%    100.0%      0.0%
 flops    52 x    52 x     5               513760       0.0%    100.0%      0.0%
 flops   116 x     5 x     5               533600       0.0%    100.0%      0.0%
 flops    52 x   116 x     5              1146080       0.0%    100.0%      0.0%
 flops    52 x     5 x    52              2433600       0.0%    100.0%      0.0%
 flops   116 x   116 x     5              2556640       0.0%    100.0%      0.0%
 flops   116 x     5 x    52              5428800       0.0%    100.0%      0.0%
 flops    52 x     5 x   116              5428800       0.0%    100.0%      0.0%
 flops   116 x     5 x   116             12110400       0.0%    100.0%      0.0%
 flops inhomo. stacks                           0       0.0%      0.0%      0.0%
 flops total                        31.044480E+06       0.0%    100.0%      0.0%
 flops max/rank                     21.283040E+06       0.0%    100.0%      0.0%
 matmuls inhomo. stacks                         0       0.0%      0.0%      0.0%
 matmuls total                                877       0.0%    100.0%      0.0%
 number of processed stacks                   877       0.0%    100.0%      0.0%
 average stack size                                     0.0       1.0       0.0
 marketing flops                    32.207286E+06
 -------------------------------------------------------------------------------
 # multiplications                            405
 max memory usage/rank               1.300771E+09
 # max total images/rank                        1
 # max 3D layers                                1
 # MPI messages exchanged                  145800
 MPI messages size (bytes):
  total size                       114.319200E+06
  min size                           0.000000E+00
  max size                         107.648000E+03
  average size                     784.082275E+00
 MPI breakdown and total messages size (bytes):
             size <=      128              138580                        0
       128 < size <=     8192                5420                 12712800
      8192 < size <=    32768                 450                  9734400
     32768 < size <=   131072                1350                 91872000
    131072 < size <=  4194304                   0                        0
   4194304 < size <= 16777216                   0                        0
  16777216 < size                               0                        0
 -------------------------------------------------------------------------------
 -                                                                             -
 -                      DBCSR MESSAGE PASSING PERFORMANCE                      -
 -                                                                             -
 -------------------------------------------------------------------------------
 ROUTINE             CALLS      AVE VOLUME [Bytes]
 MP_Bcast               13                     12.
 MP_Allreduce         2177                      8.
 MP_Alltoall          1634                   3734.
 MP_ISend             9712                   1735.
 MP_IRecv             9712                    554.
 -------------------------------------------------------------------------------

 -------------------------------------------------------------------------------
 -                                                                             -
 -                                GRID STATISTICS                              -
 -                                                                             -
 -------------------------------------------------------------------------------
 LP    KERNEL    OPERATION                                     COUNT     PERCENT
 0     general   collocate                                        72       0.45%
 2     ortho     integrate                                      3438      21.46%
 2     ortho     collocate                                      3629      22.65%
 3     ortho     integrate                                      1728      10.79%
 3     ortho     collocate                                      1824      11.39%
 4     ortho     integrate                                       288       1.80%
 4     ortho     collocate                                       304       1.90%
 5     ortho     integrate                                      1728      10.79%
 5     ortho     collocate                                      1824      11.39%
 6     ortho     integrate                                       288       1.80%
 6     ortho     collocate                                       304       1.90%
 8     ortho     integrate                                       288       1.80%
 8     ortho     collocate                                       304       1.90%
 -------------------------------------------------------------------------------

 MEMORY| Estimated peak process memory [MiB]                                1241

 -------------------------------------------------------------------------------
 -                                                                             -
 -                         MESSAGE PASSING PERFORMANCE                         -
 -                                                                             -
 -------------------------------------------------------------------------------

 ROUTINE             CALLS      AVE VOLUME [Bytes]
 MP_Group                5
 MP_Bcast              206                 904134.
 MP_Allreduce          626                   2225.
 MP_Sync               111
 MP_Alltoall           362                6317450.
 MP_ISendRecv         5215                 112415.
 MP_Wait              6849
 MP_comm_split          14
 MP_ISend             1520                 254016.
 MP_IRecv             1520                 254016.
 MP_Recv                 4                   1344.
 -------------------------------------------------------------------------------


 -------------------------------------------------------------------------------
 -                                                                             -
 -                           R E F E R E N C E S                               -
 -                                                                             -
 -------------------------------------------------------------------------------
 
 CP2K version 8.0 (Development Version), the CP2K developers group (2020).
 CP2K is freely available from https://www.cp2k.org/ .

 Kuehne,Thomas D.; Iannuzzi,Marcella; Del Ben,Mauro;
 Rybkin,Vladimir V.; Seewald,Patrick; Stein,Frederick; Laino,Teodoro;
 Khaliullin,Rustam Z.; Schuett,Ole; Schiffmann,Florian; Golze,Dorothea;
 Wilhelm,Jan; Chulkov,Sergey; Bani-Hashemian,Mohammad Hossein;
 Weber,Valery; Borstnik,Urban; Taillefumier,Mathieu;
 Jakobovits,Alice Shoshana; Lazzaro,Alfio; Pabst,Hans; Mueller,Tiziano;
 Schade,Robert; Guidon,Manuel; Andermatt,Samuel; Holmberg,Nico;
 Schenter,Gregory K.; Hehn,Anna; Bussy,Augustin; Belleflamme,Fabian;
 Tabacchi,Gloria; Gloess,Andreas; Lass,Michael; Bethune,Iain;
 Mundy,Christopher J.; Plessl,Christian; Watkins,Matt;
 VandeVondele,Joost; Krack,Matthias; Hutter,Juerg. 
 The Journal of Chemical Physics, 152 (19), (2020). 
 CP2K: An electronic structure and molecular dynamics software package -
 Quickstep: Efficient and accurate electronic structure calculations.
 https://doi.org/10.1063/5.0007045

 Schuett, Ole; Messmer, Peter; Hutter, Juerg; VandeVondele, Joost. 
 Electronic Structure Calculations on Graphics Processing Units, John
 Wiley & Sons, Ltd, 173-190 (2016). 
 GPU-Accelerated Sparse Matrix-Matrix Multiplication for
 Linear Scaling Density Functional Theory.
 https://doi.org/10.1002/9781118670712.ch8

 Borstnik, U; VandeVondele, J; Weber, V; Hutter, J. 
 PARALLEL COMPUTING, 40 (5-6), 47-58 (2014). 
 Sparse matrix multiplication: The distributed block-compressed sparse
 row library.
 https://doi.org/10.1016/j.parco.2014.03.012

 Hutter, J; Iannuzzi, M; Schiffmann, F; VandeVondele, J. 
 WIREs Comput Mol Sci., 4 (1), 15-25 (2014). 
 CP2K: atomistic simulations of condensed matter systems.
 https://doi.org/10.1002/wcms.1159

 Marek, A; Blum, V; Johanni, R; Havu, V; Lang, B; Auckenthaler, T;
 Heinecke, A; Bungartz, H; Lederer, H. 
 Journal of Physics: Condensed Matter, 26 (21), (2014). 
 The ELPA library: scalable parallel eigenvalue solutions for
 electronic structure
 theory and computational science.
 https://doi.org/10.1088/0953-8984/26/21/213201

 Guidon, M; Hutter, J; VandeVondele, J. 
 JOURNAL OF CHEMICAL THEORY AND COMPUTATION, 5 (11), 3010-3021 (2009). 
 Robust Periodic Hartree-Fock Exchange for Large-Scale Simulations Using
 Gaussian Basis Sets.
 https://doi.org/10.1021/ct900494g

 Guidon, M; Schiffmann, F; Hutter, J; VandeVondele, J. 
 JOURNAL OF CHEMICAL PHYSICS, 128 (21), 214104 (2008). 
 Ab initio molecular dynamics using hybrid density functionals.
 https://doi.org/10.1063/1.2931945

 Krack, M. 
 THEORETICAL CHEMISTRY ACCOUNTS, 114 (1-3), 145-152 (2005). 
 Pseudopotentials for H to Kr optimized for gradient-corrected
 exchange-correlation functionals.
 https://doi.org/10.1007/s00214-005-0655-y

 VandeVondele, J; Krack, M; Mohamed, F; Parrinello, M; Chassaing, T;
 Hutter, J. COMPUTER PHYSICS COMMUNICATIONS, 167 (2), 103-128 (2005). 
 QUICKSTEP: Fast and accurate density functional calculations using a
 mixed Gaussian and plane waves approach.
 https://doi.org/10.1016/j.cpc.2004.12.014

 Frigo, M; Johnson, SG. 
 PROCEEDINGS OF THE IEEE, 93 (2), 216-231 (2005). 
 The design and implementation of FFTW3.
 https://doi.org/10.1109/JPROC.2004.840301

 VandeVondele, J; Hutter, J. 
 JOURNAL OF CHEMICAL PHYSICS, 118 (10), 4365-4369 (2003). 
 An efficient orbital transformation method for electronic structure
 calculations.
 https://doi.org/10.1063/1.1543154

 Martyna, GJ; Tuckerman, ME. 
 JOURNAL OF CHEMICAL PHYSICS, 110 (6), 2810-2821 (1999). 
 A reciprocal space based method for treating long range interactions in
 ab initio and force-field-based calculations in clusters.
 https://doi.org/10.1063/1.477923

 Hartwigsen, C; Goedecker, S; Hutter, J. 
 PHYSICAL REVIEW B, 58 (7), 3641-3662 (1998). 
 Relativistic separable dual-space Gaussian pseudopotentials from H to Rn.
 https://doi.org/10.1103/PhysRevB.58.3641

 Lippert, G; Hutter, J; Parrinello, M. 
 MOLECULAR PHYSICS, 92 (3), 477-487 (1997). 
 A hybrid Gaussian and plane wave density functional scheme.
 https://doi.org/10.1080/002689797170220

 Perdew, JP; Burke, K; Ernzerhof, M. 
 PHYSICAL REVIEW LETTERS, 77 (18), 3865-3868 (1996). 
 Generalized gradient approximation made simple.
 https://doi.org/10.1103/PhysRevLett.77.3865

 Goedecker, S; Teter, M; Hutter, J. 
 PHYSICAL REVIEW B, 54 (3), 1703-1710 (1996). 
 Separable dual-space Gaussian pseudopotentials.
 https://doi.org/10.1103/PhysRevB.54.1703


 -------------------------------------------------------------------------------
 -                                                                             -
 -                                T I M I N G                                  -
 -                                                                             -
 -------------------------------------------------------------------------------
 SUBROUTINE                       CALLS  ASD         SELF TIME        TOTAL TIME
                                MAXIMUM       AVERAGE  MAXIMUM  AVERAGE  MAXIMUM
 CP2K                                 1  1.0    0.012    0.059   49.241   49.242
 qs_energies                          1  2.0    0.000    0.000   48.954   48.955
 scf_env_do_scf                       1  3.0    0.000    0.000   48.758   48.759
 qs_ks_update_qs_env                 20  5.0    0.000    0.000   46.340   46.342
 rebuild_ks_matrix                   18  6.0    0.000    0.000   46.338   46.340
 qs_ks_build_kohn_sham_matrix        18  7.0    0.003    0.003   46.338   46.340
 hfx_ks_matrix                       18  8.0    0.001    0.001   40.241   40.251
 integrate_four_center               18  9.0    0.027    0.036   40.240   40.250
 init_scf_loop                        2  4.0    0.000    0.000   29.129   29.129
 mp_sync                            111 10.8   23.347   24.700   23.347   24.700
 integrate_four_center_main          18 10.0    0.002    0.003    1.347   24.680
 integrate_four_center_bin         2304 11.0    1.345   24.678    1.345   24.678
 scf_env_do_scf_inner_loop           18  4.0    0.001    0.002   19.629   19.629
 calc_screening_functions             1 10.0   12.943   13.244   13.673   13.975
 pw_transfer                        349  9.6    0.031    0.042    4.457    5.144
 fft_wrap_pw1pw2                    313 10.7    0.004    0.005    4.391    5.087
 fft_wrap_pw1pw2_300                201 11.8    0.219    0.267    4.127    4.821
 fft3d_ps                           313 12.7    1.556    1.650    3.538    4.303
 qs_vxc_create                       18  8.0    0.000    0.001    3.988    4.001
 xc_vxc_pw_create                    18  9.0    0.031    0.033    3.988    4.000
 xc_rho_set_and_dset_create          18 10.0    0.017    0.020    2.143    2.489
 mp_alltoall_z22v                   313 14.7    1.613    2.457    1.613    2.457
 qs_rho_update_rho                   19  5.0    0.000    0.000    2.150    2.150
 calculate_rho_elec                  19  6.0    0.014    0.014    2.150    2.150
 yz_to_x                            150 13.1    0.150    0.184    1.098    1.843
 rs_pw_transfer                     149  9.4    0.003    0.004    1.652    1.730
 density_rs2pw                       19  7.0    0.001    0.001    1.583    1.656
 sum_up_and_integrate                18  8.0    0.008    0.013    1.451    1.466
 integrate_v_rspace_low              18  9.0    0.029    0.100    1.443    1.462
 potential_pw2rs                     18 10.0    0.001    0.002    1.327    1.342
 calc_pair_dist_radii                 1 10.0    1.113    1.119    1.306    1.313
 xc_functional_eval                  18 11.0    0.000    0.000    0.928    1.274
 pbe_lda_eval                        18 12.0    0.928    1.274    0.928    1.274
 x_to_yz                            163 14.2    0.209    0.238    0.874    0.989
 -------------------------------------------------------------------------------

 The number of warnings for this run is : 0
 
 -------------------------------------------------------------------------------
  **** **** ******  **  PROGRAM ENDED AT                 2020-11-30 13:09:39.028
 ***** ** ***  *** **   PROGRAM RAN ON                                   tcopt10
 **    ****   ******    PROGRAM RAN BY                                    hutter
 ***** **    ** ** **   PROGRAM PROCESS ID                                 85896
  **** **  *******  **  PROGRAM STOPPED IN /data/hutter/GITHUB/BASIS/MOLOPT/PBE0
                                           /hbcnof
