 DBCSR| CPU Multiplication driver                                           XSMM
 DBCSR| Multrec recursion limit                                              512
 DBCSR| Multiplication stack size                                           1000
 DBCSR| Maximum elements for images                                    UNLIMITED
 DBCSR| Multiplicative factor virtual images                                   1
 DBCSR| Use multiplication densification                                       T
 DBCSR| Multiplication size stacks                                             3
 DBCSR| Use memory pool for CPU allocation                                     F
 DBCSR| Number of 3D layers                                               SINGLE
 DBCSR| Use MPI memory allocation                                              F
 DBCSR| Use RMA algorithm                                                      F
 DBCSR| Use Communication thread                                               T
 DBCSR| Communication thread load                                             87
 DBCSR| Split modifier for TAS multiplication algorithm                  1.0E+00


  **** **** ******  **  PROGRAM STARTED AT               2020-11-30 12:48:39.533
 ***** ** ***  *** **   PROGRAM STARTED ON                               tcopt10
 **    ****   ******    PROGRAM STARTED BY                                hutter
 ***** **    ** ** **   PROGRAM PROCESS ID                                 80026
  **** **  *******  **  PROGRAM STARTED IN /data/hutter/GITHUB/BASIS/MOLOPT/PBE0
                                           /hbcnof

 CP2K| version string:                    CP2K version 8.0 (Development Version)
 CP2K| source code revision number:                                  git:afc71fa
 CP2K| cp2kflags: omp libint fftw3 libxc elpa parallel mpi3 scalapack xsmm spgli
 CP2K|            b sirius
 CP2K| is freely available from                            https://www.cp2k.org/
 CP2K| Program compiled at                          Tue Nov 17 10:27:14 CET 2020
 CP2K| Program compiled on                                               tcopt10
 CP2K| Program compiled for                                                local
 CP2K| Data directory path                 /data/hutter/GITHUB/CURRENT/cp2k/data
 CP2K| Input file name                                                F2-ref.inp

 GLOBAL| Force Environment number                                              1
 GLOBAL| Basis set file name                                  ../PBE0_UCSEGBASIS
 GLOBAL| Potential file name                                        ../POTENTIAL
 GLOBAL| MM Potential file name                                     MM_POTENTIAL
 GLOBAL| Coordinate file name                                      __STD_INPUT__
 GLOBAL| Method name                                                        CP2K
 GLOBAL| Project name                                                      refF2
 GLOBAL| Preferred FFT library                                             FFTW3
 GLOBAL| Preferred diagonalization lib.                                     ELPA
 GLOBAL| Run type                                                         ENERGY
 GLOBAL| All-to-all communication in single precision                          F
 GLOBAL| FFTs using library dependent lengths                                  F
 GLOBAL| Global print level                                                  LOW
 GLOBAL| MPI I/O enabled                                                       T
 GLOBAL| Total number of message passing processes                            36
 GLOBAL| Number of threads for this process                                    1
 GLOBAL| This output is from process                                           0
 GLOBAL| CPU model name                          AMD EPYC 7401 24-Core Processor
 GLOBAL| CPUID                                                              1002

 MEMORY| system memory details [Kb]
 MEMORY|                        rank 0           min           max       average
 MEMORY| MemTotal            263987256     263987256     263987256     263987256
 MEMORY| MemFree             242275860     242275860     242275860     242275860
 MEMORY| Buffers                   148           148           148           148
 MEMORY| Cached               17817440      17817440      17817440      17817440
 MEMORY| Slab                   933304        933304        933304        933304
 MEMORY| SReclaimable           417976        417976        417976        417976
 MEMORY| MemLikelyFree       260511424     260511424     260511424     260511424


 GENERATE|  Preliminary Number of Bonds generated:                             1
 GENERATE|  Achieved consistency in connectivity generation.
 GENERATE|  Number of Bonds generated:                                         1
 GENERATE|  Preliminary Number of Bends generated:                             0
 GENERATE|  Preliminary Number of Torsions generated:                          0

 *******************************************************************************
 *******************************************************************************
 **                                                                           **
 **     #####                         ##              ##                      **
 **    ##   ##            ##          ##              ##                      **
 **   ##     ##                       ##            ######                    **
 **   ##     ##  ##   ##  ##   #####  ##  ##   ####   ##    #####    #####    **
 **   ##     ##  ##   ##  ##  ##      ## ##   ##      ##   ##   ##  ##   ##   **
 **   ##  ## ##  ##   ##  ##  ##      ####     ###    ##   ######   ######    **
 **    ##  ###   ##   ##  ##  ##      ## ##      ##   ##   ##       ##        **
 **     #######   #####   ##   #####  ##  ##  ####    ##    #####   ##        **
 **           ##                                                    ##        **
 **                                                                           **
 **                                                ... make the atoms dance   **
 **                                                                           **
 **            Copyright (C) by CP2K developers group (2000 - 2020)           **
 **                      J. Chem. Phys. 152, 194103 (2020)                    **
 **                                                                           **
 *******************************************************************************


 TOTAL NUMBERS AND MAXIMUM NUMBERS

  Total number of            - Atomic kinds:                                   1
                             - Atoms:                                          2
                             - Shell sets:                                    24
                             - Shells:                                        40
                             - Primitive Cartesian functions:                 24
                             - Cartesian basis functions:                    112
                             - Spherical basis functions:                    104

  Maximum angular momentum of- Orbital basis functions:                        2
                             - Local part of the GTH pseudopotential:          2
                             - Non-local part of the GTH pseudopotential:      0


 SCF PARAMETERS         Density guess:                                    ATOMIC
                        --------------------------------------------------------
                        max_scf:                                              10
                        max_scf_history:                                       0
                        max_diis:                                              4
                        --------------------------------------------------------
                        eps_scf:                                        1.00E-07
                        eps_scf_history:                                0.00E+00
                        eps_diis:                                       1.00E-01
                        eps_eigval:                                     1.00E-05
                        --------------------------------------------------------
                        level_shift [a.u.]:                                 0.00
                        --------------------------------------------------------
                        Outer loop SCF in use 
                        No variables optimised in outer loop
                        eps_scf                                         1.00E-07
                        max_scf                                               10
                        No outer loop optimization
                        step_size                                       5.00E-01

 Number of electrons:                                                         14
 Number of occupied orbitals:                                                  7
 Number of molecular orbitals:                                                 7

 Number of orbital functions:                                                104
 Number of independent orbital functions:                                    104

 Extrapolation method: initial_guess


 SCF WAVEFUNCTION OPTIMIZATION

  ----------------------------------- OT ---------------------------------------
  Minimizer      : DIIS                : direct inversion
                                         in the iterative subspace
                                         using   7 DIIS vectors
                                         safer DIIS on
  Preconditioner : FULL_ALL            : diagonalization, state selective
  Precond_solver : DEFAULT
  stepsize       :    0.15000000                  energy_gap     :    0.08000000
  eps_taylor     :   0.10000E-15                  max_taylor     :             4
  ----------------------------------- OT ---------------------------------------

  Step     Update method      Time    Convergence         Total energy    Change
  ------------------------------------------------------------------------------
     1 OT DIIS     0.15E+00    1.4     0.09732313       -47.5776738531 -4.76E+01
     2 OT DIIS     0.15E+00    0.5     0.13869803       -47.6384131119 -6.07E-02
     3 OT DIIS     0.15E+00    0.5     0.06597407       -47.9927912950 -3.54E-01
     4 OT DIIS     0.15E+00    0.5     0.11118567       -47.9958153932 -3.02E-03
     5 OT DIIS     0.15E+00    0.5     0.07277704       -48.0943808988 -9.86E-02
     6 OT DIIS     0.15E+00    0.5     0.04153459       -48.1696169459 -7.52E-02
     7 OT DIIS     0.15E+00    0.5     0.03501126       -48.1908091668 -2.12E-02
     8 OT DIIS     0.15E+00    0.5     0.02805599       -48.2235186282 -3.27E-02
     9 OT DIIS     0.15E+00    0.5     0.01862998       -48.2469867840 -2.35E-02
    10 OT DIIS     0.15E+00    0.5     0.00744474       -48.2503881005 -3.40E-03

  Leaving inner SCF loop after reaching    10 steps.


  Electronic density on regular grids:        -14.0000000676       -0.0000000676
  Core density on regular grids:               14.0000000000        0.0000000000
  Total charge density on r-space grids:       -0.0000000676
  Total charge density g-space grids:          -0.0000000676

  Overlap energy of the core charge distribution:               0.00000000000000
  Self energy of the core charge distribution:               -131.18959229061613
  Core Hamiltonian energy:                                     35.94143522705943
  Hartree energy:                                              56.12811336628523
  Exchange-correlation energy:                                 -7.00303088105647
  Hartree-Fock Exchange energy:                                -2.12731352216978

  Total energy:                                               -48.25038810049772

  outer SCF iter =    1 RMS gradient =   0.74E-02 energy =        -48.2503881005

  ----------------------------------- OT ---------------------------------------
  Minimizer      : DIIS                : direct inversion
                                         in the iterative subspace
                                         using   7 DIIS vectors
                                         safer DIIS on
  Preconditioner : FULL_ALL            : diagonalization, state selective
  Precond_solver : DEFAULT
  stepsize       :    0.15000000                  energy_gap     :    0.08000000
  eps_taylor     :   0.10000E-15                  max_taylor     :             4
  ----------------------------------- OT ---------------------------------------

  Step     Update method      Time    Convergence         Total energy    Change
  ------------------------------------------------------------------------------
     1 OT DIIS     0.15E+00    1.0     0.00190720       -48.2533634201 -2.98E-03
     2 OT DIIS     0.15E+00    0.5     0.00127025       -48.2536039624 -2.41E-04
     3 OT DIIS     0.15E+00    0.5     0.00077890       -48.2536778751 -7.39E-05
     4 OT DIIS     0.15E+00    0.5     0.00013680       -48.2537315813 -5.37E-05
     5 OT DIIS     0.15E+00    0.5     0.00002656       -48.2537339831 -2.40E-06
     6 OT DIIS     0.15E+00    0.5     0.00000814       -48.2537340528 -6.97E-08
     7 OT DIIS     0.15E+00    0.5     0.00000232       -48.2537340601 -7.34E-09
     8 OT DIIS     0.15E+00    0.5     0.00000050       -48.2537340607 -5.54E-10
     9 OT DIIS     0.15E+00    0.5     0.00000010       -48.2537340607 -1.66E-11

  *** SCF run converged in     9 steps ***


  Electronic density on regular grids:        -14.0000000690       -0.0000000690
  Core density on regular grids:               14.0000000000        0.0000000000
  Total charge density on r-space grids:       -0.0000000690
  Total charge density g-space grids:          -0.0000000690

  Overlap energy of the core charge distribution:               0.00000000000000
  Self energy of the core charge distribution:               -131.18959229061613
  Core Hamiltonian energy:                                     35.92252478965888
  Hartree energy:                                              56.14124054150493
  Exchange-correlation energy:                                 -7.00097969021585
  Hartree-Fock Exchange energy:                                -2.12692741104412

  Total energy:                                               -48.25373406071230

  outer SCF iter =    2 RMS gradient =   0.99E-07 energy =        -48.2537340607
  outer SCF loop converged in   2 iterations or   19 steps


 ENERGY| Total FORCE_EVAL ( QS ) energy [a.u.]:              -48.253734060712304

 -------------------------------------------------------------------------------
 -                                                                             -
 -                                DBCSR STATISTICS                             -
 -                                                                             -
 -------------------------------------------------------------------------------
 COUNTER                                    TOTAL       BLAS       SMM       ACC
 flops     7 x     7 x     7               116620       0.0%    100.0%      0.0%
 flops     7 x     7 x    52               794976       0.0%    100.0%      0.0%
 flops    52 x     7 x     7               988624       0.0%    100.0%      0.0%
 flops    52 x    52 x     7              2271360       0.0%    100.0%      0.0%
 flops    52 x     7 x    52             14233856       0.0%    100.0%      0.0%
 flops inhomo. stacks                           0       0.0%      0.0%      0.0%
 flops total                        18.405436E+06       0.0%    100.0%      0.0%
 flops max/rank                      9.279956E+06       0.0%    100.0%      0.0%
 matmuls inhomo. stacks                         0       0.0%      0.0%      0.0%
 matmuls total                                956       0.0%    100.0%      0.0%
 number of processed stacks                   956       0.0%    100.0%      0.0%
 average stack size                                     0.0       1.0       0.0
 marketing flops                    19.183004E+06
 -------------------------------------------------------------------------------
 # multiplications                            461
 max memory usage/rank             348.499968E+06
 # max total images/rank                        1
 # max 3D layers                                1
 # MPI messages exchanged                  165960
 MPI messages size (bytes):
  total size                        52.794120E+06
  min size                           0.000000E+00
  max size                          21.632000E+03
  average size                     318.113525E+00
 MPI breakdown and total messages size (bytes):
             size <=      128              158025                        0
       128 < size <=     8192                6055                 12125960
      8192 < size <=    32768                1880                 40668160
     32768 < size <=   131072                   0                        0
    131072 < size <=  4194304                   0                        0
   4194304 < size <= 16777216                   0                        0
  16777216 < size                               0                        0
 -------------------------------------------------------------------------------
 -                                                                             -
 -                      DBCSR MESSAGE PASSING PERFORMANCE                      -
 -                                                                             -
 -------------------------------------------------------------------------------
 ROUTINE             CALLS      AVE VOLUME [Bytes]
 MP_Bcast                6                     12.
 MP_Allreduce         2453                      8.
 MP_Alltoall          1760                   2323.
 MP_ISend            11056                    608.
 MP_IRecv            11056                    305.
 -------------------------------------------------------------------------------

 -------------------------------------------------------------------------------
 -                                                                             -
 -                                GRID STATISTICS                              -
 -                                                                             -
 -------------------------------------------------------------------------------
 LP    KERNEL    OPERATION                                     COUNT     PERCENT
 0     general   collocate                                        72       0.43%
 2     ortho     integrate                                      3496      21.05%
 2     ortho     collocate                                      3680      22.16%
 3     ortho     integrate                                      3648      21.97%
 3     ortho     collocate                                      3840      23.12%
 4     ortho     integrate                                       912       5.49%
 4     ortho     collocate                                       960       5.78%
 -------------------------------------------------------------------------------

 MEMORY| Estimated peak process memory [MiB]                                 333

 -------------------------------------------------------------------------------
 -                                                                             -
 -                         MESSAGE PASSING PERFORMANCE                         -
 -                                                                             -
 -------------------------------------------------------------------------------

 ROUTINE             CALLS      AVE VOLUME [Bytes]
 MP_Group                5
 MP_Bcast              179                 520799.
 MP_Allreduce          593                   2351.
 MP_Sync               116
 MP_Alltoall           383                6122410.
 MP_ISendRecv         4130                  29448.
 MP_Wait              7761
 MP_comm_split          14
 MP_ISend             3316                 163848.
 MP_IRecv             3316                 163848.
 MP_Recv                 3                   1664.
 -------------------------------------------------------------------------------


 -------------------------------------------------------------------------------
 -                                                                             -
 -                           R E F E R E N C E S                               -
 -                                                                             -
 -------------------------------------------------------------------------------
 
 CP2K version 8.0 (Development Version), the CP2K developers group (2020).
 CP2K is freely available from https://www.cp2k.org/ .

 Kuehne,Thomas D.; Iannuzzi,Marcella; Del Ben,Mauro;
 Rybkin,Vladimir V.; Seewald,Patrick; Stein,Frederick; Laino,Teodoro;
 Khaliullin,Rustam Z.; Schuett,Ole; Schiffmann,Florian; Golze,Dorothea;
 Wilhelm,Jan; Chulkov,Sergey; Bani-Hashemian,Mohammad Hossein;
 Weber,Valery; Borstnik,Urban; Taillefumier,Mathieu;
 Jakobovits,Alice Shoshana; Lazzaro,Alfio; Pabst,Hans; Mueller,Tiziano;
 Schade,Robert; Guidon,Manuel; Andermatt,Samuel; Holmberg,Nico;
 Schenter,Gregory K.; Hehn,Anna; Bussy,Augustin; Belleflamme,Fabian;
 Tabacchi,Gloria; Gloess,Andreas; Lass,Michael; Bethune,Iain;
 Mundy,Christopher J.; Plessl,Christian; Watkins,Matt;
 VandeVondele,Joost; Krack,Matthias; Hutter,Juerg. 
 The Journal of Chemical Physics, 152 (19), (2020). 
 CP2K: An electronic structure and molecular dynamics software package -
 Quickstep: Efficient and accurate electronic structure calculations.
 https://doi.org/10.1063/5.0007045

 Schuett, Ole; Messmer, Peter; Hutter, Juerg; VandeVondele, Joost. 
 Electronic Structure Calculations on Graphics Processing Units, John
 Wiley & Sons, Ltd, 173-190 (2016). 
 GPU-Accelerated Sparse Matrix-Matrix Multiplication for
 Linear Scaling Density Functional Theory.
 https://doi.org/10.1002/9781118670712.ch8

 Borstnik, U; VandeVondele, J; Weber, V; Hutter, J. 
 PARALLEL COMPUTING, 40 (5-6), 47-58 (2014). 
 Sparse matrix multiplication: The distributed block-compressed sparse
 row library.
 https://doi.org/10.1016/j.parco.2014.03.012

 Hutter, J; Iannuzzi, M; Schiffmann, F; VandeVondele, J. 
 WIREs Comput Mol Sci., 4 (1), 15-25 (2014). 
 CP2K: atomistic simulations of condensed matter systems.
 https://doi.org/10.1002/wcms.1159

 Marek, A; Blum, V; Johanni, R; Havu, V; Lang, B; Auckenthaler, T;
 Heinecke, A; Bungartz, H; Lederer, H. 
 Journal of Physics: Condensed Matter, 26 (21), (2014). 
 The ELPA library: scalable parallel eigenvalue solutions for
 electronic structure
 theory and computational science.
 https://doi.org/10.1088/0953-8984/26/21/213201

 Guidon, M; Hutter, J; VandeVondele, J. 
 JOURNAL OF CHEMICAL THEORY AND COMPUTATION, 5 (11), 3010-3021 (2009). 
 Robust Periodic Hartree-Fock Exchange for Large-Scale Simulations Using
 Gaussian Basis Sets.
 https://doi.org/10.1021/ct900494g

 Guidon, M; Schiffmann, F; Hutter, J; VandeVondele, J. 
 JOURNAL OF CHEMICAL PHYSICS, 128 (21), 214104 (2008). 
 Ab initio molecular dynamics using hybrid density functionals.
 https://doi.org/10.1063/1.2931945

 Krack, M. 
 THEORETICAL CHEMISTRY ACCOUNTS, 114 (1-3), 145-152 (2005). 
 Pseudopotentials for H to Kr optimized for gradient-corrected
 exchange-correlation functionals.
 https://doi.org/10.1007/s00214-005-0655-y

 VandeVondele, J; Krack, M; Mohamed, F; Parrinello, M; Chassaing, T;
 Hutter, J. COMPUTER PHYSICS COMMUNICATIONS, 167 (2), 103-128 (2005). 
 QUICKSTEP: Fast and accurate density functional calculations using a
 mixed Gaussian and plane waves approach.
 https://doi.org/10.1016/j.cpc.2004.12.014

 Frigo, M; Johnson, SG. 
 PROCEEDINGS OF THE IEEE, 93 (2), 216-231 (2005). 
 The design and implementation of FFTW3.
 https://doi.org/10.1109/JPROC.2004.840301

 VandeVondele, J; Hutter, J. 
 JOURNAL OF CHEMICAL PHYSICS, 118 (10), 4365-4369 (2003). 
 An efficient orbital transformation method for electronic structure
 calculations.
 https://doi.org/10.1063/1.1543154

 Martyna, GJ; Tuckerman, ME. 
 JOURNAL OF CHEMICAL PHYSICS, 110 (6), 2810-2821 (1999). 
 A reciprocal space based method for treating long range interactions in
 ab initio and force-field-based calculations in clusters.
 https://doi.org/10.1063/1.477923

 Hartwigsen, C; Goedecker, S; Hutter, J. 
 PHYSICAL REVIEW B, 58 (7), 3641-3662 (1998). 
 Relativistic separable dual-space Gaussian pseudopotentials from H to Rn.
 https://doi.org/10.1103/PhysRevB.58.3641

 Lippert, G; Hutter, J; Parrinello, M. 
 MOLECULAR PHYSICS, 92 (3), 477-487 (1997). 
 A hybrid Gaussian and plane wave density functional scheme.
 https://doi.org/10.1080/002689797170220

 Perdew, JP; Burke, K; Ernzerhof, M. 
 PHYSICAL REVIEW LETTERS, 77 (18), 3865-3868 (1996). 
 Generalized gradient approximation made simple.
 https://doi.org/10.1103/PhysRevLett.77.3865

 Goedecker, S; Teter, M; Hutter, J. 
 PHYSICAL REVIEW B, 54 (3), 1703-1710 (1996). 
 Separable dual-space Gaussian pseudopotentials.
 https://doi.org/10.1103/PhysRevB.54.1703


 -------------------------------------------------------------------------------
 -                                                                             -
 -                                T I M I N G                                  -
 -                                                                             -
 -------------------------------------------------------------------------------
 SUBROUTINE                       CALLS  ASD         SELF TIME        TOTAL TIME
                                MAXIMUM       AVERAGE  MAXIMUM  AVERAGE  MAXIMUM
 CP2K                                 1  1.0    0.008    0.011   10.562   10.563
 qs_energies                          1  2.0    0.000    0.000   10.340   10.340
 scf_env_do_scf                       1  3.0    0.000    0.000   10.166   10.167
 scf_env_do_scf_inner_loop           19  4.0    0.001    0.002    8.428    8.428
 qs_ks_update_qs_env                 21  5.0    0.000    0.000    7.870    7.871
 rebuild_ks_matrix                   19  6.0    0.000    0.000    7.868    7.869
 qs_ks_build_kohn_sham_matrix        19  7.0    0.003    0.004    7.868    7.869
 pw_transfer                        368  9.6    0.032    0.039    4.826    5.375
 fft_wrap_pw1pw2                    330 10.7    0.004    0.006    4.757    5.313
 fft_wrap_pw1pw2_300                212 11.8    0.234    0.278    4.480    5.026
 fft3d_ps                           330 12.7    1.654    1.812    3.849    4.531
 qs_vxc_create                       19  8.0    0.001    0.001    3.889    3.901
 xc_vxc_pw_create                    19  9.0    0.034    0.036    3.888    3.901
 mp_alltoall_z22v                   330 14.7    1.799    2.564    1.799    2.564
 xc_rho_set_and_dset_create          19 10.0    0.018    0.021    1.867    2.299
 qs_rho_update_rho                   20  5.0    0.000    0.000    1.994    1.994
 calculate_rho_elec                  20  6.0    0.015    0.015    1.994    1.994
 hfx_ks_matrix                       19  8.0    0.001    0.001    1.936    1.938
 integrate_four_center               19  9.0    0.007    0.007    1.935    1.935
 yz_to_x                            158 13.1    0.162    0.200    1.230    1.845
 init_scf_loop                        2  4.0    0.000    0.000    1.738    1.738
 density_rs2pw                       20  7.0    0.001    0.001    1.582    1.662
 rs_pw_transfer                     157  9.4    0.003    0.004    1.414    1.503
 sum_up_and_integrate                19  8.0    0.009    0.011    1.346    1.347
 integrate_v_rspace_low              19  9.0    0.016    0.145    1.337    1.339
 mp_sync                            116 10.8    1.083    1.286    1.083    1.286
 integrate_four_center_main          19 10.0    0.002    0.003    0.203    1.236
 integrate_four_center_bin         2432 11.0    0.201    1.235    0.201    1.235
 potential_pw2rs                     19 10.0    0.002    0.002    1.186    1.188
 x_to_yz                            172 14.2    0.224    0.254    0.955    1.091
 xc_functional_eval                  19 11.0    0.000    0.000    0.561    0.993
 pbe_lda_eval                        19 12.0    0.561    0.993    0.561    0.993
 mp_waitany                        3316 11.4    0.472    0.669    0.472    0.669
 rs_pw_transfer_RS2PW_300            21  8.9    0.236    0.316    0.474    0.559
 rs_pw_transfer_PW2RS_300            19 12.0    0.224    0.283    0.399    0.457
 grid_collocate_task_list            20  7.0    0.230    0.416    0.230    0.416
 pw_gather_p                        158 12.1    0.313    0.394    0.313    0.394
 pw_scatter_p                       172 13.2    0.340    0.384    0.340    0.384
 calc_screening_functions             1 10.0    0.173    0.181    0.352    0.364
 qs_scf_new_mos                      19  5.0    0.000    0.000    0.342    0.343
 qs_scf_loop_do_ot                   19  6.0    0.000    0.000    0.342    0.343
 ot_scf_mini                         19  7.0    0.000    0.000    0.329    0.330
 dbcsr_multiply_generic             461 10.1    0.012    0.012    0.318    0.320
 mp_waitall_1                     33949 13.9    0.216    0.311    0.216    0.311
 pw_poisson_solve                    19  8.0    0.047    0.063    0.273    0.273
 rs_pw_transfer_PW2RS_100            19 12.0    0.073    0.095    0.217    0.270
 powell_optimize                  85615 11.0    0.233    0.238    0.233    0.238
 rs_grid_zero                       119  8.9    0.199    0.224    0.199    0.224
 ot_mini                             19  8.0    0.000    0.000    0.219    0.219
 mp_alltoall_d11v                   429 11.4    0.178    0.213    0.178    0.213
 -------------------------------------------------------------------------------

 The number of warnings for this run is : 0
 
 -------------------------------------------------------------------------------
  **** **** ******  **  PROGRAM ENDED AT                 2020-11-30 12:48:50.829
 ***** ** ***  *** **   PROGRAM RAN ON                                   tcopt10
 **    ****   ******    PROGRAM RAN BY                                    hutter
 ***** **    ** ** **   PROGRAM PROCESS ID                                 80026
  **** **  *******  **  PROGRAM STOPPED IN /data/hutter/GITHUB/BASIS/MOLOPT/PBE0
                                           /hbcnof
