 DBCSR| CPU Multiplication driver                                           XSMM
 DBCSR| Multrec recursion limit                                              512
 DBCSR| Multiplication stack size                                           1000
 DBCSR| Maximum elements for images                                    UNLIMITED
 DBCSR| Multiplicative factor virtual images                                   1
 DBCSR| Use multiplication densification                                       T
 DBCSR| Multiplication size stacks                                             3
 DBCSR| Use memory pool for CPU allocation                                     F
 DBCSR| Number of 3D layers                                               SINGLE
 DBCSR| Use MPI memory allocation                                              F
 DBCSR| Use RMA algorithm                                                      F
 DBCSR| Use Communication thread                                               T
 DBCSR| Communication thread load                                             87
 DBCSR| Split modifier for TAS multiplication algorithm                  1.0E+00


  **** **** ******  **  PROGRAM STARTED AT               2020-11-30 13:02:44.685
 ***** ** ***  *** **   PROGRAM STARTED ON                               tcopt10
 **    ****   ******    PROGRAM STARTED BY                                hutter
 ***** **    ** ** **   PROGRAM PROCESS ID                                 83952
  **** **  *******  **  PROGRAM STARTED IN /data/hutter/GITHUB/BASIS/MOLOPT/PBE0
                                           /hbcnof

 CP2K| version string:                    CP2K version 8.0 (Development Version)
 CP2K| source code revision number:                                  git:afc71fa
 CP2K| cp2kflags: omp libint fftw3 libxc elpa parallel mpi3 scalapack xsmm spgli
 CP2K|            b sirius
 CP2K| is freely available from                            https://www.cp2k.org/
 CP2K| Program compiled at                          Tue Nov 17 10:27:14 CET 2020
 CP2K| Program compiled on                                               tcopt10
 CP2K| Program compiled for                                                local
 CP2K| Data directory path                 /data/hutter/GITHUB/CURRENT/cp2k/data
 CP2K| Input file name                                                H2-ref.inp

 GLOBAL| Force Environment number                                              1
 GLOBAL| Basis set file name                                  ../PBE0_UCSEGBASIS
 GLOBAL| Potential file name                                        ../POTENTIAL
 GLOBAL| MM Potential file name                                     MM_POTENTIAL
 GLOBAL| Coordinate file name                                      __STD_INPUT__
 GLOBAL| Method name                                                        CP2K
 GLOBAL| Project name                                                      refH2
 GLOBAL| Preferred FFT library                                             FFTW3
 GLOBAL| Preferred diagonalization lib.                                     ELPA
 GLOBAL| Run type                                                         ENERGY
 GLOBAL| All-to-all communication in single precision                          F
 GLOBAL| FFTs using library dependent lengths                                  F
 GLOBAL| Global print level                                                  LOW
 GLOBAL| MPI I/O enabled                                                       T
 GLOBAL| Total number of message passing processes                            36
 GLOBAL| Number of threads for this process                                    1
 GLOBAL| This output is from process                                           0
 GLOBAL| CPU model name                          AMD EPYC 7401 24-Core Processor
 GLOBAL| CPUID                                                              1002

 MEMORY| system memory details [Kb]
 MEMORY|                        rank 0           min           max       average
 MEMORY| MemTotal            263987256     263987256     263987256     263987256
 MEMORY| MemFree             242283504     242283504     242283504     242283504
 MEMORY| Buffers                   148           148           148           148
 MEMORY| Cached               17821752      17821752      17821752      17821752
 MEMORY| Slab                   935992        935992        935992        935992
 MEMORY| SReclaimable           419288        419288        419288        419288
 MEMORY| MemLikelyFree       260524692     260524692     260524692     260524692


 GENERATE|  Preliminary Number of Bonds generated:                             1
 GENERATE|  Achieved consistency in connectivity generation.
 GENERATE|  Number of Bonds generated:                                         1
 GENERATE|  Preliminary Number of Bends generated:                             0
 GENERATE|  Preliminary Number of Torsions generated:                          0

 *******************************************************************************
 *******************************************************************************
 **                                                                           **
 **     #####                         ##              ##                      **
 **    ##   ##            ##          ##              ##                      **
 **   ##     ##                       ##            ######                    **
 **   ##     ##  ##   ##  ##   #####  ##  ##   ####   ##    #####    #####    **
 **   ##     ##  ##   ##  ##  ##      ## ##   ##      ##   ##   ##  ##   ##   **
 **   ##  ## ##  ##   ##  ##  ##      ####     ###    ##   ######   ######    **
 **    ##  ###   ##   ##  ##  ##      ## ##      ##   ##   ##       ##        **
 **     #######   #####   ##   #####  ##  ##  ####    ##    #####   ##        **
 **           ##                                                    ##        **
 **                                                                           **
 **                                                ... make the atoms dance   **
 **                                                                           **
 **            Copyright (C) by CP2K developers group (2000 - 2020)           **
 **                      J. Chem. Phys. 152, 194103 (2020)                    **
 **                                                                           **
 *******************************************************************************


 TOTAL NUMBERS AND MAXIMUM NUMBERS

  Total number of            - Atomic kinds:                                   1
                             - Atoms:                                          2
                             - Shell sets:                                    24
                             - Shells:                                        40
                             - Primitive Cartesian functions:                 24
                             - Cartesian basis functions:                    168
                             - Spherical basis functions:                    136

  Maximum angular momentum of- Orbital basis functions:                        3
                             - Local part of the GTH pseudopotential:          2


 SCF PARAMETERS         Density guess:                                    ATOMIC
                        --------------------------------------------------------
                        max_scf:                                              10
                        max_scf_history:                                       0
                        max_diis:                                              4
                        --------------------------------------------------------
                        eps_scf:                                        1.00E-07
                        eps_scf_history:                                0.00E+00
                        eps_diis:                                       1.00E-01
                        eps_eigval:                                     1.00E-05
                        --------------------------------------------------------
                        level_shift [a.u.]:                                 0.00
                        --------------------------------------------------------
                        Outer loop SCF in use 
                        No variables optimised in outer loop
                        eps_scf                                         1.00E-07
                        max_scf                                               10
                        No outer loop optimization
                        step_size                                       5.00E-01

 Number of electrons:                                                          2
 Number of occupied orbitals:                                                  1
 Number of molecular orbitals:                                                 1

 Number of orbital functions:                                                136
 Number of independent orbital functions:                                    136

 Extrapolation method: initial_guess


 SCF WAVEFUNCTION OPTIMIZATION

  ----------------------------------- OT ---------------------------------------
  Minimizer      : DIIS                : direct inversion
                                         in the iterative subspace
                                         using   7 DIIS vectors
                                         safer DIIS on
  Preconditioner : FULL_ALL            : diagonalization, state selective
  Precond_solver : DEFAULT
  stepsize       :    0.15000000                  energy_gap     :    0.08000000
  eps_taylor     :   0.10000E-15                  max_taylor     :             4
  ----------------------------------- OT ---------------------------------------

  Step     Update method      Time    Convergence         Total energy    Change
  ------------------------------------------------------------------------------
     1 OT DIIS     0.15E+00    3.1     0.07273426        -1.0960171081 -1.10E+00
     2 OT DIIS     0.15E+00    0.6     0.01846089        -1.1639882767 -6.80E-02
     3 OT DIIS     0.15E+00    0.6     0.00183698        -1.1686167240 -4.63E-03
     4 OT DIIS     0.15E+00    0.6     0.00046549        -1.1686651497 -4.84E-05
     5 OT DIIS     0.15E+00    0.6     0.00012727        -1.1686681603 -3.01E-06
     6 OT DIIS     0.15E+00    0.6     0.00001285        -1.1686684561 -2.96E-07
     7 OT DIIS     0.15E+00    0.6     0.00000133        -1.1686684593 -3.16E-09
     8 OT DIIS     0.15E+00    0.6     0.00000027        -1.1686684593 -2.26E-11
     9 OT DIIS     0.15E+00    0.6     6.8112E-09        -1.1686684593 -1.23E-12

  *** SCF run converged in     9 steps ***


  Electronic density on regular grids:         -2.0000000000        0.0000000000
  Core density on regular grids:                2.0000000000       -0.0000000000
  Total charge density on r-space grids:       -0.0000000000
  Total charge density g-space grids:          -0.0000000000

  Overlap energy of the core charge distribution:               0.00000021846637
  Self energy of the core charge distribution:                 -2.81397772879947
  Core Hamiltonian energy:                                      0.95940086054490
  Hartree energy:                                               1.37169013880108
  Exchange-correlation energy:                                 -0.52338572528849
  Hartree-Fock Exchange energy:                                -0.16239622299879

  Total energy:                                                -1.16866845927440

  outer SCF iter =    1 RMS gradient =   0.68E-08 energy =         -1.1686684593
  outer SCF loop converged in   1 iterations or    9 steps


 ENERGY| Total FORCE_EVAL ( QS ) energy [a.u.]:               -1.168668459274405

 -------------------------------------------------------------------------------
 -                                                                             -
 -                                DBCSR STATISTICS                             -
 -                                                                             -
 -------------------------------------------------------------------------------
 COUNTER                                    TOTAL       BLAS       SMM       ACC
 flops     1 x     1 x    68                10064       0.0%    100.0%      0.0%
 flops    68 x     1 x    68              1701632       0.0%    100.0%      0.0%
 flops inhomo. stacks                      290102     100.0%      0.0%      0.0%
 flops total                         2.001798E+06      14.5%     85.5%      0.0%
 flops max/rank                    959.766000E+03      10.3%     89.7%      0.0%
 matmuls inhomo. stacks                       197     100.0%      0.0%      0.0%
 matmuls total                                455      43.3%     56.7%      0.0%
 number of processed stacks                   455      43.3%     56.7%      0.0%
 average stack size                                     1.0       1.0       0.0
 marketing flops                     2.094544E+06
 -------------------------------------------------------------------------------
 # multiplications                            215
 max memory usage/rank             443.211776E+06
 # max total images/rank                        1
 # max 3D layers                                1
 # MPI messages exchanged                   77400
 MPI messages size (bytes):
  total size                        35.052320E+06
  min size                           0.000000E+00
  max size                          36.992000E+03
  average size                     452.872345E+00
 MPI breakdown and total messages size (bytes):
             size <=      128               74620                     7840
       128 < size <=     8192                1860                  1011840
      8192 < size <=    32768                   0                        0
     32768 < size <=   131072                 920                 34032640
    131072 < size <=  4194304                   0                        0
   4194304 < size <= 16777216                   0                        0
  16777216 < size                               0                        0
 -------------------------------------------------------------------------------
 -                                                                             -
 -                      DBCSR MESSAGE PASSING PERFORMANCE                      -
 -                                                                             -
 -------------------------------------------------------------------------------
 ROUTINE             CALLS      AVE VOLUME [Bytes]
 MP_Bcast                3                     12.
 MP_Allreduce         1151                      8.
 MP_Alltoall           935                   2510.
 MP_ISend             5156                    749.
 MP_IRecv             5156                    398.
 -------------------------------------------------------------------------------

 -------------------------------------------------------------------------------
 -                                                                             -
 -                                GRID STATISTICS                              -
 -                                                                             -
 -------------------------------------------------------------------------------
 LP    KERNEL    OPERATION                                     COUNT     PERCENT
 0     general   collocate                                        72       0.87%
 0     ortho     integrate                                      1728      20.87%
 0     ortho     collocate                                      1920      23.19%
 3     ortho     integrate                                      1728      20.87%
 3     ortho     collocate                                      1920      23.19%
 6     ortho     integrate                                       432       5.22%
 6     ortho     collocate                                       480       5.80%
 -------------------------------------------------------------------------------

 MEMORY| Estimated peak process memory [MiB]                                 423

 -------------------------------------------------------------------------------
 -                                                                             -
 -                         MESSAGE PASSING PERFORMANCE                         -
 -                                                                             -
 -------------------------------------------------------------------------------

 ROUTINE             CALLS      AVE VOLUME [Bytes]
 MP_Group                5
 MP_Bcast               78                1193914.
 MP_Allreduce          332                   4170.
 MP_Sync                63
 MP_Alltoall           191                6019936.
 MP_ISendRecv         2695                  94521.
 MP_Wait              3555
 MP_comm_split          11
 MP_ISend              800                 242064.
 MP_IRecv              800                 242064.
 -------------------------------------------------------------------------------


 -------------------------------------------------------------------------------
 -                                                                             -
 -                           R E F E R E N C E S                               -
 -                                                                             -
 -------------------------------------------------------------------------------
 
 CP2K version 8.0 (Development Version), the CP2K developers group (2020).
 CP2K is freely available from https://www.cp2k.org/ .

 Kuehne,Thomas D.; Iannuzzi,Marcella; Del Ben,Mauro;
 Rybkin,Vladimir V.; Seewald,Patrick; Stein,Frederick; Laino,Teodoro;
 Khaliullin,Rustam Z.; Schuett,Ole; Schiffmann,Florian; Golze,Dorothea;
 Wilhelm,Jan; Chulkov,Sergey; Bani-Hashemian,Mohammad Hossein;
 Weber,Valery; Borstnik,Urban; Taillefumier,Mathieu;
 Jakobovits,Alice Shoshana; Lazzaro,Alfio; Pabst,Hans; Mueller,Tiziano;
 Schade,Robert; Guidon,Manuel; Andermatt,Samuel; Holmberg,Nico;
 Schenter,Gregory K.; Hehn,Anna; Bussy,Augustin; Belleflamme,Fabian;
 Tabacchi,Gloria; Gloess,Andreas; Lass,Michael; Bethune,Iain;
 Mundy,Christopher J.; Plessl,Christian; Watkins,Matt;
 VandeVondele,Joost; Krack,Matthias; Hutter,Juerg. 
 The Journal of Chemical Physics, 152 (19), (2020). 
 CP2K: An electronic structure and molecular dynamics software package -
 Quickstep: Efficient and accurate electronic structure calculations.
 https://doi.org/10.1063/5.0007045

 Schuett, Ole; Messmer, Peter; Hutter, Juerg; VandeVondele, Joost. 
 Electronic Structure Calculations on Graphics Processing Units, John
 Wiley & Sons, Ltd, 173-190 (2016). 
 GPU-Accelerated Sparse Matrix-Matrix Multiplication for
 Linear Scaling Density Functional Theory.
 https://doi.org/10.1002/9781118670712.ch8

 Borstnik, U; VandeVondele, J; Weber, V; Hutter, J. 
 PARALLEL COMPUTING, 40 (5-6), 47-58 (2014). 
 Sparse matrix multiplication: The distributed block-compressed sparse
 row library.
 https://doi.org/10.1016/j.parco.2014.03.012

 Hutter, J; Iannuzzi, M; Schiffmann, F; VandeVondele, J. 
 WIREs Comput Mol Sci., 4 (1), 15-25 (2014). 
 CP2K: atomistic simulations of condensed matter systems.
 https://doi.org/10.1002/wcms.1159

 Marek, A; Blum, V; Johanni, R; Havu, V; Lang, B; Auckenthaler, T;
 Heinecke, A; Bungartz, H; Lederer, H. 
 Journal of Physics: Condensed Matter, 26 (21), (2014). 
 The ELPA library: scalable parallel eigenvalue solutions for
 electronic structure
 theory and computational science.
 https://doi.org/10.1088/0953-8984/26/21/213201

 Guidon, M; Hutter, J; VandeVondele, J. 
 JOURNAL OF CHEMICAL THEORY AND COMPUTATION, 5 (11), 3010-3021 (2009). 
 Robust Periodic Hartree-Fock Exchange for Large-Scale Simulations Using
 Gaussian Basis Sets.
 https://doi.org/10.1021/ct900494g

 Guidon, M; Schiffmann, F; Hutter, J; VandeVondele, J. 
 JOURNAL OF CHEMICAL PHYSICS, 128 (21), 214104 (2008). 
 Ab initio molecular dynamics using hybrid density functionals.
 https://doi.org/10.1063/1.2931945

 Krack, M. 
 THEORETICAL CHEMISTRY ACCOUNTS, 114 (1-3), 145-152 (2005). 
 Pseudopotentials for H to Kr optimized for gradient-corrected
 exchange-correlation functionals.
 https://doi.org/10.1007/s00214-005-0655-y

 VandeVondele, J; Krack, M; Mohamed, F; Parrinello, M; Chassaing, T;
 Hutter, J. COMPUTER PHYSICS COMMUNICATIONS, 167 (2), 103-128 (2005). 
 QUICKSTEP: Fast and accurate density functional calculations using a
 mixed Gaussian and plane waves approach.
 https://doi.org/10.1016/j.cpc.2004.12.014

 Frigo, M; Johnson, SG. 
 PROCEEDINGS OF THE IEEE, 93 (2), 216-231 (2005). 
 The design and implementation of FFTW3.
 https://doi.org/10.1109/JPROC.2004.840301

 VandeVondele, J; Hutter, J. 
 JOURNAL OF CHEMICAL PHYSICS, 118 (10), 4365-4369 (2003). 
 An efficient orbital transformation method for electronic structure
 calculations.
 https://doi.org/10.1063/1.1543154

 Martyna, GJ; Tuckerman, ME. 
 JOURNAL OF CHEMICAL PHYSICS, 110 (6), 2810-2821 (1999). 
 A reciprocal space based method for treating long range interactions in
 ab initio and force-field-based calculations in clusters.
 https://doi.org/10.1063/1.477923

 Hartwigsen, C; Goedecker, S; Hutter, J. 
 PHYSICAL REVIEW B, 58 (7), 3641-3662 (1998). 
 Relativistic separable dual-space Gaussian pseudopotentials from H to Rn.
 https://doi.org/10.1103/PhysRevB.58.3641

 Lippert, G; Hutter, J; Parrinello, M. 
 MOLECULAR PHYSICS, 92 (3), 477-487 (1997). 
 A hybrid Gaussian and plane wave density functional scheme.
 https://doi.org/10.1080/002689797170220

 Perdew, JP; Burke, K; Ernzerhof, M. 
 PHYSICAL REVIEW LETTERS, 77 (18), 3865-3868 (1996). 
 Generalized gradient approximation made simple.
 https://doi.org/10.1103/PhysRevLett.77.3865

 Goedecker, S; Teter, M; Hutter, J. 
 PHYSICAL REVIEW B, 54 (3), 1703-1710 (1996). 
 Separable dual-space Gaussian pseudopotentials.
 https://doi.org/10.1103/PhysRevB.54.1703


 -------------------------------------------------------------------------------
 -                                                                             -
 -                                T I M I N G                                  -
 -                                                                             -
 -------------------------------------------------------------------------------
 SUBROUTINE                       CALLS  ASD         SELF TIME        TOTAL TIME
                                MAXIMUM       AVERAGE  MAXIMUM  AVERAGE  MAXIMUM
 CP2K                                 1  1.0    0.010    0.018    8.162    8.162
 qs_energies                          1  2.0    0.000    0.000    7.930    7.930
 scf_env_do_scf                       1  3.0    0.000    0.000    7.743    7.743
 qs_ks_update_qs_env                 10  5.0    0.000    0.000    6.551    6.552
 rebuild_ks_matrix                    9  6.0    0.000    0.000    6.551    6.551
 qs_ks_build_kohn_sham_matrix         9  7.0    0.002    0.002    6.551    6.551
 scf_env_do_scf_inner_loop            9  4.0    0.000    0.001    4.658    4.658
 hfx_ks_matrix                        9  8.0    0.000    0.000    3.600    3.601
 integrate_four_center                9  9.0    0.005    0.005    3.599    3.599
 init_scf_loop                        1  4.0    0.000    0.000    3.084    3.084
 pw_transfer                        178  9.6    0.016    0.019    2.326    2.609
 fft_wrap_pw1pw2                    160 10.6    0.002    0.003    2.292    2.577
 fft_wrap_pw1pw2_300                102 11.7    0.115    0.137    2.125    2.412
 fft3d_ps                           160 12.6    0.804    0.858    1.842    2.164
 mp_sync                             63 10.7    1.728    2.065    1.728    2.065
 integrate_four_center_main           9 10.0    0.001    0.002    0.336    2.042
 integrate_four_center_bin         1152 11.0    0.335    2.041    0.335    2.041
 qs_vxc_create                        9  8.0    0.000    0.000    1.832    1.837
 xc_vxc_pw_create                     9  9.0    0.016    0.016    1.831    1.837
 calc_screening_functions             1 10.0    1.099    1.106    1.219    1.228
 mp_alltoall_z22v                   160 14.6    0.839    1.219    0.839    1.219
 qs_rho_update_rho                   10  5.0    0.000    0.000    1.117    1.117
 calculate_rho_elec                  10  6.0    0.007    0.007    1.117    1.117
 xc_rho_set_and_dset_create           9 10.0    0.008    0.010    0.906    1.097
 yz_to_x                             78 13.1    0.085    0.105    0.591    0.907
 rs_pw_transfer                      77  9.4    0.002    0.002    0.829    0.874
 density_rs2pw                       10  7.0    0.001    0.001    0.826    0.866
 sum_up_and_integrate                 9  8.0    0.004    0.005    0.733    0.734
 integrate_v_rspace_low               9  9.0    0.013    0.057    0.729    0.730
 potential_pw2rs                      9 10.0    0.001    0.001    0.666    0.667
 x_to_yz                             82 14.2    0.107    0.121    0.440    0.499
 xc_functional_eval                   9 11.0    0.000    0.000    0.295    0.485
 pbe_lda_eval                         9 12.0    0.295    0.485    0.295    0.485
 mp_waitall_1                     16515 13.8    0.295    0.357    0.295    0.357
 rs_pw_transfer_RS2PW_300            11  8.8    0.129    0.173    0.259    0.304
 calc_pair_dist_radii                 1 10.0    0.199    0.213    0.244    0.258
 rs_pw_transfer_PW2RS_300             9 12.0    0.112    0.143    0.198    0.229
 mp_waitany                         800 11.2    0.162    0.226    0.162    0.226
 rs_pw_transfer_PW2RS_100             9 12.0    0.035    0.044    0.178    0.214
 grid_collocate_task_list            10  7.0    0.163    0.213    0.163    0.213
 pw_gather_p                         78 12.1    0.159    0.205    0.159    0.205
 qs_init_subsys                       1  2.0    0.001    0.001    0.198    0.198
 qs_env_setup                         1  3.0    0.000    0.000    0.196    0.196
 qs_env_rebuild_pw_env                2  3.5    0.000    0.000    0.196    0.196
 pw_env_rebuild                       1  5.0    0.000    0.000    0.196    0.196
 pw_scatter_p                        82 13.2    0.164    0.190    0.164    0.190
 pw_grid_setup                        5  6.0    0.000    0.000    0.189    0.189
 pw_grid_setup_internal               5  7.0    0.004    0.004    0.189    0.189
 pw_poisson_solve                     9  8.0    0.022    0.030    0.188    0.188
 powell_optimize                  63925 11.0    0.166    0.170    0.166    0.170
 -------------------------------------------------------------------------------

 The number of warnings for this run is : 0
 
 -------------------------------------------------------------------------------
  **** **** ******  **  PROGRAM ENDED AT                 2020-11-30 13:02:53.578
 ***** ** ***  *** **   PROGRAM RAN ON                                   tcopt10
 **    ****   ******    PROGRAM RAN BY                                    hutter
 ***** **    ** ** **   PROGRAM PROCESS ID                                 83952
  **** **  *******  **  PROGRAM STOPPED IN /data/hutter/GITHUB/BASIS/MOLOPT/PBE0
                                           /hbcnof
