 DBCSR| CPU Multiplication driver                                           XSMM
 DBCSR| Multrec recursion limit                                              512
 DBCSR| Multiplication stack size                                           1000
 DBCSR| Maximum elements for images                                    UNLIMITED
 DBCSR| Multiplicative factor virtual images                                   1
 DBCSR| Use multiplication densification                                       T
 DBCSR| Multiplication size stacks                                             3
 DBCSR| Use memory pool for CPU allocation                                     F
 DBCSR| Number of 3D layers                                               SINGLE
 DBCSR| Use MPI memory allocation                                              F
 DBCSR| Use RMA algorithm                                                      F
 DBCSR| Use Communication thread                                               T
 DBCSR| Communication thread load                                             87
 DBCSR| Split modifier for TAS multiplication algorithm                  1.0E+00


  **** **** ******  **  PROGRAM STARTED AT               2020-11-30 13:01:31.547
 ***** ** ***  *** **   PROGRAM STARTED ON                               tcopt10
 **    ****   ******    PROGRAM STARTED BY                                hutter
 ***** **    ** ** **   PROGRAM PROCESS ID                                 83558
  **** **  *******  **  PROGRAM STARTED IN /data/hutter/GITHUB/BASIS/MOLOPT/PBE0
                                           /hbcnof

 CP2K| version string:                    CP2K version 8.0 (Development Version)
 CP2K| source code revision number:                                  git:afc71fa
 CP2K| cp2kflags: omp libint fftw3 libxc elpa parallel mpi3 scalapack xsmm spgli
 CP2K|            b sirius
 CP2K| is freely available from                            https://www.cp2k.org/
 CP2K| Program compiled at                          Tue Nov 17 10:27:14 CET 2020
 CP2K| Program compiled on                                               tcopt10
 CP2K| Program compiled for                                                local
 CP2K| Data directory path                 /data/hutter/GITHUB/CURRENT/cp2k/data
 CP2K| Input file name                                               H2O-ref.inp

 GLOBAL| Force Environment number                                              1
 GLOBAL| Basis set file name                                  ../PBE0_UCSEGBASIS
 GLOBAL| Potential file name                                        ../POTENTIAL
 GLOBAL| MM Potential file name                                     MM_POTENTIAL
 GLOBAL| Coordinate file name                                      __STD_INPUT__
 GLOBAL| Method name                                                        CP2K
 GLOBAL| Project name                                                     refH2O
 GLOBAL| Preferred FFT library                                             FFTW3
 GLOBAL| Preferred diagonalization lib.                                     ELPA
 GLOBAL| Run type                                                         ENERGY
 GLOBAL| All-to-all communication in single precision                          F
 GLOBAL| FFTs using library dependent lengths                                  F
 GLOBAL| Global print level                                                  LOW
 GLOBAL| MPI I/O enabled                                                       T
 GLOBAL| Total number of message passing processes                            36
 GLOBAL| Number of threads for this process                                    1
 GLOBAL| This output is from process                                           0
 GLOBAL| CPU model name                          AMD EPYC 7401 24-Core Processor
 GLOBAL| CPUID                                                              1002

 MEMORY| system memory details [Kb]
 MEMORY|                        rank 0           min           max       average
 MEMORY| MemTotal            263987256     263987256     263987256     263987256
 MEMORY| MemFree             242292700     242292700     242292700     242292700
 MEMORY| Buffers                   148           148           148           148
 MEMORY| Cached               17821544      17821544      17821544      17821544
 MEMORY| Slab                   937012        937012        937012        937012
 MEMORY| SReclaimable           419384        419384        419384        419384
 MEMORY| MemLikelyFree       260533776     260533776     260533776     260533776


 GENERATE|  Preliminary Number of Bonds generated:                             1
 GENERATE|  Achieved consistency in connectivity generation.
 GENERATE|  Number of Bonds generated:                                         1
 GENERATE|  Preliminary Number of Bends generated:                             0
 GENERATE|  Preliminary Number of Torsions generated:                          0

 *******************************************************************************
 *******************************************************************************
 **                                                                           **
 **     #####                         ##              ##                      **
 **    ##   ##            ##          ##              ##                      **
 **   ##     ##                       ##            ######                    **
 **   ##     ##  ##   ##  ##   #####  ##  ##   ####   ##    #####    #####    **
 **   ##     ##  ##   ##  ##  ##      ## ##   ##      ##   ##   ##  ##   ##   **
 **   ##  ## ##  ##   ##  ##  ##      ####     ###    ##   ######   ######    **
 **    ##  ###   ##   ##  ##  ##      ## ##      ##   ##   ##       ##        **
 **     #######   #####   ##   #####  ##  ##  ####    ##    #####   ##        **
 **           ##                                                    ##        **
 **                                                                           **
 **                                                ... make the atoms dance   **
 **                                                                           **
 **            Copyright (C) by CP2K developers group (2000 - 2020)           **
 **                      J. Chem. Phys. 152, 194103 (2020)                    **
 **                                                                           **
 *******************************************************************************


 TOTAL NUMBERS AND MAXIMUM NUMBERS

  Total number of            - Atomic kinds:                                   2
                             - Atoms:                                          3
                             - Shell sets:                                    36
                             - Shells:                                        60
                             - Primitive Cartesian functions:                 36
                             - Cartesian basis functions:                    224
                             - Spherical basis functions:                    188

  Maximum angular momentum of- Orbital basis functions:                        3
                             - Local part of the GTH pseudopotential:          2
                             - Non-local part of the GTH pseudopotential:      0


 SCF PARAMETERS         Density guess:                                    ATOMIC
                        --------------------------------------------------------
                        max_scf:                                              10
                        max_scf_history:                                       0
                        max_diis:                                              4
                        --------------------------------------------------------
                        eps_scf:                                        1.00E-07
                        eps_scf_history:                                0.00E+00
                        eps_diis:                                       1.00E-01
                        eps_eigval:                                     1.00E-05
                        --------------------------------------------------------
                        level_shift [a.u.]:                                 0.00
                        --------------------------------------------------------
                        Outer loop SCF in use 
                        No variables optimised in outer loop
                        eps_scf                                         1.00E-07
                        max_scf                                               10
                        No outer loop optimization
                        step_size                                       5.00E-01

 Number of electrons:                                                          8
 Number of occupied orbitals:                                                  4
 Number of molecular orbitals:                                                 4

 Number of orbital functions:                                                188
 Number of independent orbital functions:                                    188

 Extrapolation method: initial_guess


 SCF WAVEFUNCTION OPTIMIZATION

  ----------------------------------- OT ---------------------------------------
  Minimizer      : DIIS                : direct inversion
                                         in the iterative subspace
                                         using   7 DIIS vectors
                                         safer DIIS on
  Preconditioner : FULL_ALL            : diagonalization, state selective
  Precond_solver : DEFAULT
  stepsize       :    0.15000000                  energy_gap     :    0.08000000
  eps_taylor     :   0.10000E-15                  max_taylor     :             4
  ----------------------------------- OT ---------------------------------------

  Step     Update method      Time    Convergence         Total energy    Change
  ------------------------------------------------------------------------------
     1 OT DIIS     0.15E+00    5.3     0.09027514       -16.6514609716 -1.67E+01
     2 OT DIIS     0.15E+00    0.6     0.03581991       -17.1537288077 -5.02E-01
     3 OT DIIS     0.15E+00    0.6     0.01926613       -17.2049619788 -5.12E-02
     4 OT DIIS     0.15E+00    0.6     0.00363298       -17.2200608351 -1.51E-02
     5 OT DIIS     0.15E+00    0.6     0.00093363       -17.2213109135 -1.25E-03
     6 OT DIIS     0.15E+00    0.6     0.00026853       -17.2213981559 -8.72E-05
     7 OT DIIS     0.15E+00    0.6     0.00010729       -17.2214050787 -6.92E-06
     8 OT DIIS     0.15E+00    0.6     0.00002530       -17.2214065136 -1.43E-06
     9 OT DIIS     0.15E+00    0.6     0.00000892       -17.2214065648 -5.13E-08
    10 OT DIIS     0.15E+00    0.6     0.00000218       -17.2214065732 -8.36E-09

  Leaving inner SCF loop after reaching    10 steps.


  Electronic density on regular grids:         -8.0000000000        0.0000000000
  Core density on regular grids:                8.0000000000       -0.0000000000
  Total charge density on r-space grids:        0.0000000000
  Total charge density g-space grids:           0.0000000000

  Overlap energy of the core charge distribution:               0.00000004415378
  Self energy of the core charge distribution:                -43.97731770063159
  Core Hamiltonian energy:                                     12.80865758511831
  Hartree energy:                                              18.16493633834193
  Exchange-correlation energy:                                 -3.23903237100055
  Hartree-Fock Exchange energy:                                -0.97865046918942

  Total energy:                                               -17.22140657320752

  outer SCF iter =    1 RMS gradient =   0.22E-05 energy =        -17.2214065732

  ----------------------------------- OT ---------------------------------------
  Minimizer      : DIIS                : direct inversion
                                         in the iterative subspace
                                         using   7 DIIS vectors
                                         safer DIIS on
  Preconditioner : FULL_ALL            : diagonalization, state selective
  Precond_solver : DEFAULT
  stepsize       :    0.15000000                  energy_gap     :    0.08000000
  eps_taylor     :   0.10000E-15                  max_taylor     :             4
  ----------------------------------- OT ---------------------------------------

  Step     Update method      Time    Convergence         Total energy    Change
  ------------------------------------------------------------------------------
     1 OT DIIS     0.15E+00    1.2     0.00000073       -17.2214065737 -5.20E-10
     2 OT DIIS     0.15E+00    0.6     0.00000034       -17.2214065738 -3.55E-11
     3 OT DIIS     0.15E+00    0.6     0.00000016       -17.2214065738 -7.28E-12
     4 OT DIIS     0.15E+00    0.6     8.4833E-09       -17.2214065738 -2.09E-12

  *** SCF run converged in     4 steps ***


  Electronic density on regular grids:         -8.0000000000        0.0000000000
  Core density on regular grids:                8.0000000000       -0.0000000000
  Total charge density on r-space grids:        0.0000000000
  Total charge density g-space grids:           0.0000000000

  Overlap energy of the core charge distribution:               0.00000004415378
  Self energy of the core charge distribution:                -43.97731770063159
  Core Hamiltonian energy:                                     12.80866797373021
  Hartree energy:                                              18.16492713448430
  Exchange-correlation energy:                                 -3.23903334094025
  Hartree-Fock Exchange energy:                                -0.97865068456920

  Total energy:                                               -17.22140657377275

  outer SCF iter =    2 RMS gradient =   0.85E-08 energy =        -17.2214065738
  outer SCF loop converged in   2 iterations or   14 steps


 ENERGY| Total FORCE_EVAL ( QS ) energy [a.u.]:              -17.221406573772754

 -------------------------------------------------------------------------------
 -                                                                             -
 -                                DBCSR STATISTICS                             -
 -                                                                             -
 -------------------------------------------------------------------------------
 COUNTER                                    TOTAL       BLAS       SMM       ACC
 flops     4 x     4 x     4                11264       0.0%    100.0%      0.0%
 flops     4 x     4 x    52                96512       0.0%    100.0%      0.0%
 flops    52 x     4 x     4               119808       0.0%    100.0%      0.0%
 flops     4 x     4 x    68               252416       0.0%    100.0%      0.0%
 flops    68 x     4 x     4               313344       0.0%    100.0%      0.0%
 flops    52 x    52 x     4               324480       0.0%    100.0%      0.0%
 flops    52 x    68 x     4               424320       0.0%    100.0%      0.0%
 flops    68 x    52 x     4               424320       0.0%    100.0%      0.0%
 flops    52 x     4 x    52              1600768       0.0%    100.0%      0.0%
 flops    68 x    68 x     4              1664640       0.0%    100.0%      0.0%
 flops    68 x     4 x    52              4186624       0.0%    100.0%      0.0%
 flops    52 x     4 x    68              4186624       0.0%    100.0%      0.0%
 flops    68 x     4 x    68             10949632       0.0%    100.0%      0.0%
 flops inhomo. stacks                           0       0.0%      0.0%      0.0%
 flops total                        24.554752E+06       0.0%    100.0%      0.0%
 flops max/rank                      8.639872E+06       0.0%    100.0%      0.0%
 matmuls inhomo. stacks                         0       0.0%      0.0%      0.0%
 matmuls total                               1234       0.0%    100.0%      0.0%
 number of processed stacks                  1234       0.0%    100.0%      0.0%
 average stack size                                     0.0       1.0       0.0
 marketing flops                    25.970384E+06
 -------------------------------------------------------------------------------
 # multiplications                            309
 max memory usage/rank             444.444672E+06
 # max total images/rank                        1
 # max 3D layers                                1
 # MPI messages exchanged                  111240
 MPI messages size (bytes):
  total size                       113.560320E+06
  min size                           0.000000E+00
  max size                          36.992000E+03
  average size                       1.020859E+03
 MPI breakdown and total messages size (bytes):
             size <=      128              103530                   158720
       128 < size <=     8192                4380                  8783360
      8192 < size <=    32768                1850                 49870080
     32768 < size <=   131072                1480                 54748160
    131072 < size <=  4194304                   0                        0
   4194304 < size <= 16777216                   0                        0
  16777216 < size                               0                        0
 -------------------------------------------------------------------------------
 -                                                                             -
 -                      DBCSR MESSAGE PASSING PERFORMANCE                      -
 -                                                                             -
 -------------------------------------------------------------------------------
 ROUTINE             CALLS      AVE VOLUME [Bytes]
 MP_Bcast               14                     12.
 MP_Allreduce         1662                      8.
 MP_Alltoall          1386                   2849.
 MP_ISend             7408                   1267.
 MP_IRecv             7408                    806.
 -------------------------------------------------------------------------------

 -------------------------------------------------------------------------------
 -                                                                             -
 -                                GRID STATISTICS                              -
 -                                                                             -
 -------------------------------------------------------------------------------
 LP    KERNEL    OPERATION                                     COUNT     PERCENT
 0     general   collocate                                       108       0.43%
 0     ortho     integrate                                      2646      10.58%
 0     ortho     collocate                                      2835      11.33%
 1     ortho     integrate                                      1764       7.05%
 1     ortho     collocate                                      1890       7.55%
 2     ortho     integrate                                      1792       7.16%
 2     ortho     collocate                                      1920       7.67%
 3     ortho     integrate                                      3584      14.33%
 3     ortho     collocate                                      3840      15.35%
 4     ortho     integrate                                      1120       4.48%
 4     ortho     collocate                                      1200       4.80%
 5     ortho     integrate                                       448       1.79%
 5     ortho     collocate                                       480       1.92%
 6     ortho     integrate                                       672       2.69%
 6     ortho     collocate                                       720       2.88%
 -------------------------------------------------------------------------------

 MEMORY| Estimated peak process memory [MiB]                                 424

 -------------------------------------------------------------------------------
 -                                                                             -
 -                         MESSAGE PASSING PERFORMANCE                         -
 -                                                                             -
 -------------------------------------------------------------------------------

 ROUTINE             CALLS      AVE VOLUME [Bytes]
 MP_Group                5
 MP_Bcast              182                1023170.
 MP_Allreduce          566                   2457.
 MP_Sync                91
 MP_Alltoall           286                6114519.
 MP_ISendRecv         4095                  95103.
 MP_Wait              5385
 MP_comm_split          14
 MP_ISend             1200                 242064.
 MP_IRecv             1200                 242064.
 MP_Recv                 3                   1504.
 -------------------------------------------------------------------------------


 -------------------------------------------------------------------------------
 -                                                                             -
 -                           R E F E R E N C E S                               -
 -                                                                             -
 -------------------------------------------------------------------------------
 
 CP2K version 8.0 (Development Version), the CP2K developers group (2020).
 CP2K is freely available from https://www.cp2k.org/ .

 Kuehne,Thomas D.; Iannuzzi,Marcella; Del Ben,Mauro;
 Rybkin,Vladimir V.; Seewald,Patrick; Stein,Frederick; Laino,Teodoro;
 Khaliullin,Rustam Z.; Schuett,Ole; Schiffmann,Florian; Golze,Dorothea;
 Wilhelm,Jan; Chulkov,Sergey; Bani-Hashemian,Mohammad Hossein;
 Weber,Valery; Borstnik,Urban; Taillefumier,Mathieu;
 Jakobovits,Alice Shoshana; Lazzaro,Alfio; Pabst,Hans; Mueller,Tiziano;
 Schade,Robert; Guidon,Manuel; Andermatt,Samuel; Holmberg,Nico;
 Schenter,Gregory K.; Hehn,Anna; Bussy,Augustin; Belleflamme,Fabian;
 Tabacchi,Gloria; Gloess,Andreas; Lass,Michael; Bethune,Iain;
 Mundy,Christopher J.; Plessl,Christian; Watkins,Matt;
 VandeVondele,Joost; Krack,Matthias; Hutter,Juerg. 
 The Journal of Chemical Physics, 152 (19), (2020). 
 CP2K: An electronic structure and molecular dynamics software package -
 Quickstep: Efficient and accurate electronic structure calculations.
 https://doi.org/10.1063/5.0007045

 Schuett, Ole; Messmer, Peter; Hutter, Juerg; VandeVondele, Joost. 
 Electronic Structure Calculations on Graphics Processing Units, John
 Wiley & Sons, Ltd, 173-190 (2016). 
 GPU-Accelerated Sparse Matrix-Matrix Multiplication for
 Linear Scaling Density Functional Theory.
 https://doi.org/10.1002/9781118670712.ch8

 Borstnik, U; VandeVondele, J; Weber, V; Hutter, J. 
 PARALLEL COMPUTING, 40 (5-6), 47-58 (2014). 
 Sparse matrix multiplication: The distributed block-compressed sparse
 row library.
 https://doi.org/10.1016/j.parco.2014.03.012

 Hutter, J; Iannuzzi, M; Schiffmann, F; VandeVondele, J. 
 WIREs Comput Mol Sci., 4 (1), 15-25 (2014). 
 CP2K: atomistic simulations of condensed matter systems.
 https://doi.org/10.1002/wcms.1159

 Marek, A; Blum, V; Johanni, R; Havu, V; Lang, B; Auckenthaler, T;
 Heinecke, A; Bungartz, H; Lederer, H. 
 Journal of Physics: Condensed Matter, 26 (21), (2014). 
 The ELPA library: scalable parallel eigenvalue solutions for
 electronic structure
 theory and computational science.
 https://doi.org/10.1088/0953-8984/26/21/213201

 Guidon, M; Hutter, J; VandeVondele, J. 
 JOURNAL OF CHEMICAL THEORY AND COMPUTATION, 5 (11), 3010-3021 (2009). 
 Robust Periodic Hartree-Fock Exchange for Large-Scale Simulations Using
 Gaussian Basis Sets.
 https://doi.org/10.1021/ct900494g

 Guidon, M; Schiffmann, F; Hutter, J; VandeVondele, J. 
 JOURNAL OF CHEMICAL PHYSICS, 128 (21), 214104 (2008). 
 Ab initio molecular dynamics using hybrid density functionals.
 https://doi.org/10.1063/1.2931945

 Krack, M. 
 THEORETICAL CHEMISTRY ACCOUNTS, 114 (1-3), 145-152 (2005). 
 Pseudopotentials for H to Kr optimized for gradient-corrected
 exchange-correlation functionals.
 https://doi.org/10.1007/s00214-005-0655-y

 VandeVondele, J; Krack, M; Mohamed, F; Parrinello, M; Chassaing, T;
 Hutter, J. COMPUTER PHYSICS COMMUNICATIONS, 167 (2), 103-128 (2005). 
 QUICKSTEP: Fast and accurate density functional calculations using a
 mixed Gaussian and plane waves approach.
 https://doi.org/10.1016/j.cpc.2004.12.014

 Frigo, M; Johnson, SG. 
 PROCEEDINGS OF THE IEEE, 93 (2), 216-231 (2005). 
 The design and implementation of FFTW3.
 https://doi.org/10.1109/JPROC.2004.840301

 VandeVondele, J; Hutter, J. 
 JOURNAL OF CHEMICAL PHYSICS, 118 (10), 4365-4369 (2003). 
 An efficient orbital transformation method for electronic structure
 calculations.
 https://doi.org/10.1063/1.1543154

 Martyna, GJ; Tuckerman, ME. 
 JOURNAL OF CHEMICAL PHYSICS, 110 (6), 2810-2821 (1999). 
 A reciprocal space based method for treating long range interactions in
 ab initio and force-field-based calculations in clusters.
 https://doi.org/10.1063/1.477923

 Hartwigsen, C; Goedecker, S; Hutter, J. 
 PHYSICAL REVIEW B, 58 (7), 3641-3662 (1998). 
 Relativistic separable dual-space Gaussian pseudopotentials from H to Rn.
 https://doi.org/10.1103/PhysRevB.58.3641

 Lippert, G; Hutter, J; Parrinello, M. 
 MOLECULAR PHYSICS, 92 (3), 477-487 (1997). 
 A hybrid Gaussian and plane wave density functional scheme.
 https://doi.org/10.1080/002689797170220

 Perdew, JP; Burke, K; Ernzerhof, M. 
 PHYSICAL REVIEW LETTERS, 77 (18), 3865-3868 (1996). 
 Generalized gradient approximation made simple.
 https://doi.org/10.1103/PhysRevLett.77.3865

 Goedecker, S; Teter, M; Hutter, J. 
 PHYSICAL REVIEW B, 54 (3), 1703-1710 (1996). 
 Separable dual-space Gaussian pseudopotentials.
 https://doi.org/10.1103/PhysRevB.54.1703


 -------------------------------------------------------------------------------
 -                                                                             -
 -                                T I M I N G                                  -
 -                                                                             -
 -------------------------------------------------------------------------------
 SUBROUTINE                       CALLS  ASD         SELF TIME        TOTAL TIME
                                MAXIMUM       AVERAGE  MAXIMUM  AVERAGE  MAXIMUM
 CP2K                                 1  1.0    0.010    0.016   13.296   13.298
 qs_energies                          1  2.0    0.000    0.000   13.058   13.060
 scf_env_do_scf                       1  3.0    0.000    0.000   12.867   12.870
 qs_ks_update_qs_env                 16  5.0    0.000    0.000   10.987   10.989
 rebuild_ks_matrix                   14  6.0    0.000    0.000   10.986   10.987
 qs_ks_build_kohn_sham_matrix        14  7.0    0.002    0.003   10.985   10.987
 scf_env_do_scf_inner_loop           14  4.0    0.000    0.001    7.159    7.160
 hfx_ks_matrix                       14  8.0    0.001    0.001    6.290    6.291
 integrate_four_center               14  9.0    0.007    0.008    6.289    6.291
 init_scf_loop                        2  4.0    0.000    0.000    5.708    5.709
 pw_transfer                        273  9.6    0.024    0.030    3.561    4.071
 fft_wrap_pw1pw2                    245 10.7    0.003    0.004    3.509    4.024
 fft_wrap_pw1pw2_300                157 11.8    0.173    0.206    3.292    3.801
 fft3d_ps                           245 12.7    1.228    1.303    2.832    3.377
 qs_vxc_create                       14  8.0    0.000    0.000    2.927    2.935
 xc_vxc_pw_create                    14  9.0    0.024    0.026    2.927    2.935
 calc_screening_functions             1 10.0    2.005    2.016    2.620    2.659
 mp_sync                             91 10.8    1.501    2.602    1.501    2.602
 integrate_four_center_main          14 10.0    0.002    0.002    1.101    2.582
 integrate_four_center_bin         1778 11.0    1.100    2.581    1.100    2.581
 mp_alltoall_z22v                   245 14.7    1.307    1.923    1.307    1.923
 xc_rho_set_and_dset_create          14 10.0    0.013    0.016    1.471    1.762
 qs_rho_update_rho                   15  5.0    0.000    0.000    1.680    1.681
 calculate_rho_elec                  15  6.0    0.011    0.011    1.680    1.680
 yz_to_x                            118 13.1    0.123    0.152    0.907    1.418
 rs_pw_transfer                     117  9.4    0.002    0.003    1.244    1.315
 density_rs2pw                       15  7.0    0.001    0.001    1.227    1.294
 sum_up_and_integrate                14  8.0    0.006    0.007    1.227    1.228
 integrate_v_rspace_low              14  9.0    0.033    0.182    1.222    1.223
 potential_pw2rs                     14 10.0    0.001    0.001    1.031    1.032
 calc_pair_dist_radii                 1 10.0    0.699    0.744    0.891    0.938
 powell_optimize                 301583 11.0    0.808    0.860    0.808    0.860
 xc_functional_eval                  14 11.0    0.000    0.000    0.519    0.808
 pbe_lda_eval                        14 12.0    0.518    0.808    0.518    0.808
 x_to_yz                            127 14.2    0.164    0.187    0.688    0.787
 mp_waitall_1                     23961 13.7    0.457    0.575    0.457    0.575
 rs_pw_transfer_RS2PW_300            16  8.9    0.188    0.249    0.365    0.432
 grid_collocate_task_list            15  7.0    0.253    0.389    0.253    0.389
 rs_pw_transfer_PW2RS_300            14 12.0    0.174    0.220    0.306    0.353
 rs_pw_transfer_PW2RS_100            14 12.0    0.053    0.060    0.283    0.332
 mp_waitany                        1200 11.3    0.229    0.330    0.229    0.330
 pw_gather_p                        118 12.1    0.237    0.301    0.237    0.301
 pw_scatter_p                       127 13.2    0.252    0.296    0.252    0.296
 -------------------------------------------------------------------------------

 The number of warnings for this run is : 0
 
 -------------------------------------------------------------------------------
  **** **** ******  **  PROGRAM ENDED AT                 2020-11-30 13:01:45.566
 ***** ** ***  *** **   PROGRAM RAN ON                                   tcopt10
 **    ****   ******    PROGRAM RAN BY                                    hutter
 ***** **    ** ** **   PROGRAM PROCESS ID                                 83558
  **** **  *******  **  PROGRAM STOPPED IN /data/hutter/GITHUB/BASIS/MOLOPT/PBE0
                                           /hbcnof
