 DBCSR| CPU Multiplication driver                                           XSMM
 DBCSR| Multrec recursion limit                                              512
 DBCSR| Multiplication stack size                                           1000
 DBCSR| Maximum elements for images                                    UNLIMITED
 DBCSR| Multiplicative factor virtual images                                   1
 DBCSR| Use multiplication densification                                       T
 DBCSR| Multiplication size stacks                                             3
 DBCSR| Use memory pool for CPU allocation                                     F
 DBCSR| Number of 3D layers                                               SINGLE
 DBCSR| Use MPI memory allocation                                              F
 DBCSR| Use RMA algorithm                                                      F
 DBCSR| Use Communication thread                                               T
 DBCSR| Communication thread load                                             87
 DBCSR| Split modifier for TAS multiplication algorithm                  1.0E+00


  **** **** ******  **  PROGRAM STARTED AT               2020-11-30 12:53:41.384
 ***** ** ***  *** **   PROGRAM STARTED ON                               tcopt10
 **    ****   ******    PROGRAM STARTED BY                                hutter
 ***** **    ** ** **   PROGRAM PROCESS ID                                 81747
  **** **  *******  **  PROGRAM STARTED IN /data/hutter/GITHUB/BASIS/MOLOPT/PBE0
                                           /hbcnof

 CP2K| version string:                    CP2K version 8.0 (Development Version)
 CP2K| source code revision number:                                  git:afc71fa
 CP2K| cp2kflags: omp libint fftw3 libxc elpa parallel mpi3 scalapack xsmm spgli
 CP2K|            b sirius
 CP2K| is freely available from                            https://www.cp2k.org/
 CP2K| Program compiled at                          Tue Nov 17 10:27:14 CET 2020
 CP2K| Program compiled on                                               tcopt10
 CP2K| Program compiled for                                                local
 CP2K| Data directory path                 /data/hutter/GITHUB/CURRENT/cp2k/data
 CP2K| Input file name                                               HNO-ref.inp

 GLOBAL| Force Environment number                                              1
 GLOBAL| Basis set file name                                  ../PBE0_UCSEGBASIS
 GLOBAL| Potential file name                                        ../POTENTIAL
 GLOBAL| MM Potential file name                                     MM_POTENTIAL
 GLOBAL| Coordinate file name                                      __STD_INPUT__
 GLOBAL| Method name                                                        CP2K
 GLOBAL| Project name                                                     refHNO
 GLOBAL| Preferred FFT library                                             FFTW3
 GLOBAL| Preferred diagonalization lib.                                     ELPA
 GLOBAL| Run type                                                         ENERGY
 GLOBAL| All-to-all communication in single precision                          F
 GLOBAL| FFTs using library dependent lengths                                  F
 GLOBAL| Global print level                                                  LOW
 GLOBAL| MPI I/O enabled                                                       T
 GLOBAL| Total number of message passing processes                            36
 GLOBAL| Number of threads for this process                                    1
 GLOBAL| This output is from process                                           0
 GLOBAL| CPU model name                          AMD EPYC 7401 24-Core Processor
 GLOBAL| CPUID                                                              1002

 MEMORY| system memory details [Kb]
 MEMORY|                        rank 0           min           max       average
 MEMORY| MemTotal            263987256     263987256     263987256     263987256
 MEMORY| MemFree             242282940     242282940     242282940     242282940
 MEMORY| Buffers                   148           148           148           148
 MEMORY| Cached               17819768      17819768      17819768      17819768
 MEMORY| Slab                   935064        935064        935064        935064
 MEMORY| SReclaimable           419736        419736        419736        419736
 MEMORY| MemLikelyFree       260522592     260522592     260522592     260522592


 GENERATE|  Preliminary Number of Bonds generated:                             0
 GENERATE|  Achieved consistency in connectivity generation.

 *******************************************************************************
 *******************************************************************************
 **                                                                           **
 **     #####                         ##              ##                      **
 **    ##   ##            ##          ##              ##                      **
 **   ##     ##                       ##            ######                    **
 **   ##     ##  ##   ##  ##   #####  ##  ##   ####   ##    #####    #####    **
 **   ##     ##  ##   ##  ##  ##      ## ##   ##      ##   ##   ##  ##   ##   **
 **   ##  ## ##  ##   ##  ##  ##      ####     ###    ##   ######   ######    **
 **    ##  ###   ##   ##  ##  ##      ## ##      ##   ##   ##       ##        **
 **     #######   #####   ##   #####  ##  ##  ####    ##    #####   ##        **
 **           ##                                                    ##        **
 **                                                                           **
 **                                                ... make the atoms dance   **
 **                                                                           **
 **            Copyright (C) by CP2K developers group (2000 - 2020)           **
 **                      J. Chem. Phys. 152, 194103 (2020)                    **
 **                                                                           **
 *******************************************************************************


 TOTAL NUMBERS AND MAXIMUM NUMBERS

  Total number of            - Atomic kinds:                                   3
                             - Atoms:                                          3
                             - Shell sets:                                    36
                             - Shells:                                        60
                             - Primitive Cartesian functions:                 36
                             - Cartesian basis functions:                    196
                             - Spherical basis functions:                    172

  Maximum angular momentum of- Orbital basis functions:                        3
                             - Local part of the GTH pseudopotential:          2
                             - Non-local part of the GTH pseudopotential:      0


 SCF PARAMETERS         Density guess:                                    ATOMIC
                        --------------------------------------------------------
                        max_scf:                                              10
                        max_scf_history:                                       0
                        max_diis:                                              4
                        --------------------------------------------------------
                        eps_scf:                                        1.00E-07
                        eps_scf_history:                                0.00E+00
                        eps_diis:                                       1.00E-01
                        eps_eigval:                                     1.00E-05
                        --------------------------------------------------------
                        level_shift [a.u.]:                                 0.00
                        --------------------------------------------------------
                        Outer loop SCF in use 
                        No variables optimised in outer loop
                        eps_scf                                         1.00E-07
                        max_scf                                               10
                        No outer loop optimization
                        step_size                                       5.00E-01

 Number of electrons:                                                         12
 Number of occupied orbitals:                                                  6
 Number of molecular orbitals:                                                 6

 Number of orbital functions:                                                172
 Number of independent orbital functions:                                    172

 Extrapolation method: initial_guess


 SCF WAVEFUNCTION OPTIMIZATION

  ----------------------------------- OT ---------------------------------------
  Minimizer      : DIIS                : direct inversion
                                         in the iterative subspace
                                         using   7 DIIS vectors
                                         safer DIIS on
  Preconditioner : FULL_ALL            : diagonalization, state selective
  Precond_solver : DEFAULT
  stepsize       :    0.15000000                  energy_gap     :    0.08000000
  eps_taylor     :   0.10000E-15                  max_taylor     :             4
  ----------------------------------- OT ---------------------------------------

  Step     Update method      Time    Convergence         Total energy    Change
  ------------------------------------------------------------------------------
     1 OT DIIS     0.15E+00    8.3     0.19118577       -24.3615806570 -2.44E+01
     2 OT DIIS     0.15E+00    0.6     0.13324603       -24.5547573066 -1.93E-01
     3 OT DIIS     0.15E+00    0.6     0.10567532       -25.8141929275 -1.26E+00
     4 OT DIIS     0.15E+00    0.6     0.05164290       -26.2276954208 -4.14E-01
     5 OT DIIS     0.15E+00    0.6     0.02631971       -26.3093443559 -8.16E-02
     6 OT DIIS     0.15E+00    0.6     0.03576552       -26.3306446754 -2.13E-02
     7 OT DIIS     0.15E+00    0.6     0.01432810       -26.3706761053 -4.00E-02
     8 OT DIIS     0.15E+00    0.6     0.01213471       -26.3874775647 -1.68E-02
     9 OT DIIS     0.15E+00    0.6     0.01030211       -26.4018467968 -1.44E-02
    10 OT DIIS     0.15E+00    0.6     0.00818233       -26.4146739941 -1.28E-02

  Leaving inner SCF loop after reaching    10 steps.


  Electronic density on regular grids:        -12.0000000000        0.0000000000
  Core density on regular grids:               12.0000000000       -0.0000000000
  Total charge density on r-space grids:        0.0000000000
  Total charge density g-space grids:           0.0000000000

  Overlap energy of the core charge distribution:               0.00000002393835
  Self energy of the core charge distribution:                -67.39812499429787
  Core Hamiltonian energy:                                     19.30393544575129
  Hartree energy:                                              27.91219028384248
  Exchange-correlation energy:                                 -4.80199244527273
  Hartree-Fock Exchange energy:                                -1.43068230809579

  Total energy:                                               -26.41467399413427

  outer SCF iter =    1 RMS gradient =   0.82E-02 energy =        -26.4146739941

  ----------------------------------- OT ---------------------------------------
  Minimizer      : DIIS                : direct inversion
                                         in the iterative subspace
                                         using   7 DIIS vectors
                                         safer DIIS on
  Preconditioner : FULL_ALL            : diagonalization, state selective
  Precond_solver : DEFAULT
  stepsize       :    0.15000000                  energy_gap     :    0.08000000
  eps_taylor     :   0.10000E-15                  max_taylor     :             4
  ----------------------------------- OT ---------------------------------------

  Step     Update method      Time    Convergence         Total energy    Change
  ------------------------------------------------------------------------------
     1 OT DIIS     0.15E+00    1.2     0.00877990       -26.4286303100 -1.40E-02
     2 OT DIIS     0.15E+00    0.6     0.00594559       -26.4383408697 -9.71E-03
     3 OT DIIS     0.15E+00    0.6     0.00358559       -26.4446796956 -6.34E-03
     4 OT DIIS     0.15E+00    0.6     0.00213030       -26.4464352790 -1.76E-03
     5 OT DIIS     0.15E+00    0.6     0.00080920       -26.4467059165 -2.71E-04
     6 OT DIIS     0.15E+00    0.6     0.00012122       -26.4468007479 -9.48E-05
     7 OT DIIS     0.15E+00    0.6     0.00008033       -26.4468022190 -1.47E-06
     8 OT DIIS     0.15E+00    0.6     0.00000933       -26.4468027036 -4.85E-07
     9 OT DIIS     0.15E+00    0.6     0.00000534       -26.4468027139 -1.03E-08
    10 OT DIIS     0.15E+00    0.6     0.00000048       -26.4468027162 -2.32E-09

  Leaving inner SCF loop after reaching    10 steps.


  Electronic density on regular grids:        -12.0000000000        0.0000000000
  Core density on regular grids:               12.0000000000       -0.0000000000
  Total charge density on r-space grids:        0.0000000000
  Total charge density g-space grids:           0.0000000000

  Overlap energy of the core charge distribution:               0.00000002393835
  Self energy of the core charge distribution:                -67.39812499429787
  Core Hamiltonian energy:                                     19.23924008452320
  Hartree energy:                                              27.94080034107126
  Exchange-correlation energy:                                 -4.79883772385025
  Hartree-Fock Exchange energy:                                -1.42988044756568

  Total energy:                                               -26.44680271618099

  outer SCF iter =    2 RMS gradient =   0.48E-06 energy =        -26.4468027162

  ----------------------------------- OT ---------------------------------------
  Minimizer      : DIIS                : direct inversion
                                         in the iterative subspace
                                         using   7 DIIS vectors
                                         safer DIIS on
  Preconditioner : FULL_ALL            : diagonalization, state selective
  Precond_solver : DEFAULT
  stepsize       :    0.15000000                  energy_gap     :    0.08000000
  eps_taylor     :   0.10000E-15                  max_taylor     :             4
  ----------------------------------- OT ---------------------------------------

  Step     Update method      Time    Convergence         Total energy    Change
  ------------------------------------------------------------------------------
     1 OT DIIS     0.15E+00    1.2     0.00000011       -26.4468027162 -3.07E-11
     2 OT DIIS     0.15E+00    0.6     0.00000007       -26.4468027162 -1.21E-12

  *** SCF run converged in     2 steps ***


  Electronic density on regular grids:        -12.0000000000        0.0000000000
  Core density on regular grids:               12.0000000000       -0.0000000000
  Total charge density on r-space grids:        0.0000000000
  Total charge density g-space grids:           0.0000000000

  Overlap energy of the core charge distribution:               0.00000002393835
  Self energy of the core charge distribution:                -67.39812499429787
  Core Hamiltonian energy:                                     19.23924034892270
  Hartree energy:                                              27.94080025219122
  Exchange-correlation energy:                                 -4.79883784903070
  Hartree-Fock Exchange energy:                                -1.42988049793658

  Total energy:                                               -26.44680271621286

  outer SCF iter =    3 RMS gradient =   0.66E-07 energy =        -26.4468027162
  outer SCF loop converged in   3 iterations or   22 steps


 ENERGY| Total FORCE_EVAL ( QS ) energy [a.u.]:              -26.446802716212865

 -------------------------------------------------------------------------------
 -                                                                             -
 -                                DBCSR STATISTICS                             -
 -                                                                             -
 -------------------------------------------------------------------------------
 COUNTER                                    TOTAL       BLAS       SMM       ACC
 flops     6 x     6 x     6                76464       0.0%    100.0%      0.0%
 flops     6 x     6 x    68               445536       0.0%    100.0%      0.0%
 flops    68 x     6 x     6               553248       0.0%    100.0%      0.0%
 flops     6 x     6 x    52               681408       0.0%    100.0%      0.0%
 flops    52 x     6 x     6               846144       0.0%    100.0%      0.0%
 flops    52 x    68 x     6               975936       0.0%    100.0%      0.0%
 flops    68 x    52 x     6               975936       0.0%    100.0%      0.0%
 flops    68 x    68 x     6              1276224       0.0%    100.0%      0.0%
 flops    52 x    52 x     6              2238912       0.0%    100.0%      0.0%
 flops    68 x     6 x    68              6325632       0.0%    100.0%      0.0%
 flops    68 x     6 x    52              9674496       0.0%    100.0%      0.0%
 flops    52 x     6 x    68              9674496       0.0%    100.0%      0.0%
 flops    52 x     6 x    52             14796288       0.0%    100.0%      0.0%
 flops inhomo. stacks                           0       0.0%      0.0%      0.0%
 flops total                        48.540720E+06       0.0%    100.0%      0.0%
 flops max/rank                     19.033008E+06       0.0%    100.0%      0.0%
 matmuls inhomo. stacks                         0       0.0%      0.0%      0.0%
 matmuls total                               1953       0.0%    100.0%      0.0%
 number of processed stacks                  1953       0.0%    100.0%      0.0%
 average stack size                                     0.0       1.0       0.0
 marketing flops                    51.276072E+06
 -------------------------------------------------------------------------------
 # multiplications                            521
 max memory usage/rank             444.456960E+06
 # max total images/rank                        1
 # max 3D layers                                1
 # MPI messages exchanged                  187560
 MPI messages size (bytes):
  total size                       154.357920E+06
  min size                           0.000000E+00
  max size                          36.992000E+03
  average size                     822.978882E+00
 MPI breakdown and total messages size (bytes):
             size <=      128              173270                        0
       128 < size <=     8192                9160                 19454880
      8192 < size <=    32768                4560                113817600
     32768 < size <=   131072                 570                 21085440
    131072 < size <=  4194304                   0                        0
   4194304 < size <= 16777216                   0                        0
  16777216 < size                               0                        0
 -------------------------------------------------------------------------------
 -                                                                             -
 -                      DBCSR MESSAGE PASSING PERFORMANCE                      -
 -                                                                             -
 -------------------------------------------------------------------------------
 ROUTINE             CALLS      AVE VOLUME [Bytes]
 MP_Bcast               14                     12.
 MP_Allreduce         2775                      8.
 MP_Alltoall          2230                   2825.
 MP_ISend            12492                   1159.
 MP_IRecv            12492                    690.
 -------------------------------------------------------------------------------

 -------------------------------------------------------------------------------
 -                                                                             -
 -                                GRID STATISTICS                              -
 -                                                                             -
 -------------------------------------------------------------------------------
 LP    KERNEL    OPERATION                                     COUNT     PERCENT
 0     general   collocate                                       108       0.28%
 0     ortho     integrate                                      1408       3.66%
 0     ortho     collocate                                      1472       3.82%
 1     ortho     integrate                                      2640       6.86%
 1     ortho     collocate                                      2760       7.17%
 2     ortho     integrate                                      5566      14.46%
 2     ortho     collocate                                      5819      15.12%
 3     ortho     integrate                                      5632      14.63%
 3     ortho     collocate                                      5888      15.30%
 4     ortho     integrate                                      2464       6.40%
 4     ortho     collocate                                      2576       6.69%
 5     ortho     integrate                                       704       1.83%
 5     ortho     collocate                                       736       1.91%
 6     ortho     integrate                                       352       0.91%
 6     ortho     collocate                                       368       0.96%
 -------------------------------------------------------------------------------

 MEMORY| Estimated peak process memory [MiB]                                 424

 -------------------------------------------------------------------------------
 -                                                                             -
 -                         MESSAGE PASSING PERFORMANCE                         -
 -                                                                             -
 -------------------------------------------------------------------------------

 ROUTINE             CALLS      AVE VOLUME [Bytes]
 MP_Group                5
 MP_Bcast              287                 973290.
 MP_Allreduce          790                   1770.
 MP_Sync               117
 MP_Alltoall           438                6194579.
 MP_ISendRecv         6335                  95499.
 MP_Wait              8313
 MP_ISend             1840                 242064.
 MP_IRecv             1840                 242064.
 MP_Recv                10                   1376.
 -------------------------------------------------------------------------------


 -------------------------------------------------------------------------------
 -                                                                             -
 -                           R E F E R E N C E S                               -
 -                                                                             -
 -------------------------------------------------------------------------------
 
 CP2K version 8.0 (Development Version), the CP2K developers group (2020).
 CP2K is freely available from https://www.cp2k.org/ .

 Kuehne,Thomas D.; Iannuzzi,Marcella; Del Ben,Mauro;
 Rybkin,Vladimir V.; Seewald,Patrick; Stein,Frederick; Laino,Teodoro;
 Khaliullin,Rustam Z.; Schuett,Ole; Schiffmann,Florian; Golze,Dorothea;
 Wilhelm,Jan; Chulkov,Sergey; Bani-Hashemian,Mohammad Hossein;
 Weber,Valery; Borstnik,Urban; Taillefumier,Mathieu;
 Jakobovits,Alice Shoshana; Lazzaro,Alfio; Pabst,Hans; Mueller,Tiziano;
 Schade,Robert; Guidon,Manuel; Andermatt,Samuel; Holmberg,Nico;
 Schenter,Gregory K.; Hehn,Anna; Bussy,Augustin; Belleflamme,Fabian;
 Tabacchi,Gloria; Gloess,Andreas; Lass,Michael; Bethune,Iain;
 Mundy,Christopher J.; Plessl,Christian; Watkins,Matt;
 VandeVondele,Joost; Krack,Matthias; Hutter,Juerg. 
 The Journal of Chemical Physics, 152 (19), (2020). 
 CP2K: An electronic structure and molecular dynamics software package -
 Quickstep: Efficient and accurate electronic structure calculations.
 https://doi.org/10.1063/5.0007045

 Schuett, Ole; Messmer, Peter; Hutter, Juerg; VandeVondele, Joost. 
 Electronic Structure Calculations on Graphics Processing Units, John
 Wiley & Sons, Ltd, 173-190 (2016). 
 GPU-Accelerated Sparse Matrix-Matrix Multiplication for
 Linear Scaling Density Functional Theory.
 https://doi.org/10.1002/9781118670712.ch8

 Borstnik, U; VandeVondele, J; Weber, V; Hutter, J. 
 PARALLEL COMPUTING, 40 (5-6), 47-58 (2014). 
 Sparse matrix multiplication: The distributed block-compressed sparse
 row library.
 https://doi.org/10.1016/j.parco.2014.03.012

 Hutter, J; Iannuzzi, M; Schiffmann, F; VandeVondele, J. 
 WIREs Comput Mol Sci., 4 (1), 15-25 (2014). 
 CP2K: atomistic simulations of condensed matter systems.
 https://doi.org/10.1002/wcms.1159

 Marek, A; Blum, V; Johanni, R; Havu, V; Lang, B; Auckenthaler, T;
 Heinecke, A; Bungartz, H; Lederer, H. 
 Journal of Physics: Condensed Matter, 26 (21), (2014). 
 The ELPA library: scalable parallel eigenvalue solutions for
 electronic structure
 theory and computational science.
 https://doi.org/10.1088/0953-8984/26/21/213201

 Guidon, M; Hutter, J; VandeVondele, J. 
 JOURNAL OF CHEMICAL THEORY AND COMPUTATION, 5 (11), 3010-3021 (2009). 
 Robust Periodic Hartree-Fock Exchange for Large-Scale Simulations Using
 Gaussian Basis Sets.
 https://doi.org/10.1021/ct900494g

 Guidon, M; Schiffmann, F; Hutter, J; VandeVondele, J. 
 JOURNAL OF CHEMICAL PHYSICS, 128 (21), 214104 (2008). 
 Ab initio molecular dynamics using hybrid density functionals.
 https://doi.org/10.1063/1.2931945

 Krack, M. 
 THEORETICAL CHEMISTRY ACCOUNTS, 114 (1-3), 145-152 (2005). 
 Pseudopotentials for H to Kr optimized for gradient-corrected
 exchange-correlation functionals.
 https://doi.org/10.1007/s00214-005-0655-y

 VandeVondele, J; Krack, M; Mohamed, F; Parrinello, M; Chassaing, T;
 Hutter, J. COMPUTER PHYSICS COMMUNICATIONS, 167 (2), 103-128 (2005). 
 QUICKSTEP: Fast and accurate density functional calculations using a
 mixed Gaussian and plane waves approach.
 https://doi.org/10.1016/j.cpc.2004.12.014

 Frigo, M; Johnson, SG. 
 PROCEEDINGS OF THE IEEE, 93 (2), 216-231 (2005). 
 The design and implementation of FFTW3.
 https://doi.org/10.1109/JPROC.2004.840301

 VandeVondele, J; Hutter, J. 
 JOURNAL OF CHEMICAL PHYSICS, 118 (10), 4365-4369 (2003). 
 An efficient orbital transformation method for electronic structure
 calculations.
 https://doi.org/10.1063/1.1543154

 Martyna, GJ; Tuckerman, ME. 
 JOURNAL OF CHEMICAL PHYSICS, 110 (6), 2810-2821 (1999). 
 A reciprocal space based method for treating long range interactions in
 ab initio and force-field-based calculations in clusters.
 https://doi.org/10.1063/1.477923

 Hartwigsen, C; Goedecker, S; Hutter, J. 
 PHYSICAL REVIEW B, 58 (7), 3641-3662 (1998). 
 Relativistic separable dual-space Gaussian pseudopotentials from H to Rn.
 https://doi.org/10.1103/PhysRevB.58.3641

 Lippert, G; Hutter, J; Parrinello, M. 
 MOLECULAR PHYSICS, 92 (3), 477-487 (1997). 
 A hybrid Gaussian and plane wave density functional scheme.
 https://doi.org/10.1080/002689797170220

 Perdew, JP; Burke, K; Ernzerhof, M. 
 PHYSICAL REVIEW LETTERS, 77 (18), 3865-3868 (1996). 
 Generalized gradient approximation made simple.
 https://doi.org/10.1103/PhysRevLett.77.3865

 Goedecker, S; Teter, M; Hutter, J. 
 PHYSICAL REVIEW B, 54 (3), 1703-1710 (1996). 
 Separable dual-space Gaussian pseudopotentials.
 https://doi.org/10.1103/PhysRevB.54.1703


 -------------------------------------------------------------------------------
 -                                                                             -
 -                                T I M I N G                                  -
 -                                                                             -
 -------------------------------------------------------------------------------
 SUBROUTINE                       CALLS  ASD         SELF TIME        TOTAL TIME
                                MAXIMUM       AVERAGE  MAXIMUM  AVERAGE  MAXIMUM
 CP2K                                 1  1.0    0.009    0.014   21.262   21.263
 qs_energies                          1  2.0    0.000    0.000   21.016   21.016
 scf_env_do_scf                       1  3.0    0.000    0.000   20.822   20.822
 qs_ks_update_qs_env                 25  5.0    0.000    0.000   17.861   17.862
 rebuild_ks_matrix                   22  6.0    0.000    0.000   17.859   17.860
 qs_ks_build_kohn_sham_matrix        22  7.0    0.004    0.004   17.859   17.860
 scf_env_do_scf_inner_loop           22  4.0    0.001    0.002   11.589   11.589
 hfx_ks_matrix                       22  8.0    0.001    0.001   10.181   10.182
 integrate_four_center               22  9.0    0.010    0.011   10.179   10.180
 init_scf_loop                        3  4.0    0.000    0.000    9.233    9.233
 pw_transfer                        425  9.6    0.037    0.045    5.483    6.213
 fft_wrap_pw1pw2                    381 10.7    0.005    0.006    5.404    6.146
 fft_wrap_pw1pw2_300                245 11.8    0.271    0.322    5.112    5.823
 fft3d_ps                           381 12.7    1.900    2.018    4.359    5.243
 qs_vxc_create                       22  8.0    0.001    0.001    4.895    4.909
 xc_vxc_pw_create                    22  9.0    0.038    0.040    4.895    4.908
 calc_screening_functions             1 10.0    3.253    3.280    4.710    4.744
 mp_sync                            117 10.7    2.251    3.330    2.251    3.330
 integrate_four_center_main          22 10.0    0.003    0.004    1.080    3.324
 integrate_four_center_bin         2794 11.0    1.077    3.322    1.077    3.322
 xc_rho_set_and_dset_create          22 10.0    0.021    0.025    2.631    3.045
 mp_alltoall_z22v                   381 14.7    2.005    2.987    2.005    2.987
 qs_rho_update_rho                   23  5.0    0.000    0.000    2.568    2.568
 calculate_rho_elec                  23  6.0    0.017    0.017    2.568    2.568
 yz_to_x                            182 13.1    0.186    0.219    1.381    2.196
 rs_pw_transfer                     181  9.4    0.004    0.005    1.932    2.093
 density_rs2pw                       23  7.0    0.001    0.001    1.891    2.043
 sum_up_and_integrate                22  8.0    0.009    0.013    2.001    2.002
 integrate_v_rspace_low              22  9.0    0.048    0.347    1.993    1.995
 calc_pair_dist_radii                 1 10.0    1.511    1.520    1.946    1.959
 powell_optimize                 705504 11.0    1.892    1.921    1.892    1.921
 potential_pw2rs                     22 10.0    0.002    0.002    1.634    1.637
 xc_functional_eval                  22 11.0    0.000    0.000    1.144    1.561
 pbe_lda_eval                        22 12.0    1.144    1.560    1.144    1.560
 x_to_yz                            199 14.2    0.257    0.291    1.067    1.208
 mp_waitall_1                     39817 13.8    0.725    0.918    0.725    0.918
 rs_pw_transfer_RS2PW_300            24  8.9    0.277    0.377    0.564    0.720
 grid_collocate_task_list            23  7.0    0.383    0.641    0.383    0.641
 mp_waitany                        1840 11.4    0.358    0.603    0.358    0.603
 rs_pw_transfer_PW2RS_300            22 12.0    0.276    0.350    0.482    0.550
 rs_pw_transfer_PW2RS_100            22 12.0    0.082    0.102    0.439    0.525
 pw_gather_p                        182 12.1    0.360    0.450    0.360    0.450
 pw_scatter_p                       199 13.2    0.394    0.445    0.394    0.445
 mp_alltoall_d11v                   603 11.5    0.371    0.430    0.371    0.430
 -------------------------------------------------------------------------------

 The number of warnings for this run is : 0
 
 -------------------------------------------------------------------------------
  **** **** ******  **  PROGRAM ENDED AT                 2020-11-30 12:54:03.387
 ***** ** ***  *** **   PROGRAM RAN ON                                   tcopt10
 **    ****   ******    PROGRAM RAN BY                                    hutter
 ***** **    ** ** **   PROGRAM PROCESS ID                                 81747
  **** **  *******  **  PROGRAM STOPPED IN /data/hutter/GITHUB/BASIS/MOLOPT/PBE0
                                           /hbcnof
