 DBCSR| CPU Multiplication driver                                           XSMM
 DBCSR| Multrec recursion limit                                              512
 DBCSR| Multiplication stack size                                           1000
 DBCSR| Maximum elements for images                                    UNLIMITED
 DBCSR| Multiplicative factor virtual images                                   1
 DBCSR| Use multiplication densification                                       T
 DBCSR| Multiplication size stacks                                             3
 DBCSR| Use memory pool for CPU allocation                                     F
 DBCSR| Number of 3D layers                                               SINGLE
 DBCSR| Use MPI memory allocation                                              F
 DBCSR| Use RMA algorithm                                                      F
 DBCSR| Use Communication thread                                               T
 DBCSR| Communication thread load                                             87
 DBCSR| Split modifier for TAS multiplication algorithm                  1.0E+00


  **** **** ******  **  PROGRAM STARTED AT               2020-11-30 12:48:51.063
 ***** ** ***  *** **   PROGRAM STARTED ON                               tcopt10
 **    ****   ******    PROGRAM STARTED BY                                hutter
 ***** **    ** ** **   PROGRAM PROCESS ID                                 80189
  **** **  *******  **  PROGRAM STARTED IN /data/hutter/GITHUB/BASIS/MOLOPT/PBE0
                                           /hbcnof

 CP2K| version string:                    CP2K version 8.0 (Development Version)
 CP2K| source code revision number:                                  git:afc71fa
 CP2K| cp2kflags: omp libint fftw3 libxc elpa parallel mpi3 scalapack xsmm spgli
 CP2K|            b sirius
 CP2K| is freely available from                            https://www.cp2k.org/
 CP2K| Program compiled at                          Tue Nov 17 10:27:14 CET 2020
 CP2K| Program compiled on                                               tcopt10
 CP2K| Program compiled for                                                local
 CP2K| Data directory path                 /data/hutter/GITHUB/CURRENT/cp2k/data
 CP2K| Input file name                                              HNO2-ref.inp

 GLOBAL| Force Environment number                                              1
 GLOBAL| Basis set file name                                  ../PBE0_UCSEGBASIS
 GLOBAL| Potential file name                                        ../POTENTIAL
 GLOBAL| MM Potential file name                                     MM_POTENTIAL
 GLOBAL| Coordinate file name                                      __STD_INPUT__
 GLOBAL| Method name                                                        CP2K
 GLOBAL| Project name                                                    refHNO2
 GLOBAL| Preferred FFT library                                             FFTW3
 GLOBAL| Preferred diagonalization lib.                                     ELPA
 GLOBAL| Run type                                                         ENERGY
 GLOBAL| All-to-all communication in single precision                          F
 GLOBAL| FFTs using library dependent lengths                                  F
 GLOBAL| Global print level                                                  LOW
 GLOBAL| MPI I/O enabled                                                       T
 GLOBAL| Total number of message passing processes                            36
 GLOBAL| Number of threads for this process                                    1
 GLOBAL| This output is from process                                           0
 GLOBAL| CPU model name                          AMD EPYC 7401 24-Core Processor
 GLOBAL| CPUID                                                              1002

 MEMORY| system memory details [Kb]
 MEMORY|                        rank 0           min           max       average
 MEMORY| MemTotal            263987256     263987256     263987256     263987256
 MEMORY| MemFree             242275436     242275436     242275436     242275436
 MEMORY| Buffers                   148           148           148           148
 MEMORY| Cached               17817496      17817496      17817496      17817496
 MEMORY| Slab                   934088        934088        934088        934088
 MEMORY| SReclaimable           418008        418008        418008        418008
 MEMORY| MemLikelyFree       260511088     260511088     260511088     260511088


 GENERATE|  Preliminary Number of Bonds generated:                             0
 GENERATE|  Achieved consistency in connectivity generation.

 *******************************************************************************
 *******************************************************************************
 **                                                                           **
 **     #####                         ##              ##                      **
 **    ##   ##            ##          ##              ##                      **
 **   ##     ##                       ##            ######                    **
 **   ##     ##  ##   ##  ##   #####  ##  ##   ####   ##    #####    #####    **
 **   ##     ##  ##   ##  ##  ##      ## ##   ##      ##   ##   ##  ##   ##   **
 **   ##  ## ##  ##   ##  ##  ##      ####     ###    ##   ######   ######    **
 **    ##  ###   ##   ##  ##  ##      ## ##      ##   ##   ##       ##        **
 **     #######   #####   ##   #####  ##  ##  ####    ##    #####   ##        **
 **           ##                                                    ##        **
 **                                                                           **
 **                                                ... make the atoms dance   **
 **                                                                           **
 **            Copyright (C) by CP2K developers group (2000 - 2020)           **
 **                      J. Chem. Phys. 152, 194103 (2020)                    **
 **                                                                           **
 *******************************************************************************


 TOTAL NUMBERS AND MAXIMUM NUMBERS

  Total number of            - Atomic kinds:                                   3
                             - Atoms:                                          4
                             - Shell sets:                                    48
                             - Shells:                                        80
                             - Primitive Cartesian functions:                 48
                             - Cartesian basis functions:                    252
                             - Spherical basis functions:                    224

  Maximum angular momentum of- Orbital basis functions:                        3
                             - Local part of the GTH pseudopotential:          2
                             - Non-local part of the GTH pseudopotential:      0


 SCF PARAMETERS         Density guess:                                    ATOMIC
                        --------------------------------------------------------
                        max_scf:                                              10
                        max_scf_history:                                       0
                        max_diis:                                              4
                        --------------------------------------------------------
                        eps_scf:                                        1.00E-07
                        eps_scf_history:                                0.00E+00
                        eps_diis:                                       1.00E-01
                        eps_eigval:                                     1.00E-05
                        --------------------------------------------------------
                        level_shift [a.u.]:                                 0.00
                        --------------------------------------------------------
                        Outer loop SCF in use 
                        No variables optimised in outer loop
                        eps_scf                                         1.00E-07
                        max_scf                                               10
                        No outer loop optimization
                        step_size                                       5.00E-01

 Number of electrons:                                                         18
 Number of occupied orbitals:                                                  9
 Number of molecular orbitals:                                                 9

 Number of orbital functions:                                                224
 Number of independent orbital functions:                                    224

 Extrapolation method: initial_guess


 SCF WAVEFUNCTION OPTIMIZATION

  ----------------------------------- OT ---------------------------------------
  Minimizer      : DIIS                : direct inversion
                                         in the iterative subspace
                                         using   7 DIIS vectors
                                         safer DIIS on
  Preconditioner : FULL_ALL            : diagonalization, state selective
  Precond_solver : DEFAULT
  stepsize       :    0.15000000                  energy_gap     :    0.08000000
  eps_taylor     :   0.10000E-15                  max_taylor     :             4
  ----------------------------------- OT ---------------------------------------

  Step     Update method      Time    Convergence         Total energy    Change
  ------------------------------------------------------------------------------
     1 OT DIIS     0.15E+00    8.3     0.10594436       -40.0965740501 -4.01E+01
     2 OT DIIS     0.15E+00    0.6     0.11516647       -41.6104455106 -1.51E+00
     3 OT DIIS     0.15E+00    0.6     0.06247325       -42.1026773403 -4.92E-01
     4 OT DIIS     0.15E+00    0.6     0.02829912       -42.3538074413 -2.51E-01
     5 OT DIIS     0.15E+00    0.6     0.01357018       -42.4246331913 -7.08E-02
     6 OT DIIS     0.15E+00    0.6     0.00889038       -42.4499452875 -2.53E-02
     7 OT DIIS     0.15E+00    0.6     0.00689507       -42.4596513465 -9.71E-03
     8 OT DIIS     0.15E+00    0.6     0.00388760       -42.4653733532 -5.72E-03
     9 OT DIIS     0.15E+00    0.6     0.00166270       -42.4675648695 -2.19E-03
    10 OT DIIS     0.15E+00    0.6     0.00102273       -42.4684930372 -9.28E-04

  Leaving inner SCF loop after reaching    10 steps.


  Electronic density on regular grids:        -17.9999999997        0.0000000003
  Core density on regular grids:               18.0000000000       -0.0000000000
  Total charge density on r-space grids:        0.0000000003
  Total charge density g-space grids:           0.0000000003

  Overlap energy of the core charge distribution:               0.00000003757215
  Self energy of the core charge distribution:               -108.56146496612999
  Core Hamiltonian energy:                                     31.12543121433208
  Hartree energy:                                              44.71778490354812
  Exchange-correlation energy:                                 -7.51659354577830
  Hartree-Fock Exchange energy:                                -2.23365068078121

  Total energy:                                               -42.46849303723715

  outer SCF iter =    1 RMS gradient =   0.10E-02 energy =        -42.4684930372

  ----------------------------------- OT ---------------------------------------
  Minimizer      : DIIS                : direct inversion
                                         in the iterative subspace
                                         using   7 DIIS vectors
                                         safer DIIS on
  Preconditioner : FULL_ALL            : diagonalization, state selective
  Precond_solver : DEFAULT
  stepsize       :    0.15000000                  energy_gap     :    0.08000000
  eps_taylor     :   0.10000E-15                  max_taylor     :             4
  ----------------------------------- OT ---------------------------------------

  Step     Update method      Time    Convergence         Total energy    Change
  ------------------------------------------------------------------------------
     1 OT DIIS     0.15E+00    1.2     0.00070390       -42.4687553909 -2.62E-04
     2 OT DIIS     0.15E+00    0.6     0.00046899       -42.4688535521 -9.82E-05
     3 OT DIIS     0.15E+00    0.6     0.00037662       -42.4688801903 -2.66E-05
     4 OT DIIS     0.15E+00    0.6     0.00007083       -42.4689035248 -2.33E-05
     5 OT DIIS     0.15E+00    0.6     0.00002693       -42.4689048190 -1.29E-06
     6 OT DIIS     0.15E+00    0.6     0.00001272       -42.4689049796 -1.61E-07
     7 OT DIIS     0.15E+00    0.6     0.00000199       -42.4689050090 -2.94E-08
     8 OT DIIS     0.15E+00    0.6     0.00000041       -42.4689050101 -1.12E-09
     9 OT DIIS     0.15E+00    0.6     0.00000015       -42.4689050102 -4.14E-11
    10 OT DIIS     0.15E+00    0.6     0.00000002       -42.4689050102 -6.18E-12

  *** SCF run converged in    10 steps ***


  Electronic density on regular grids:        -17.9999999997        0.0000000003
  Core density on regular grids:               18.0000000000       -0.0000000000
  Total charge density on r-space grids:        0.0000000003
  Total charge density g-space grids:           0.0000000003

  Overlap energy of the core charge distribution:               0.00000003757215
  Self energy of the core charge distribution:               -108.56146496612999
  Core Hamiltonian energy:                                     31.10816835112471
  Hartree energy:                                              44.73193340407865
  Exchange-correlation energy:                                 -7.51448735334726
  Hartree-Fock Exchange energy:                                -2.23305448345627

  Total energy:                                               -42.46890501015800

  outer SCF iter =    2 RMS gradient =   0.22E-07 energy =        -42.4689050102
  outer SCF loop converged in   2 iterations or   20 steps


 ENERGY| Total FORCE_EVAL ( QS ) energy [a.u.]:              -42.468905010157997

 -------------------------------------------------------------------------------
 -                                                                             -
 -                                DBCSR STATISTICS                             -
 -                                                                             -
 -------------------------------------------------------------------------------
 COUNTER                                    TOTAL       BLAS       SMM       ACC
 flops     9 x     9 x     9               204120       0.0%    100.0%      0.0%
 flops     9 x     9 x    68               903312       0.0%    100.0%      0.0%
 flops    68 x     9 x     9              1123632       0.0%    100.0%      0.0%
 flops    52 x    68 x     9              1336608       0.0%    100.0%      0.0%
 flops    68 x    68 x     9              1747872       0.0%    100.0%      0.0%
 flops     9 x     9 x    52              2072304       0.0%    100.0%      0.0%
 flops    52 x     9 x     9              2577744       0.0%    100.0%      0.0%
 flops    68 x    52 x     9              2673216       0.0%    100.0%      0.0%
 flops    52 x    52 x     9              6132672       0.0%    100.0%      0.0%
 flops    68 x     9 x    68              8156736       0.0%    100.0%      0.0%
 flops    68 x     9 x    52             18712512       0.0%    100.0%      0.0%
 flops    52 x     9 x    68             18712512       0.0%    100.0%      0.0%
 flops    52 x     9 x    52             42928704       0.0%    100.0%      0.0%
 flops inhomo. stacks                           0       0.0%      0.0%      0.0%
 flops total                       107.281944E+06       0.0%    100.0%      0.0%
 flops max/rank                     32.920488E+06       0.0%    100.0%      0.0%
 matmuls inhomo. stacks                         0       0.0%      0.0%      0.0%
 matmuls total                               2654       0.0%    100.0%      0.0%
 number of processed stacks                  2654       0.0%    100.0%      0.0%
 average stack size                                     0.0       1.0       0.0
 marketing flops                   114.430680E+06
 -------------------------------------------------------------------------------
 # multiplications                            445
 max memory usage/rank             442.404864E+06
 # max total images/rank                        1
 # max 3D layers                                1
 # MPI messages exchanged                  160200
 MPI messages size (bytes):
  total size                       230.667440E+06
  min size                           0.000000E+00
  max size                          36.992000E+03
  average size                       1.439872E+03
 MPI breakdown and total messages size (bytes):
             size <=      128              142330                        0
       128 < size <=     8192               10030                 33977520
      8192 < size <=    32768                7350                178563840
     32768 < size <=   131072                 490                 18126080
    131072 < size <=  4194304                   0                        0
   4194304 < size <= 16777216                   0                        0
  16777216 < size                               0                        0
 -------------------------------------------------------------------------------
 -                                                                             -
 -                      DBCSR MESSAGE PASSING PERFORMANCE                      -
 -                                                                             -
 -------------------------------------------------------------------------------
 ROUTINE             CALLS      AVE VOLUME [Bytes]
 MP_Bcast               14                     12.
 MP_Allreduce         2399                      8.
 MP_Alltoall          1742                   2803.
 MP_ISend            10672                   1661.
 MP_IRecv            10672                   1111.
 -------------------------------------------------------------------------------

 -------------------------------------------------------------------------------
 -                                                                             -
 -                                GRID STATISTICS                              -
 -                                                                             -
 -------------------------------------------------------------------------------
 LP    KERNEL    OPERATION                                     COUNT     PERCENT
 0     general   collocate                                       144       0.25%
 0     ortho     integrate                                      1280       2.22%
 0     ortho     collocate                                      1344       2.33%
 1     ortho     integrate                                      3540       6.14%
 1     ortho     collocate                                      3717       6.45%
 2     ortho     integrate                                      9220      16.00%
 2     ortho     collocate                                      9681      16.80%
 3     ortho     integrate                                      8880      15.41%
 3     ortho     collocate                                      9324      16.18%
 4     ortho     integrate                                      3840       6.66%
 4     ortho     collocate                                      4032       7.00%
 5     ortho     integrate                                       960       1.67%
 5     ortho     collocate                                      1008       1.75%
 6     ortho     integrate                                       320       0.56%
 6     ortho     collocate                                       336       0.58%
 -------------------------------------------------------------------------------

 MEMORY| Estimated peak process memory [MiB]                                 422

 -------------------------------------------------------------------------------
 -                                                                             -
 -                         MESSAGE PASSING PERFORMANCE                         -
 -                                                                             -
 -------------------------------------------------------------------------------

 ROUTINE             CALLS      AVE VOLUME [Bytes]
 MP_Group                5
 MP_Bcast              310                 901010.
 MP_Allreduce          851                   1654.
 MP_Sync               121
 MP_Alltoall           400                6173357.
 MP_ISendRecv         5775                  95429.
 MP_Wait              7581
 MP_comm_split          14
 MP_ISend             1680                 242064.
 MP_IRecv             1680                 242064.
 MP_Recv                 4                   3584.
 -------------------------------------------------------------------------------


 -------------------------------------------------------------------------------
 -                                                                             -
 -                           R E F E R E N C E S                               -
 -                                                                             -
 -------------------------------------------------------------------------------
 
 CP2K version 8.0 (Development Version), the CP2K developers group (2020).
 CP2K is freely available from https://www.cp2k.org/ .

 Kuehne,Thomas D.; Iannuzzi,Marcella; Del Ben,Mauro;
 Rybkin,Vladimir V.; Seewald,Patrick; Stein,Frederick; Laino,Teodoro;
 Khaliullin,Rustam Z.; Schuett,Ole; Schiffmann,Florian; Golze,Dorothea;
 Wilhelm,Jan; Chulkov,Sergey; Bani-Hashemian,Mohammad Hossein;
 Weber,Valery; Borstnik,Urban; Taillefumier,Mathieu;
 Jakobovits,Alice Shoshana; Lazzaro,Alfio; Pabst,Hans; Mueller,Tiziano;
 Schade,Robert; Guidon,Manuel; Andermatt,Samuel; Holmberg,Nico;
 Schenter,Gregory K.; Hehn,Anna; Bussy,Augustin; Belleflamme,Fabian;
 Tabacchi,Gloria; Gloess,Andreas; Lass,Michael; Bethune,Iain;
 Mundy,Christopher J.; Plessl,Christian; Watkins,Matt;
 VandeVondele,Joost; Krack,Matthias; Hutter,Juerg. 
 The Journal of Chemical Physics, 152 (19), (2020). 
 CP2K: An electronic structure and molecular dynamics software package -
 Quickstep: Efficient and accurate electronic structure calculations.
 https://doi.org/10.1063/5.0007045

 Schuett, Ole; Messmer, Peter; Hutter, Juerg; VandeVondele, Joost. 
 Electronic Structure Calculations on Graphics Processing Units, John
 Wiley & Sons, Ltd, 173-190 (2016). 
 GPU-Accelerated Sparse Matrix-Matrix Multiplication for
 Linear Scaling Density Functional Theory.
 https://doi.org/10.1002/9781118670712.ch8

 Borstnik, U; VandeVondele, J; Weber, V; Hutter, J. 
 PARALLEL COMPUTING, 40 (5-6), 47-58 (2014). 
 Sparse matrix multiplication: The distributed block-compressed sparse
 row library.
 https://doi.org/10.1016/j.parco.2014.03.012

 Hutter, J; Iannuzzi, M; Schiffmann, F; VandeVondele, J. 
 WIREs Comput Mol Sci., 4 (1), 15-25 (2014). 
 CP2K: atomistic simulations of condensed matter systems.
 https://doi.org/10.1002/wcms.1159

 Marek, A; Blum, V; Johanni, R; Havu, V; Lang, B; Auckenthaler, T;
 Heinecke, A; Bungartz, H; Lederer, H. 
 Journal of Physics: Condensed Matter, 26 (21), (2014). 
 The ELPA library: scalable parallel eigenvalue solutions for
 electronic structure
 theory and computational science.
 https://doi.org/10.1088/0953-8984/26/21/213201

 Guidon, M; Hutter, J; VandeVondele, J. 
 JOURNAL OF CHEMICAL THEORY AND COMPUTATION, 5 (11), 3010-3021 (2009). 
 Robust Periodic Hartree-Fock Exchange for Large-Scale Simulations Using
 Gaussian Basis Sets.
 https://doi.org/10.1021/ct900494g

 Guidon, M; Schiffmann, F; Hutter, J; VandeVondele, J. 
 JOURNAL OF CHEMICAL PHYSICS, 128 (21), 214104 (2008). 
 Ab initio molecular dynamics using hybrid density functionals.
 https://doi.org/10.1063/1.2931945

 Krack, M. 
 THEORETICAL CHEMISTRY ACCOUNTS, 114 (1-3), 145-152 (2005). 
 Pseudopotentials for H to Kr optimized for gradient-corrected
 exchange-correlation functionals.
 https://doi.org/10.1007/s00214-005-0655-y

 VandeVondele, J; Krack, M; Mohamed, F; Parrinello, M; Chassaing, T;
 Hutter, J. COMPUTER PHYSICS COMMUNICATIONS, 167 (2), 103-128 (2005). 
 QUICKSTEP: Fast and accurate density functional calculations using a
 mixed Gaussian and plane waves approach.
 https://doi.org/10.1016/j.cpc.2004.12.014

 Frigo, M; Johnson, SG. 
 PROCEEDINGS OF THE IEEE, 93 (2), 216-231 (2005). 
 The design and implementation of FFTW3.
 https://doi.org/10.1109/JPROC.2004.840301

 VandeVondele, J; Hutter, J. 
 JOURNAL OF CHEMICAL PHYSICS, 118 (10), 4365-4369 (2003). 
 An efficient orbital transformation method for electronic structure
 calculations.
 https://doi.org/10.1063/1.1543154

 Martyna, GJ; Tuckerman, ME. 
 JOURNAL OF CHEMICAL PHYSICS, 110 (6), 2810-2821 (1999). 
 A reciprocal space based method for treating long range interactions in
 ab initio and force-field-based calculations in clusters.
 https://doi.org/10.1063/1.477923

 Hartwigsen, C; Goedecker, S; Hutter, J. 
 PHYSICAL REVIEW B, 58 (7), 3641-3662 (1998). 
 Relativistic separable dual-space Gaussian pseudopotentials from H to Rn.
 https://doi.org/10.1103/PhysRevB.58.3641

 Lippert, G; Hutter, J; Parrinello, M. 
 MOLECULAR PHYSICS, 92 (3), 477-487 (1997). 
 A hybrid Gaussian and plane wave density functional scheme.
 https://doi.org/10.1080/002689797170220

 Perdew, JP; Burke, K; Ernzerhof, M. 
 PHYSICAL REVIEW LETTERS, 77 (18), 3865-3868 (1996). 
 Generalized gradient approximation made simple.
 https://doi.org/10.1103/PhysRevLett.77.3865

 Goedecker, S; Teter, M; Hutter, J. 
 PHYSICAL REVIEW B, 54 (3), 1703-1710 (1996). 
 Separable dual-space Gaussian pseudopotentials.
 https://doi.org/10.1103/PhysRevB.54.1703


 -------------------------------------------------------------------------------
 -                                                                             -
 -                                T I M I N G                                  -
 -                                                                             -
 -------------------------------------------------------------------------------
 SUBROUTINE                       CALLS  ASD         SELF TIME        TOTAL TIME
                                MAXIMUM       AVERAGE  MAXIMUM  AVERAGE  MAXIMUM
 CP2K                                 1  1.0    0.016    0.019   20.214   20.216
 qs_energies                          1  2.0    0.000    0.000   19.965   19.966
 scf_env_do_scf                       1  3.0    0.000    0.000   19.767   19.768
 qs_ks_update_qs_env                 22  5.0    0.000    0.000   17.065   17.066
 rebuild_ks_matrix                   20  6.0    0.000    0.000   17.063   17.064
 qs_ks_build_kohn_sham_matrix        20  7.0    0.003    0.004   17.063   17.064
 scf_env_do_scf_inner_loop           20  4.0    0.001    0.002   10.944   10.945
 hfx_ks_matrix                       20  8.0    0.001    0.001   10.067   10.068
 integrate_four_center               20  9.0    0.010    0.011   10.065   10.066
 init_scf_loop                        2  4.0    0.000    0.000    8.821    8.822
 pw_transfer                        387  9.6    0.034    0.042    4.925    5.634
 fft_wrap_pw1pw2                    347 10.7    0.004    0.006    4.853    5.570
 fft_wrap_pw1pw2_300                223 11.8    0.245    0.293    4.574    5.277
 calc_screening_functions             1 10.0    3.254    3.287    4.713    4.759
 fft3d_ps                           347 12.7    1.731    1.843    3.904    4.684
 qs_vxc_create                       20  8.0    0.000    0.001    4.363    4.375
 xc_vxc_pw_create                    20  9.0    0.035    0.037    4.363    4.374
 integrate_four_center_main          20 10.0    0.003    0.004    2.434    3.125
 integrate_four_center_bin         2540 11.0    2.431    3.122    2.431    3.122
 xc_rho_set_and_dset_create          20 10.0    0.019    0.022    2.366    2.706
 mp_alltoall_z22v                   347 14.7    1.757    2.670    1.757    2.670
 qs_rho_update_rho                   21  5.0    0.000    0.000    2.386    2.386
 calculate_rho_elec                  21  6.0    0.015    0.016    2.386    2.386
 yz_to_x                            166 13.1    0.170    0.198    1.207    1.984
 calc_pair_dist_radii                 1 10.0    1.511    1.525    1.945    1.961
 rs_pw_transfer                     165  9.4    0.003    0.005    1.787    1.939
 powell_optimize                 705942 11.0    1.894    1.937    1.894    1.937
 sum_up_and_integrate                20  8.0    0.008    0.010    1.906    1.907
 integrate_v_rspace_low              20  9.0    0.064    0.422    1.898    1.900
 density_rs2pw                       21  7.0    0.001    0.001    1.749    1.897
 mp_sync                            121 10.8    0.778    1.607    0.778    1.607
 potential_pw2rs                     20 10.0    0.002    0.002    1.466    1.468
 xc_functional_eval                  20 11.0    0.000    0.000    1.014    1.352
 pbe_lda_eval                        20 12.0    1.014    1.352    1.014    1.352
 x_to_yz                            181 14.2    0.235    0.267    0.956    1.096
 mp_waitall_1                     34381 13.7    0.634    0.754    0.634    0.754
 grid_collocate_task_list            21  7.0    0.366    0.734    0.366    0.734
 rs_pw_transfer_RS2PW_300            22  8.9    0.244    0.328    0.560    0.712
 mp_waitany                        1680 11.4    0.390    0.564    0.390    0.564
 mp_alltoall_d11v                   437 11.4    0.428    0.505    0.428    0.505
 rs_pw_transfer_PW2RS_300            20 12.0    0.251    0.317    0.434    0.502
 rs_pw_transfer_PW2RS_100            20 12.0    0.073    0.084    0.396    0.451
 rs_distribute_matrix                20 10.0    0.000    0.001    0.366    0.431
 pw_gather_p                        166 12.1    0.328    0.423    0.328    0.423
 pw_scatter_p                       181 13.2    0.356    0.408    0.356    0.408
 -------------------------------------------------------------------------------

 The number of warnings for this run is : 0
 
 -------------------------------------------------------------------------------
  **** **** ******  **  PROGRAM ENDED AT                 2020-11-30 12:49:12.010
 ***** ** ***  *** **   PROGRAM RAN ON                                   tcopt10
 **    ****   ******    PROGRAM RAN BY                                    hutter
 ***** **    ** ** **   PROGRAM PROCESS ID                                 80189
  **** **  *******  **  PROGRAM STOPPED IN /data/hutter/GITHUB/BASIS/MOLOPT/PBE0
                                           /hbcnof
