 DBCSR| CPU Multiplication driver                                           XSMM
 DBCSR| Multrec recursion limit                                              512
 DBCSR| Multiplication stack size                                           1000
 DBCSR| Maximum elements for images                                    UNLIMITED
 DBCSR| Multiplicative factor virtual images                                   1
 DBCSR| Use multiplication densification                                       T
 DBCSR| Multiplication size stacks                                             3
 DBCSR| Use memory pool for CPU allocation                                     F
 DBCSR| Number of 3D layers                                               SINGLE
 DBCSR| Use MPI memory allocation                                              F
 DBCSR| Use RMA algorithm                                                      F
 DBCSR| Use Communication thread                                               T
 DBCSR| Communication thread load                                             87
 DBCSR| Split modifier for TAS multiplication algorithm                  1.0E+00


  **** **** ******  **  PROGRAM STARTED AT               2020-11-30 13:20:57.052
 ***** ** ***  *** **   PROGRAM STARTED ON                               tcopt10
 **    ****   ******    PROGRAM STARTED BY                                hutter
 ***** **    ** ** **   PROGRAM PROCESS ID                                 87548
  **** **  *******  **  PROGRAM STARTED IN /data/hutter/GITHUB/BASIS/MOLOPT/PBE0
                                           /hbcnof

 CP2K| version string:                    CP2K version 8.0 (Development Version)
 CP2K| source code revision number:                                  git:afc71fa
 CP2K| cp2kflags: omp libint fftw3 libxc elpa parallel mpi3 scalapack xsmm spgli
 CP2K|            b sirius
 CP2K| is freely available from                            https://www.cp2k.org/
 CP2K| Program compiled at                          Tue Nov 17 10:27:14 CET 2020
 CP2K| Program compiled on                                               tcopt10
 CP2K| Program compiled for                                                local
 CP2K| Data directory path                 /data/hutter/GITHUB/CURRENT/cp2k/data
 CP2K| Input file name                                              HNO3-ref.inp

 GLOBAL| Force Environment number                                              1
 GLOBAL| Basis set file name                                  ../PBE0_UCSEGBASIS
 GLOBAL| Potential file name                                        ../POTENTIAL
 GLOBAL| MM Potential file name                                     MM_POTENTIAL
 GLOBAL| Coordinate file name                                      __STD_INPUT__
 GLOBAL| Method name                                                        CP2K
 GLOBAL| Project name                                                    refHNO3
 GLOBAL| Preferred FFT library                                             FFTW3
 GLOBAL| Preferred diagonalization lib.                                     ELPA
 GLOBAL| Run type                                                         ENERGY
 GLOBAL| All-to-all communication in single precision                          F
 GLOBAL| FFTs using library dependent lengths                                  F
 GLOBAL| Global print level                                                  LOW
 GLOBAL| MPI I/O enabled                                                       T
 GLOBAL| Total number of message passing processes                            36
 GLOBAL| Number of threads for this process                                    1
 GLOBAL| This output is from process                                           0
 GLOBAL| CPU model name                          AMD EPYC 7401 24-Core Processor
 GLOBAL| CPUID                                                              1002

 MEMORY| system memory details [Kb]
 MEMORY|                        rank 0           min           max       average
 MEMORY| MemTotal            263987256     263987256     263987256     263987256
 MEMORY| MemFree             242408232     242408232     242408232     242408232
 MEMORY| Buffers                   148           148           148           148
 MEMORY| Cached               17705380      17705380      17705380      17705380
 MEMORY| Slab                   939176        939176        939176        939176
 MEMORY| SReclaimable           421272        421272        421272        421272
 MEMORY| MemLikelyFree       260535032     260535032     260535032     260535032


 GENERATE|  Preliminary Number of Bonds generated:                             0
 GENERATE|  Achieved consistency in connectivity generation.

 *******************************************************************************
 *******************************************************************************
 **                                                                           **
 **     #####                         ##              ##                      **
 **    ##   ##            ##          ##              ##                      **
 **   ##     ##                       ##            ######                    **
 **   ##     ##  ##   ##  ##   #####  ##  ##   ####   ##    #####    #####    **
 **   ##     ##  ##   ##  ##  ##      ## ##   ##      ##   ##   ##  ##   ##   **
 **   ##  ## ##  ##   ##  ##  ##      ####     ###    ##   ######   ######    **
 **    ##  ###   ##   ##  ##  ##      ## ##      ##   ##   ##       ##        **
 **     #######   #####   ##   #####  ##  ##  ####    ##    #####   ##        **
 **           ##                                                    ##        **
 **                                                                           **
 **                                                ... make the atoms dance   **
 **                                                                           **
 **            Copyright (C) by CP2K developers group (2000 - 2020)           **
 **                      J. Chem. Phys. 152, 194103 (2020)                    **
 **                                                                           **
 *******************************************************************************


 TOTAL NUMBERS AND MAXIMUM NUMBERS

  Total number of            - Atomic kinds:                                   3
                             - Atoms:                                          5
                             - Shell sets:                                    60
                             - Shells:                                       100
                             - Primitive Cartesian functions:                 60
                             - Cartesian basis functions:                    308
                             - Spherical basis functions:                    276

  Maximum angular momentum of- Orbital basis functions:                        3
                             - Local part of the GTH pseudopotential:          2
                             - Non-local part of the GTH pseudopotential:      0


 SCF PARAMETERS         Density guess:                                    ATOMIC
                        --------------------------------------------------------
                        max_scf:                                              10
                        max_scf_history:                                       0
                        max_diis:                                              4
                        --------------------------------------------------------
                        eps_scf:                                        1.00E-07
                        eps_scf_history:                                0.00E+00
                        eps_diis:                                       1.00E-01
                        eps_eigval:                                     1.00E-05
                        --------------------------------------------------------
                        level_shift [a.u.]:                                 0.00
                        --------------------------------------------------------
                        Outer loop SCF in use 
                        No variables optimised in outer loop
                        eps_scf                                         1.00E-07
                        max_scf                                               10
                        No outer loop optimization
                        step_size                                       5.00E-01

 Number of electrons:                                                         24
 Number of occupied orbitals:                                                 12
 Number of molecular orbitals:                                                12

 Number of orbital functions:                                                276
 Number of independent orbital functions:                                    276

 Extrapolation method: initial_guess


 SCF WAVEFUNCTION OPTIMIZATION

  ----------------------------------- OT ---------------------------------------
  Minimizer      : DIIS                : direct inversion
                                         in the iterative subspace
                                         using   7 DIIS vectors
                                         safer DIIS on
  Preconditioner : FULL_ALL            : diagonalization, state selective
  Precond_solver : DEFAULT
  stepsize       :    0.15000000                  energy_gap     :    0.08000000
  eps_taylor     :   0.10000E-15                  max_taylor     :             4
  ----------------------------------- OT ---------------------------------------

  Step     Update method      Time    Convergence         Total energy    Change
  ------------------------------------------------------------------------------
     1 OT DIIS     0.15E+00    9.4     0.08057538       -55.8805925054 -5.59E+01
     2 OT DIIS     0.15E+00    0.8     0.08997130       -57.0829063537 -1.20E+00
     3 OT DIIS     0.15E+00    0.7     0.05520821       -57.5192614392 -4.36E-01
     4 OT DIIS     0.15E+00    0.7     0.02913378       -57.9202226574 -4.01E-01
     5 OT DIIS     0.15E+00    0.8     0.02578703       -58.0845410183 -1.64E-01
     6 OT DIIS     0.15E+00    0.7     0.02342927       -58.2023302673 -1.18E-01
     7 OT DIIS     0.15E+00    0.7     0.01277075       -58.3916927950 -1.89E-01
     8 OT DIIS     0.15E+00    0.7     0.00900386       -58.4244810104 -3.28E-02
     9 OT DIIS     0.15E+00    0.8     0.00848818       -58.4470607673 -2.26E-02
    10 OT DIIS     0.15E+00    0.7     0.00350367       -58.4534529384 -6.39E-03

  Leaving inner SCF loop after reaching    10 steps.


  Electronic density on regular grids:        -24.0000000004       -0.0000000004
  Core density on regular grids:               24.0000000000       -0.0000000000
  Total charge density on r-space grids:       -0.0000000004
  Total charge density g-space grids:          -0.0000000004

  Overlap energy of the core charge distribution:               0.00000004761716
  Self energy of the core charge distribution:               -149.72480493796212
  Core Hamiltonian energy:                                     42.81495462914371
  Hartree energy:                                              61.67525152123360
  Exchange-correlation energy:                                -10.18827983221779
  Hartree-Fock Exchange energy:                                -3.03057436623932

  Total energy:                                               -58.45345293842475

  outer SCF iter =    1 RMS gradient =   0.35E-02 energy =        -58.4534529384

  ----------------------------------- OT ---------------------------------------
  Minimizer      : DIIS                : direct inversion
                                         in the iterative subspace
                                         using   7 DIIS vectors
                                         safer DIIS on
  Preconditioner : FULL_ALL            : diagonalization, state selective
  Precond_solver : DEFAULT
  stepsize       :    0.15000000                  energy_gap     :    0.08000000
  eps_taylor     :   0.10000E-15                  max_taylor     :             4
  ----------------------------------- OT ---------------------------------------

  Step     Update method      Time    Convergence         Total energy    Change
  ------------------------------------------------------------------------------
     1 OT DIIS     0.15E+00    1.5     0.00311448       -58.4555452800 -2.09E-03
     2 OT DIIS     0.15E+00    0.7     0.00187751       -58.4585314600 -2.99E-03
     3 OT DIIS     0.15E+00    0.8     0.00123373       -58.4592765328 -7.45E-04
     4 OT DIIS     0.15E+00    0.7     0.00035024       -58.4596880770 -4.12E-04
     5 OT DIIS     0.15E+00    0.7     0.00009308       -58.4597047800 -1.67E-05
     6 OT DIIS     0.15E+00    0.7     0.00002868       -58.4597068676 -2.09E-06
     7 OT DIIS     0.15E+00    0.7     0.00001020       -58.4597071004 -2.33E-07
     8 OT DIIS     0.15E+00    0.8     0.00000357       -58.4597071305 -3.01E-08
     9 OT DIIS     0.15E+00    0.7     0.00000093       -58.4597071344 -3.98E-09
    10 OT DIIS     0.15E+00    0.7     0.00000025       -58.4597071349 -4.28E-10

  Leaving inner SCF loop after reaching    10 steps.


  Electronic density on regular grids:        -24.0000000004       -0.0000000004
  Core density on regular grids:               24.0000000000       -0.0000000000
  Total charge density on r-space grids:       -0.0000000004
  Total charge density g-space grids:          -0.0000000004

  Overlap energy of the core charge distribution:               0.00000004761716
  Self energy of the core charge distribution:               -149.72480493796212
  Core Hamiltonian energy:                                     42.80420210527744
  Hartree energy:                                              61.67762678470935
  Exchange-correlation energy:                                -10.18749798376905
  Hartree-Fock Exchange energy:                                -3.02923315074388

  Total energy:                                               -58.45970713487110

  outer SCF iter =    2 RMS gradient =   0.25E-06 energy =        -58.4597071349

  ----------------------------------- OT ---------------------------------------
  Minimizer      : DIIS                : direct inversion
                                         in the iterative subspace
                                         using   7 DIIS vectors
                                         safer DIIS on
  Preconditioner : FULL_ALL            : diagonalization, state selective
  Precond_solver : DEFAULT
  stepsize       :    0.15000000                  energy_gap     :    0.08000000
  eps_taylor     :   0.10000E-15                  max_taylor     :             4
  ----------------------------------- OT ---------------------------------------

  Step     Update method      Time    Convergence         Total energy    Change
  ------------------------------------------------------------------------------
     1 OT DIIS     0.15E+00    1.5     0.00000008       -58.4597071349 -3.19E-11

  *** SCF run converged in     1 steps ***


  Electronic density on regular grids:        -24.0000000004       -0.0000000004
  Core density on regular grids:               24.0000000000       -0.0000000000
  Total charge density on r-space grids:       -0.0000000004
  Total charge density g-space grids:          -0.0000000004

  Overlap energy of the core charge distribution:               0.00000004761716
  Self energy of the core charge distribution:               -149.72480493796212
  Core Hamiltonian energy:                                     42.80419397155970
  Hartree energy:                                              61.67763349838815
  Exchange-correlation energy:                                -10.18749693189761
  Hartree-Fock Exchange energy:                                -3.02923278260824

  Total energy:                                               -58.45970713490296

  outer SCF iter =    3 RMS gradient =   0.78E-07 energy =        -58.4597071349
  outer SCF loop converged in   3 iterations or   21 steps


 ENERGY| Total FORCE_EVAL ( QS ) energy [a.u.]:              -58.459707134902963

 -------------------------------------------------------------------------------
 -                                                                             -
 -                                DBCSR STATISTICS                             -
 -                                                                             -
 -------------------------------------------------------------------------------
 COUNTER                                    TOTAL       BLAS       SMM       ACC
 flops    12 x    12 x    12               787968       0.0%    100.0%      0.0%
 flops    12 x    12 x    68              1703808       0.0%    100.0%      0.0%
 flops    68 x    12 x    12              2115072       0.0%    100.0%      0.0%
 flops    68 x    68 x    12              2441472       0.0%    100.0%      0.0%
 flops    52 x    68 x    12              3734016       0.0%    100.0%      0.0%
 flops    68 x    52 x    12              3734016       0.0%    100.0%      0.0%
 flops    12 x    12 x    52              5211648       0.0%    100.0%      0.0%
 flops    52 x    12 x    12              6469632       0.0%    100.0%      0.0%
 flops    68 x    12 x    68             12207360       0.0%    100.0%      0.0%
 flops    52 x    52 x    12             14277120       0.0%    100.0%      0.0%
 flops    68 x    12 x    52             37340160       0.0%    100.0%      0.0%
 flops    52 x    12 x    68             37340160       0.0%    100.0%      0.0%
 flops    52 x    12 x    52            114216960       0.0%    100.0%      0.0%
 flops inhomo. stacks                           0       0.0%      0.0%      0.0%
 flops total                       241.579392E+06       0.0%    100.0%      0.0%
 flops max/rank                     61.807488E+06       0.0%    100.0%      0.0%
 matmuls inhomo. stacks                         0       0.0%      0.0%      0.0%
 matmuls total                               4283       0.0%    100.0%      0.0%
 number of processed stacks                  4283       0.0%    100.0%      0.0%
 average stack size                                     0.0       1.0       0.0
 marketing flops                   257.852160E+06
 -------------------------------------------------------------------------------
 # multiplications                            558
 max memory usage/rank             560.377856E+06
 # max total images/rank                        1
 # max 3D layers                                1
 # MPI messages exchanged                  200880
 MPI messages size (bytes):
  total size                       396.184320E+06
  min size                           0.000000E+00
  max size                          36.992000E+03
  average size                       1.972244E+03
 MPI breakdown and total messages size (bytes):
             size <=      128              173410                        0
       128 < size <=     8192               13720                 61009920
      8192 < size <=    32768               13200                314828800
     32768 < size <=   131072                 550                 20345600
    131072 < size <=  4194304                   0                        0
   4194304 < size <= 16777216                   0                        0
  16777216 < size                               0                        0
 -------------------------------------------------------------------------------
 -                                                                             -
 -                      DBCSR MESSAGE PASSING PERFORMANCE                      -
 -                                                                             -
 -------------------------------------------------------------------------------
 ROUTINE             CALLS      AVE VOLUME [Bytes]
 MP_Bcast               14                     12.
 MP_Allreduce         2955                      8.
 MP_Alltoall          2175                   3125.
 MP_ISend            13380                   1977.
 MP_IRecv            13380                   1411.
 -------------------------------------------------------------------------------

 -------------------------------------------------------------------------------
 -                                                                             -
 -                                GRID STATISTICS                              -
 -                                                                             -
 -------------------------------------------------------------------------------
 LP    KERNEL    OPERATION                                     COUNT     PERCENT
 0     general   collocate                                       180       0.20%
 0     ortho     integrate                                      1344       1.51%
 0     ortho     collocate                                      1408       1.59%
 1     ortho     integrate                                      4704       5.30%
 1     ortho     collocate                                      4928       5.55%
 2     ortho     integrate                                     14994      16.88%
 2     ortho     collocate                                     15708      17.69%
 3     ortho     integrate                                     14532      16.36%
 3     ortho     collocate                                     15224      17.14%
 4     ortho     integrate                                      6027       6.79%
 4     ortho     collocate                                      6314       7.11%
 5     ortho     integrate                                      1344       1.51%
 5     ortho     collocate                                      1408       1.59%
 6     ortho     integrate                                       336       0.38%
 6     ortho     collocate                                       352       0.40%
 -------------------------------------------------------------------------------

 MEMORY| Estimated peak process memory [MiB]                                 535

 -------------------------------------------------------------------------------
 -                                                                             -
 -                         MESSAGE PASSING PERFORMANCE                         -
 -                                                                             -
 -------------------------------------------------------------------------------

 ROUTINE             CALLS      AVE VOLUME [Bytes]
 MP_Group                5
 MP_Bcast              392                 712591.
 MP_Allreduce         1057                   1350.
 MP_Sync               112
 MP_Alltoall           419                6176683.
 MP_ISendRecv         6055                  95466.
 MP_Wait              7947
 MP_ISend             1760                 242064.
 MP_IRecv             1760                 242064.
 MP_Recv                10                   4416.
 -------------------------------------------------------------------------------


 -------------------------------------------------------------------------------
 -                                                                             -
 -                           R E F E R E N C E S                               -
 -                                                                             -
 -------------------------------------------------------------------------------
 
 CP2K version 8.0 (Development Version), the CP2K developers group (2020).
 CP2K is freely available from https://www.cp2k.org/ .

 Kuehne,Thomas D.; Iannuzzi,Marcella; Del Ben,Mauro;
 Rybkin,Vladimir V.; Seewald,Patrick; Stein,Frederick; Laino,Teodoro;
 Khaliullin,Rustam Z.; Schuett,Ole; Schiffmann,Florian; Golze,Dorothea;
 Wilhelm,Jan; Chulkov,Sergey; Bani-Hashemian,Mohammad Hossein;
 Weber,Valery; Borstnik,Urban; Taillefumier,Mathieu;
 Jakobovits,Alice Shoshana; Lazzaro,Alfio; Pabst,Hans; Mueller,Tiziano;
 Schade,Robert; Guidon,Manuel; Andermatt,Samuel; Holmberg,Nico;
 Schenter,Gregory K.; Hehn,Anna; Bussy,Augustin; Belleflamme,Fabian;
 Tabacchi,Gloria; Gloess,Andreas; Lass,Michael; Bethune,Iain;
 Mundy,Christopher J.; Plessl,Christian; Watkins,Matt;
 VandeVondele,Joost; Krack,Matthias; Hutter,Juerg. 
 The Journal of Chemical Physics, 152 (19), (2020). 
 CP2K: An electronic structure and molecular dynamics software package -
 Quickstep: Efficient and accurate electronic structure calculations.
 https://doi.org/10.1063/5.0007045

 Schuett, Ole; Messmer, Peter; Hutter, Juerg; VandeVondele, Joost. 
 Electronic Structure Calculations on Graphics Processing Units, John
 Wiley & Sons, Ltd, 173-190 (2016). 
 GPU-Accelerated Sparse Matrix-Matrix Multiplication for
 Linear Scaling Density Functional Theory.
 https://doi.org/10.1002/9781118670712.ch8

 Borstnik, U; VandeVondele, J; Weber, V; Hutter, J. 
 PARALLEL COMPUTING, 40 (5-6), 47-58 (2014). 
 Sparse matrix multiplication: The distributed block-compressed sparse
 row library.
 https://doi.org/10.1016/j.parco.2014.03.012

 Hutter, J; Iannuzzi, M; Schiffmann, F; VandeVondele, J. 
 WIREs Comput Mol Sci., 4 (1), 15-25 (2014). 
 CP2K: atomistic simulations of condensed matter systems.
 https://doi.org/10.1002/wcms.1159

 Marek, A; Blum, V; Johanni, R; Havu, V; Lang, B; Auckenthaler, T;
 Heinecke, A; Bungartz, H; Lederer, H. 
 Journal of Physics: Condensed Matter, 26 (21), (2014). 
 The ELPA library: scalable parallel eigenvalue solutions for
 electronic structure
 theory and computational science.
 https://doi.org/10.1088/0953-8984/26/21/213201

 Guidon, M; Hutter, J; VandeVondele, J. 
 JOURNAL OF CHEMICAL THEORY AND COMPUTATION, 5 (11), 3010-3021 (2009). 
 Robust Periodic Hartree-Fock Exchange for Large-Scale Simulations Using
 Gaussian Basis Sets.
 https://doi.org/10.1021/ct900494g

 Guidon, M; Schiffmann, F; Hutter, J; VandeVondele, J. 
 JOURNAL OF CHEMICAL PHYSICS, 128 (21), 214104 (2008). 
 Ab initio molecular dynamics using hybrid density functionals.
 https://doi.org/10.1063/1.2931945

 Krack, M. 
 THEORETICAL CHEMISTRY ACCOUNTS, 114 (1-3), 145-152 (2005). 
 Pseudopotentials for H to Kr optimized for gradient-corrected
 exchange-correlation functionals.
 https://doi.org/10.1007/s00214-005-0655-y

 VandeVondele, J; Krack, M; Mohamed, F; Parrinello, M; Chassaing, T;
 Hutter, J. COMPUTER PHYSICS COMMUNICATIONS, 167 (2), 103-128 (2005). 
 QUICKSTEP: Fast and accurate density functional calculations using a
 mixed Gaussian and plane waves approach.
 https://doi.org/10.1016/j.cpc.2004.12.014

 Frigo, M; Johnson, SG. 
 PROCEEDINGS OF THE IEEE, 93 (2), 216-231 (2005). 
 The design and implementation of FFTW3.
 https://doi.org/10.1109/JPROC.2004.840301

 VandeVondele, J; Hutter, J. 
 JOURNAL OF CHEMICAL PHYSICS, 118 (10), 4365-4369 (2003). 
 An efficient orbital transformation method for electronic structure
 calculations.
 https://doi.org/10.1063/1.1543154

 Martyna, GJ; Tuckerman, ME. 
 JOURNAL OF CHEMICAL PHYSICS, 110 (6), 2810-2821 (1999). 
 A reciprocal space based method for treating long range interactions in
 ab initio and force-field-based calculations in clusters.
 https://doi.org/10.1063/1.477923

 Hartwigsen, C; Goedecker, S; Hutter, J. 
 PHYSICAL REVIEW B, 58 (7), 3641-3662 (1998). 
 Relativistic separable dual-space Gaussian pseudopotentials from H to Rn.
 https://doi.org/10.1103/PhysRevB.58.3641

 Lippert, G; Hutter, J; Parrinello, M. 
 MOLECULAR PHYSICS, 92 (3), 477-487 (1997). 
 A hybrid Gaussian and plane wave density functional scheme.
 https://doi.org/10.1080/002689797170220

 Perdew, JP; Burke, K; Ernzerhof, M. 
 PHYSICAL REVIEW LETTERS, 77 (18), 3865-3868 (1996). 
 Generalized gradient approximation made simple.
 https://doi.org/10.1103/PhysRevLett.77.3865

 Goedecker, S; Teter, M; Hutter, J. 
 PHYSICAL REVIEW B, 54 (3), 1703-1710 (1996). 
 Separable dual-space Gaussian pseudopotentials.
 https://doi.org/10.1103/PhysRevB.54.1703


 -------------------------------------------------------------------------------
 -                                                                             -
 -                                T I M I N G                                  -
 -                                                                             -
 -------------------------------------------------------------------------------
 SUBROUTINE                       CALLS  ASD         SELF TIME        TOTAL TIME
                                MAXIMUM       AVERAGE  MAXIMUM  AVERAGE  MAXIMUM
 CP2K                                 1  1.0    0.023    0.028   24.902   24.903
 qs_energies                          1  2.0    0.000    0.000   24.643   24.643
 scf_env_do_scf                       1  3.0    0.000    0.000   24.444   24.444
 qs_ks_update_qs_env                 24  5.0    0.000    0.000   21.482   21.483
 rebuild_ks_matrix                   21  6.0    0.000    0.000   21.480   21.481
 qs_ks_build_kohn_sham_matrix        21  7.0    0.003    0.004   21.479   21.481
 hfx_ks_matrix                       21  8.0    0.001    0.001   14.099   14.100
 integrate_four_center               21  9.0    0.011    0.012   14.098   14.098
 scf_env_do_scf_inner_loop           21  4.0    0.001    0.002   13.787   13.787
 init_scf_loop                        3  4.0    0.000    0.000   10.656   10.657
 integrate_four_center_main          21 10.0    0.003    0.004    5.049    7.219
 integrate_four_center_bin         2625 11.0    5.046    7.215    5.046    7.215
 pw_transfer                        406  9.6    0.036    0.044    5.071    5.672
 fft_wrap_pw1pw2                    364 10.7    0.005    0.006    4.995    5.606
 fft_wrap_pw1pw2_300                234 11.8    0.258    0.309    4.704    5.305
 calc_screening_functions             1 10.0    3.253    3.271    4.710    4.749
 fft3d_ps                           364 12.7    1.812    1.904    3.994    4.740
 qs_vxc_create                       21  8.0    0.000    0.001    4.563    4.576
 xc_vxc_pw_create                    21  9.0    0.037    0.063    4.562    4.576
 mp_sync                            112 10.7    2.177    3.932    2.177    3.932
 xc_rho_set_and_dset_create          21 10.0    0.020    0.024    2.552    2.819
 mp_alltoall_z22v                   364 14.7    1.746    2.599    1.746    2.599
 qs_rho_update_rho                   22  5.0    0.000    0.000    2.501    2.501
 calculate_rho_elec                  22  6.0    0.016    0.016    2.500    2.501
 rs_pw_transfer                     173  9.4    0.003    0.005    1.873    2.069
 sum_up_and_integrate                21  8.0    0.008    0.010    2.063    2.063
 integrate_v_rspace_low              21  9.0    0.095    0.490    2.055    2.057
 density_rs2pw                       22  7.0    0.001    0.001    1.816    2.003
 calc_pair_dist_radii                 1 10.0    1.510    1.518    1.944    1.956
 powell_optimize                 705926 11.0    1.891    1.926    1.891    1.926
 yz_to_x                            174 13.1    0.179    0.210    1.172    1.848
 potential_pw2rs                     21 10.0    0.002    0.002    1.554    1.556
 xc_functional_eval                  21 11.0    0.000    0.000    1.138    1.405
 pbe_lda_eval                        21 12.0    1.137    1.405    1.137    1.405
 x_to_yz                            190 14.2    0.246    0.277    0.999    1.145
 mp_waitall_1                     41899 13.9    0.685    0.864    0.685    0.864
 grid_collocate_task_list            22  7.0    0.403    0.774    0.403    0.774
 rs_pw_transfer_RS2PW_300            23  8.9    0.246    0.373    0.571    0.767
 mp_waitany                        1760 11.4    0.405    0.663    0.405    0.663
 mp_alltoall_d11v                   538 11.3    0.469    0.589    0.469    0.589
 rs_pw_transfer_PW2RS_300            21 12.0    0.263    0.327    0.459    0.533
 rs_distribute_matrix                21 10.0    0.000    0.001    0.404    0.499
 -------------------------------------------------------------------------------

 The number of warnings for this run is : 0
 
 -------------------------------------------------------------------------------
  **** **** ******  **  PROGRAM ENDED AT                 2020-11-30 13:21:22.684
 ***** ** ***  *** **   PROGRAM RAN ON                                   tcopt10
 **    ****   ******    PROGRAM RAN BY                                    hutter
 ***** **    ** ** **   PROGRAM PROCESS ID                                 87548
  **** **  *******  **  PROGRAM STOPPED IN /data/hutter/GITHUB/BASIS/MOLOPT/PBE0
                                           /hbcnof
